PSF EXT CMAP XPLOR

         3 !NTITLE
* GENERATED BY CHARMM-GUI (HTTP://WWW.CHARMM-GUI.ORG) V3.7 ON FEB, 08. 2026. JOB
* GET A DIFFERENT CONFORMATION FOR LIPIDS PENETRATING PROTEIN / CHOL            
*  DATE:     2/ 8/26      2:11:37      CREATED BY USER: charmm-gui              

     42846 !NATOM
         1 MEMB     1        CHL1     C3       CRL1     0.140000       12.0110           0
         2 MEMB     1        CHL1     H3       HGA1     0.900000E-01   1.00800           0
         3 MEMB     1        CHL1     O3       OHL     -0.660000       15.9994           0
         4 MEMB     1        CHL1     H3'      HOL      0.430000       1.00800           0
         5 MEMB     1        CHL1     C4       CRL2    -0.180000       12.0110           0
         6 MEMB     1        CHL1     H4A      HGA2     0.900000E-01   1.00800           0
         7 MEMB     1        CHL1     H4B      HGA2     0.900000E-01   1.00800           0
         8 MEMB     1        CHL1     C5       CEL1      0.00000       12.0110           0
         9 MEMB     1        CHL1     C6       CEL1    -0.150000       12.0110           0
        10 MEMB     1        CHL1     H6       HEL1     0.150000       1.00800           0
        11 MEMB     1        CHL1     C7       CRL2    -0.180000       12.0110           0
        12 MEMB     1        CHL1     H7A      HGA2     0.900000E-01   1.00800           0
        13 MEMB     1        CHL1     H7B      HGA2     0.900000E-01   1.00800           0
        14 MEMB     1        CHL1     C8       CRL1    -0.900000E-01   12.0110           0
        15 MEMB     1        CHL1     H8       HGA1     0.900000E-01   1.00800           0
        16 MEMB     1        CHL1     C14      CRL1    -0.900000E-01   12.0110           0
        17 MEMB     1        CHL1     H14      HGA1     0.900000E-01   1.00800           0
        18 MEMB     1        CHL1     C15      CRL2    -0.180000       12.0110           0
        19 MEMB     1        CHL1     H15A     HGA2     0.900000E-01   1.00800           0
        20 MEMB     1        CHL1     H15B     HGA2     0.900000E-01   1.00800           0
        21 MEMB     1        CHL1     C16      CRL2    -0.180000       12.0110           0
        22 MEMB     1        CHL1     H16A     HGA2     0.900000E-01   1.00800           0
        23 MEMB     1        CHL1     H16B     HGA2     0.900000E-01   1.00800           0
        24 MEMB     1        CHL1     C17      CRL1    -0.900000E-01   12.0110           0
        25 MEMB     1        CHL1     H17      HGA1     0.900000E-01   1.00800           0
        26 MEMB     1        CHL1     C13      CRL1      0.00000       12.0110           0
        27 MEMB     1        CHL1     C18      CTL3    -0.270000       12.0110           0
        28 MEMB     1        CHL1     H18A     HAL3     0.900000E-01   1.00800           0
        29 MEMB     1        CHL1     H18B     HAL3     0.900000E-01   1.00800           0
        30 MEMB     1        CHL1     H18C     HAL3     0.900000E-01   1.00800           0
        31 MEMB     1        CHL1     C12      CRL2    -0.180000       12.0110           0
        32 MEMB     1        CHL1     H12A     HGA2     0.900000E-01   1.00800           0
        33 MEMB     1        CHL1     H12B     HGA2     0.900000E-01   1.00800           0
        34 MEMB     1        CHL1     C11      CRL2    -0.180000       12.0110           0
        35 MEMB     1        CHL1     H11A     HGA2     0.900000E-01   1.00800           0
        36 MEMB     1        CHL1     H11B     HGA2     0.900000E-01   1.00800           0
        37 MEMB     1        CHL1     C9       CRL1    -0.900000E-01   12.0110           0
        38 MEMB     1        CHL1     H9       HGA1     0.900000E-01   1.00800           0
        39 MEMB     1        CHL1     C10      CRL1      0.00000       12.0110           0
        40 MEMB     1        CHL1     C19      CTL3    -0.270000       12.0110           0
        41 MEMB     1        CHL1     H19A     HAL3     0.900000E-01   1.00800           0
        42 MEMB     1        CHL1     H19B     HAL3     0.900000E-01   1.00800           0
        43 MEMB     1        CHL1     H19C     HAL3     0.900000E-01   1.00800           0
        44 MEMB     1        CHL1     C1       CRL2    -0.180000       12.0110           0
        45 MEMB     1        CHL1     H1A      HGA2     0.900000E-01   1.00800           0
        46 MEMB     1        CHL1     H1B      HGA2     0.900000E-01   1.00800           0
        47 MEMB     1        CHL1     C2       CRL2    -0.180000       12.0110           0
        48 MEMB     1        CHL1     H2A      HGA2     0.900000E-01   1.00800           0
        49 MEMB     1        CHL1     H2B      HGA2     0.900000E-01   1.00800           0
        50 MEMB     1        CHL1     C20      CTL1    -0.900000E-01   12.0110           0
        51 MEMB     1        CHL1     H20      HAL1     0.900000E-01   1.00800           0
        52 MEMB     1        CHL1     C21      CTL3    -0.270000       12.0110           0
        53 MEMB     1        CHL1     H21A     HAL3     0.900000E-01   1.00800           0
        54 MEMB     1        CHL1     H21B     HAL3     0.900000E-01   1.00800           0
        55 MEMB     1        CHL1     H21C     HAL3     0.900000E-01   1.00800           0
        56 MEMB     1        CHL1     C22      CTL2    -0.180000       12.0110           0
        57 MEMB     1        CHL1     H22A     HAL2     0.900000E-01   1.00800           0
        58 MEMB     1        CHL1     H22B     HAL2     0.900000E-01   1.00800           0
        59 MEMB     1        CHL1     C23      CTL2    -0.180000       12.0110           0
        60 MEMB     1        CHL1     H23A     HAL2     0.900000E-01   1.00800           0
        61 MEMB     1        CHL1     H23B     HAL2     0.900000E-01   1.00800           0
        62 MEMB     1        CHL1     C24      CTL2    -0.180000       12.0110           0
        63 MEMB     1        CHL1     H24A     HAL2     0.900000E-01   1.00800           0
        64 MEMB     1        CHL1     H24B     HAL2     0.900000E-01   1.00800           0
        65 MEMB     1        CHL1     C25      CTL1    -0.900000E-01   12.0110           0
        66 MEMB     1        CHL1     H25      HAL1     0.900000E-01   1.00800           0
        67 MEMB     1        CHL1     C26      CTL3    -0.270000       12.0110           0
        68 MEMB     1        CHL1     H26A     HAL3     0.900000E-01   1.00800           0
        69 MEMB     1        CHL1     H26B     HAL3     0.900000E-01   1.00800           0
        70 MEMB     1        CHL1     H26C     HAL3     0.900000E-01   1.00800           0
        71 MEMB     1        CHL1     C27      CTL3    -0.270000       12.0110           0
        72 MEMB     1        CHL1     H27A     HAL3     0.900000E-01   1.00800           0
        73 MEMB     1        CHL1     H27B     HAL3     0.900000E-01   1.00800           0
        74 MEMB     1        CHL1     H27C     HAL3     0.900000E-01   1.00800           0
        75 MEMB     2        CHL1     C3       CRL1     0.140000       12.0110           0
        76 MEMB     2        CHL1     H3       HGA1     0.900000E-01   1.00800           0
        77 MEMB     2        CHL1     O3       OHL     -0.660000       15.9994           0
        78 MEMB     2        CHL1     H3'      HOL      0.430000       1.00800           0
        79 MEMB     2        CHL1     C4       CRL2    -0.180000       12.0110           0
        80 MEMB     2        CHL1     H4A      HGA2     0.900000E-01   1.00800           0
        81 MEMB     2        CHL1     H4B      HGA2     0.900000E-01   1.00800           0
        82 MEMB     2        CHL1     C5       CEL1      0.00000       12.0110           0
        83 MEMB     2        CHL1     C6       CEL1    -0.150000       12.0110           0
        84 MEMB     2        CHL1     H6       HEL1     0.150000       1.00800           0
        85 MEMB     2        CHL1     C7       CRL2    -0.180000       12.0110           0
        86 MEMB     2        CHL1     H7A      HGA2     0.900000E-01   1.00800           0
        87 MEMB     2        CHL1     H7B      HGA2     0.900000E-01   1.00800           0
        88 MEMB     2        CHL1     C8       CRL1    -0.900000E-01   12.0110           0
        89 MEMB     2        CHL1     H8       HGA1     0.900000E-01   1.00800           0
        90 MEMB     2        CHL1     C14      CRL1    -0.900000E-01   12.0110           0
        91 MEMB     2        CHL1     H14      HGA1     0.900000E-01   1.00800           0
        92 MEMB     2        CHL1     C15      CRL2    -0.180000       12.0110           0
        93 MEMB     2        CHL1     H15A     HGA2     0.900000E-01   1.00800           0
        94 MEMB     2        CHL1     H15B     HGA2     0.900000E-01   1.00800           0
        95 MEMB     2        CHL1     C16      CRL2    -0.180000       12.0110           0
        96 MEMB     2        CHL1     H16A     HGA2     0.900000E-01   1.00800           0
        97 MEMB     2        CHL1     H16B     HGA2     0.900000E-01   1.00800           0
        98 MEMB     2        CHL1     C17      CRL1    -0.900000E-01   12.0110           0
        99 MEMB     2        CHL1     H17      HGA1     0.900000E-01   1.00800           0
       100 MEMB     2        CHL1     C13      CRL1      0.00000       12.0110           0
       101 MEMB     2        CHL1     C18      CTL3    -0.270000       12.0110           0
       102 MEMB     2        CHL1     H18A     HAL3     0.900000E-01   1.00800           0
       103 MEMB     2        CHL1     H18B     HAL3     0.900000E-01   1.00800           0
       104 MEMB     2        CHL1     H18C     HAL3     0.900000E-01   1.00800           0
       105 MEMB     2        CHL1     C12      CRL2    -0.180000       12.0110           0
       106 MEMB     2        CHL1     H12A     HGA2     0.900000E-01   1.00800           0
       107 MEMB     2        CHL1     H12B     HGA2     0.900000E-01   1.00800           0
       108 MEMB     2        CHL1     C11      CRL2    -0.180000       12.0110           0
       109 MEMB     2        CHL1     H11A     HGA2     0.900000E-01   1.00800           0
       110 MEMB     2        CHL1     H11B     HGA2     0.900000E-01   1.00800           0
       111 MEMB     2        CHL1     C9       CRL1    -0.900000E-01   12.0110           0
       112 MEMB     2        CHL1     H9       HGA1     0.900000E-01   1.00800           0
       113 MEMB     2        CHL1     C10      CRL1      0.00000       12.0110           0
       114 MEMB     2        CHL1     C19      CTL3    -0.270000       12.0110           0
       115 MEMB     2        CHL1     H19A     HAL3     0.900000E-01   1.00800           0
       116 MEMB     2        CHL1     H19B     HAL3     0.900000E-01   1.00800           0
       117 MEMB     2        CHL1     H19C     HAL3     0.900000E-01   1.00800           0
       118 MEMB     2        CHL1     C1       CRL2    -0.180000       12.0110           0
       119 MEMB     2        CHL1     H1A      HGA2     0.900000E-01   1.00800           0
       120 MEMB     2        CHL1     H1B      HGA2     0.900000E-01   1.00800           0
       121 MEMB     2        CHL1     C2       CRL2    -0.180000       12.0110           0
       122 MEMB     2        CHL1     H2A      HGA2     0.900000E-01   1.00800           0
       123 MEMB     2        CHL1     H2B      HGA2     0.900000E-01   1.00800           0
       124 MEMB     2        CHL1     C20      CTL1    -0.900000E-01   12.0110           0
       125 MEMB     2        CHL1     H20      HAL1     0.900000E-01   1.00800           0
       126 MEMB     2        CHL1     C21      CTL3    -0.270000       12.0110           0
       127 MEMB     2        CHL1     H21A     HAL3     0.900000E-01   1.00800           0
       128 MEMB     2        CHL1     H21B     HAL3     0.900000E-01   1.00800           0
       129 MEMB     2        CHL1     H21C     HAL3     0.900000E-01   1.00800           0
       130 MEMB     2        CHL1     C22      CTL2    -0.180000       12.0110           0
       131 MEMB     2        CHL1     H22A     HAL2     0.900000E-01   1.00800           0
       132 MEMB     2        CHL1     H22B     HAL2     0.900000E-01   1.00800           0
       133 MEMB     2        CHL1     C23      CTL2    -0.180000       12.0110           0
       134 MEMB     2        CHL1     H23A     HAL2     0.900000E-01   1.00800           0
       135 MEMB     2        CHL1     H23B     HAL2     0.900000E-01   1.00800           0
       136 MEMB     2        CHL1     C24      CTL2    -0.180000       12.0110           0
       137 MEMB     2        CHL1     H24A     HAL2     0.900000E-01   1.00800           0
       138 MEMB     2        CHL1     H24B     HAL2     0.900000E-01   1.00800           0
       139 MEMB     2        CHL1     C25      CTL1    -0.900000E-01   12.0110           0
       140 MEMB     2        CHL1     H25      HAL1     0.900000E-01   1.00800           0
       141 MEMB     2        CHL1     C26      CTL3    -0.270000       12.0110           0
       142 MEMB     2        CHL1     H26A     HAL3     0.900000E-01   1.00800           0
       143 MEMB     2        CHL1     H26B     HAL3     0.900000E-01   1.00800           0
       144 MEMB     2        CHL1     H26C     HAL3     0.900000E-01   1.00800           0
       145 MEMB     2        CHL1     C27      CTL3    -0.270000       12.0110           0
       146 MEMB     2        CHL1     H27A     HAL3     0.900000E-01   1.00800           0
       147 MEMB     2        CHL1     H27B     HAL3     0.900000E-01   1.00800           0
       148 MEMB     2        CHL1     H27C     HAL3     0.900000E-01   1.00800           0
       149 MEMB     3        CHL1     C3       CRL1     0.140000       12.0110           0
       150 MEMB     3        CHL1     H3       HGA1     0.900000E-01   1.00800           0
       151 MEMB     3        CHL1     O3       OHL     -0.660000       15.9994           0
       152 MEMB     3        CHL1     H3'      HOL      0.430000       1.00800           0
       153 MEMB     3        CHL1     C4       CRL2    -0.180000       12.0110           0
       154 MEMB     3        CHL1     H4A      HGA2     0.900000E-01   1.00800           0
       155 MEMB     3        CHL1     H4B      HGA2     0.900000E-01   1.00800           0
       156 MEMB     3        CHL1     C5       CEL1      0.00000       12.0110           0
       157 MEMB     3        CHL1     C6       CEL1    -0.150000       12.0110           0
       158 MEMB     3        CHL1     H6       HEL1     0.150000       1.00800           0
       159 MEMB     3        CHL1     C7       CRL2    -0.180000       12.0110           0
       160 MEMB     3        CHL1     H7A      HGA2     0.900000E-01   1.00800           0
       161 MEMB     3        CHL1     H7B      HGA2     0.900000E-01   1.00800           0
       162 MEMB     3        CHL1     C8       CRL1    -0.900000E-01   12.0110           0
       163 MEMB     3        CHL1     H8       HGA1     0.900000E-01   1.00800           0
       164 MEMB     3        CHL1     C14      CRL1    -0.900000E-01   12.0110           0
       165 MEMB     3        CHL1     H14      HGA1     0.900000E-01   1.00800           0
       166 MEMB     3        CHL1     C15      CRL2    -0.180000       12.0110           0
       167 MEMB     3        CHL1     H15A     HGA2     0.900000E-01   1.00800           0
       168 MEMB     3        CHL1     H15B     HGA2     0.900000E-01   1.00800           0
       169 MEMB     3        CHL1     C16      CRL2    -0.180000       12.0110           0
       170 MEMB     3        CHL1     H16A     HGA2     0.900000E-01   1.00800           0
       171 MEMB     3        CHL1     H16B     HGA2     0.900000E-01   1.00800           0
       172 MEMB     3        CHL1     C17      CRL1    -0.900000E-01   12.0110           0
       173 MEMB     3        CHL1     H17      HGA1     0.900000E-01   1.00800           0
       174 MEMB     3        CHL1     C13      CRL1      0.00000       12.0110           0
       175 MEMB     3        CHL1     C18      CTL3    -0.270000       12.0110           0
       176 MEMB     3        CHL1     H18A     HAL3     0.900000E-01   1.00800           0
       177 MEMB     3        CHL1     H18B     HAL3     0.900000E-01   1.00800           0
       178 MEMB     3        CHL1     H18C     HAL3     0.900000E-01   1.00800           0
       179 MEMB     3        CHL1     C12      CRL2    -0.180000       12.0110           0
       180 MEMB     3        CHL1     H12A     HGA2     0.900000E-01   1.00800           0
       181 MEMB     3        CHL1     H12B     HGA2     0.900000E-01   1.00800           0
       182 MEMB     3        CHL1     C11      CRL2    -0.180000       12.0110           0
       183 MEMB     3        CHL1     H11A     HGA2     0.900000E-01   1.00800           0
       184 MEMB     3        CHL1     H11B     HGA2     0.900000E-01   1.00800           0
       185 MEMB     3        CHL1     C9       CRL1    -0.900000E-01   12.0110           0
       186 MEMB     3        CHL1     H9       HGA1     0.900000E-01   1.00800           0
       187 MEMB     3        CHL1     C10      CRL1      0.00000       12.0110           0
       188 MEMB     3        CHL1     C19      CTL3    -0.270000       12.0110           0
       189 MEMB     3        CHL1     H19A     HAL3     0.900000E-01   1.00800           0
       190 MEMB     3        CHL1     H19B     HAL3     0.900000E-01   1.00800           0
       191 MEMB     3        CHL1     H19C     HAL3     0.900000E-01   1.00800           0
       192 MEMB     3        CHL1     C1       CRL2    -0.180000       12.0110           0
       193 MEMB     3        CHL1     H1A      HGA2     0.900000E-01   1.00800           0
       194 MEMB     3        CHL1     H1B      HGA2     0.900000E-01   1.00800           0
       195 MEMB     3        CHL1     C2       CRL2    -0.180000       12.0110           0
       196 MEMB     3        CHL1     H2A      HGA2     0.900000E-01   1.00800           0
       197 MEMB     3        CHL1     H2B      HGA2     0.900000E-01   1.00800           0
       198 MEMB     3        CHL1     C20      CTL1    -0.900000E-01   12.0110           0
       199 MEMB     3        CHL1     H20      HAL1     0.900000E-01   1.00800           0
       200 MEMB     3        CHL1     C21      CTL3    -0.270000       12.0110           0
       201 MEMB     3        CHL1     H21A     HAL3     0.900000E-01   1.00800           0
       202 MEMB     3        CHL1     H21B     HAL3     0.900000E-01   1.00800           0
       203 MEMB     3        CHL1     H21C     HAL3     0.900000E-01   1.00800           0
       204 MEMB     3        CHL1     C22      CTL2    -0.180000       12.0110           0
       205 MEMB     3        CHL1     H22A     HAL2     0.900000E-01   1.00800           0
       206 MEMB     3        CHL1     H22B     HAL2     0.900000E-01   1.00800           0
       207 MEMB     3        CHL1     C23      CTL2    -0.180000       12.0110           0
       208 MEMB     3        CHL1     H23A     HAL2     0.900000E-01   1.00800           0
       209 MEMB     3        CHL1     H23B     HAL2     0.900000E-01   1.00800           0
       210 MEMB     3        CHL1     C24      CTL2    -0.180000       12.0110           0
       211 MEMB     3        CHL1     H24A     HAL2     0.900000E-01   1.00800           0
       212 MEMB     3        CHL1     H24B     HAL2     0.900000E-01   1.00800           0
       213 MEMB     3        CHL1     C25      CTL1    -0.900000E-01   12.0110           0
       214 MEMB     3        CHL1     H25      HAL1     0.900000E-01   1.00800           0
       215 MEMB     3        CHL1     C26      CTL3    -0.270000       12.0110           0
       216 MEMB     3        CHL1     H26A     HAL3     0.900000E-01   1.00800           0
       217 MEMB     3        CHL1     H26B     HAL3     0.900000E-01   1.00800           0
       218 MEMB     3        CHL1     H26C     HAL3     0.900000E-01   1.00800           0
       219 MEMB     3        CHL1     C27      CTL3    -0.270000       12.0110           0
       220 MEMB     3        CHL1     H27A     HAL3     0.900000E-01   1.00800           0
       221 MEMB     3        CHL1     H27B     HAL3     0.900000E-01   1.00800           0
       222 MEMB     3        CHL1     H27C     HAL3     0.900000E-01   1.00800           0
       223 MEMB     4        CHL1     C3       CRL1     0.140000       12.0110           0
       224 MEMB     4        CHL1     H3       HGA1     0.900000E-01   1.00800           0
       225 MEMB     4        CHL1     O3       OHL     -0.660000       15.9994           0
       226 MEMB     4        CHL1     H3'      HOL      0.430000       1.00800           0
       227 MEMB     4        CHL1     C4       CRL2    -0.180000       12.0110           0
       228 MEMB     4        CHL1     H4A      HGA2     0.900000E-01   1.00800           0
       229 MEMB     4        CHL1     H4B      HGA2     0.900000E-01   1.00800           0
       230 MEMB     4        CHL1     C5       CEL1      0.00000       12.0110           0
       231 MEMB     4        CHL1     C6       CEL1    -0.150000       12.0110           0
       232 MEMB     4        CHL1     H6       HEL1     0.150000       1.00800           0
       233 MEMB     4        CHL1     C7       CRL2    -0.180000       12.0110           0
       234 MEMB     4        CHL1     H7A      HGA2     0.900000E-01   1.00800           0
       235 MEMB     4        CHL1     H7B      HGA2     0.900000E-01   1.00800           0
       236 MEMB     4        CHL1     C8       CRL1    -0.900000E-01   12.0110           0
       237 MEMB     4        CHL1     H8       HGA1     0.900000E-01   1.00800           0
       238 MEMB     4        CHL1     C14      CRL1    -0.900000E-01   12.0110           0
       239 MEMB     4        CHL1     H14      HGA1     0.900000E-01   1.00800           0
       240 MEMB     4        CHL1     C15      CRL2    -0.180000       12.0110           0
       241 MEMB     4        CHL1     H15A     HGA2     0.900000E-01   1.00800           0
       242 MEMB     4        CHL1     H15B     HGA2     0.900000E-01   1.00800           0
       243 MEMB     4        CHL1     C16      CRL2    -0.180000       12.0110           0
       244 MEMB     4        CHL1     H16A     HGA2     0.900000E-01   1.00800           0
       245 MEMB     4        CHL1     H16B     HGA2     0.900000E-01   1.00800           0
       246 MEMB     4        CHL1     C17      CRL1    -0.900000E-01   12.0110           0
       247 MEMB     4        CHL1     H17      HGA1     0.900000E-01   1.00800           0
       248 MEMB     4        CHL1     C13      CRL1      0.00000       12.0110           0
       249 MEMB     4        CHL1     C18      CTL3    -0.270000       12.0110           0
       250 MEMB     4        CHL1     H18A     HAL3     0.900000E-01   1.00800           0
       251 MEMB     4        CHL1     H18B     HAL3     0.900000E-01   1.00800           0
       252 MEMB     4        CHL1     H18C     HAL3     0.900000E-01   1.00800           0
       253 MEMB     4        CHL1     C12      CRL2    -0.180000       12.0110           0
       254 MEMB     4        CHL1     H12A     HGA2     0.900000E-01   1.00800           0
       255 MEMB     4        CHL1     H12B     HGA2     0.900000E-01   1.00800           0
       256 MEMB     4        CHL1     C11      CRL2    -0.180000       12.0110           0
       257 MEMB     4        CHL1     H11A     HGA2     0.900000E-01   1.00800           0
       258 MEMB     4        CHL1     H11B     HGA2     0.900000E-01   1.00800           0
       259 MEMB     4        CHL1     C9       CRL1    -0.900000E-01   12.0110           0
       260 MEMB     4        CHL1     H9       HGA1     0.900000E-01   1.00800           0
       261 MEMB     4        CHL1     C10      CRL1      0.00000       12.0110           0
       262 MEMB     4        CHL1     C19      CTL3    -0.270000       12.0110           0
       263 MEMB     4        CHL1     H19A     HAL3     0.900000E-01   1.00800           0
       264 MEMB     4        CHL1     H19B     HAL3     0.900000E-01   1.00800           0
       265 MEMB     4        CHL1     H19C     HAL3     0.900000E-01   1.00800           0
       266 MEMB     4        CHL1     C1       CRL2    -0.180000       12.0110           0
       267 MEMB     4        CHL1     H1A      HGA2     0.900000E-01   1.00800           0
       268 MEMB     4        CHL1     H1B      HGA2     0.900000E-01   1.00800           0
       269 MEMB     4        CHL1     C2       CRL2    -0.180000       12.0110           0
       270 MEMB     4        CHL1     H2A      HGA2     0.900000E-01   1.00800           0
       271 MEMB     4        CHL1     H2B      HGA2     0.900000E-01   1.00800           0
       272 MEMB     4        CHL1     C20      CTL1    -0.900000E-01   12.0110           0
       273 MEMB     4        CHL1     H20      HAL1     0.900000E-01   1.00800           0
       274 MEMB     4        CHL1     C21      CTL3    -0.270000       12.0110           0
       275 MEMB     4        CHL1     H21A     HAL3     0.900000E-01   1.00800           0
       276 MEMB     4        CHL1     H21B     HAL3     0.900000E-01   1.00800           0
       277 MEMB     4        CHL1     H21C     HAL3     0.900000E-01   1.00800           0
       278 MEMB     4        CHL1     C22      CTL2    -0.180000       12.0110           0
       279 MEMB     4        CHL1     H22A     HAL2     0.900000E-01   1.00800           0
       280 MEMB     4        CHL1     H22B     HAL2     0.900000E-01   1.00800           0
       281 MEMB     4        CHL1     C23      CTL2    -0.180000       12.0110           0
       282 MEMB     4        CHL1     H23A     HAL2     0.900000E-01   1.00800           0
       283 MEMB     4        CHL1     H23B     HAL2     0.900000E-01   1.00800           0
       284 MEMB     4        CHL1     C24      CTL2    -0.180000       12.0110           0
       285 MEMB     4        CHL1     H24A     HAL2     0.900000E-01   1.00800           0
       286 MEMB     4        CHL1     H24B     HAL2     0.900000E-01   1.00800           0
       287 MEMB     4        CHL1     C25      CTL1    -0.900000E-01   12.0110           0
       288 MEMB     4        CHL1     H25      HAL1     0.900000E-01   1.00800           0
       289 MEMB     4        CHL1     C26      CTL3    -0.270000       12.0110           0
       290 MEMB     4        CHL1     H26A     HAL3     0.900000E-01   1.00800           0
       291 MEMB     4        CHL1     H26B     HAL3     0.900000E-01   1.00800           0
       292 MEMB     4        CHL1     H26C     HAL3     0.900000E-01   1.00800           0
       293 MEMB     4        CHL1     C27      CTL3    -0.270000       12.0110           0
       294 MEMB     4        CHL1     H27A     HAL3     0.900000E-01   1.00800           0
       295 MEMB     4        CHL1     H27B     HAL3     0.900000E-01   1.00800           0
       296 MEMB     4        CHL1     H27C     HAL3     0.900000E-01   1.00800           0
       297 MEMB     5        CHL1     C3       CRL1     0.140000       12.0110           0
       298 MEMB     5        CHL1     H3       HGA1     0.900000E-01   1.00800           0
       299 MEMB     5        CHL1     O3       OHL     -0.660000       15.9994           0
       300 MEMB     5        CHL1     H3'      HOL      0.430000       1.00800           0
       301 MEMB     5        CHL1     C4       CRL2    -0.180000       12.0110           0
       302 MEMB     5        CHL1     H4A      HGA2     0.900000E-01   1.00800           0
       303 MEMB     5        CHL1     H4B      HGA2     0.900000E-01   1.00800           0
       304 MEMB     5        CHL1     C5       CEL1      0.00000       12.0110           0
       305 MEMB     5        CHL1     C6       CEL1    -0.150000       12.0110           0
       306 MEMB     5        CHL1     H6       HEL1     0.150000       1.00800           0
       307 MEMB     5        CHL1     C7       CRL2    -0.180000       12.0110           0
       308 MEMB     5        CHL1     H7A      HGA2     0.900000E-01   1.00800           0
       309 MEMB     5        CHL1     H7B      HGA2     0.900000E-01   1.00800           0
       310 MEMB     5        CHL1     C8       CRL1    -0.900000E-01   12.0110           0
       311 MEMB     5        CHL1     H8       HGA1     0.900000E-01   1.00800           0
       312 MEMB     5        CHL1     C14      CRL1    -0.900000E-01   12.0110           0
       313 MEMB     5        CHL1     H14      HGA1     0.900000E-01   1.00800           0
       314 MEMB     5        CHL1     C15      CRL2    -0.180000       12.0110           0
       315 MEMB     5        CHL1     H15A     HGA2     0.900000E-01   1.00800           0
       316 MEMB     5        CHL1     H15B     HGA2     0.900000E-01   1.00800           0
       317 MEMB     5        CHL1     C16      CRL2    -0.180000       12.0110           0
       318 MEMB     5        CHL1     H16A     HGA2     0.900000E-01   1.00800           0
       319 MEMB     5        CHL1     H16B     HGA2     0.900000E-01   1.00800           0
       320 MEMB     5        CHL1     C17      CRL1    -0.900000E-01   12.0110           0
       321 MEMB     5        CHL1     H17      HGA1     0.900000E-01   1.00800           0
       322 MEMB     5        CHL1     C13      CRL1      0.00000       12.0110           0
       323 MEMB     5        CHL1     C18      CTL3    -0.270000       12.0110           0
       324 MEMB     5        CHL1     H18A     HAL3     0.900000E-01   1.00800           0
       325 MEMB     5        CHL1     H18B     HAL3     0.900000E-01   1.00800           0
       326 MEMB     5        CHL1     H18C     HAL3     0.900000E-01   1.00800           0
       327 MEMB     5        CHL1     C12      CRL2    -0.180000       12.0110           0
       328 MEMB     5        CHL1     H12A     HGA2     0.900000E-01   1.00800           0
       329 MEMB     5        CHL1     H12B     HGA2     0.900000E-01   1.00800           0
       330 MEMB     5        CHL1     C11      CRL2    -0.180000       12.0110           0
       331 MEMB     5        CHL1     H11A     HGA2     0.900000E-01   1.00800           0
       332 MEMB     5        CHL1     H11B     HGA2     0.900000E-01   1.00800           0
       333 MEMB     5        CHL1     C9       CRL1    -0.900000E-01   12.0110           0
       334 MEMB     5        CHL1     H9       HGA1     0.900000E-01   1.00800           0
       335 MEMB     5        CHL1     C10      CRL1      0.00000       12.0110           0
       336 MEMB     5        CHL1     C19      CTL3    -0.270000       12.0110           0
       337 MEMB     5        CHL1     H19A     HAL3     0.900000E-01   1.00800           0
       338 MEMB     5        CHL1     H19B     HAL3     0.900000E-01   1.00800           0
       339 MEMB     5        CHL1     H19C     HAL3     0.900000E-01   1.00800           0
       340 MEMB     5        CHL1     C1       CRL2    -0.180000       12.0110           0
       341 MEMB     5        CHL1     H1A      HGA2     0.900000E-01   1.00800           0
       342 MEMB     5        CHL1     H1B      HGA2     0.900000E-01   1.00800           0
       343 MEMB     5        CHL1     C2       CRL2    -0.180000       12.0110           0
       344 MEMB     5        CHL1     H2A      HGA2     0.900000E-01   1.00800           0
       345 MEMB     5        CHL1     H2B      HGA2     0.900000E-01   1.00800           0
       346 MEMB     5        CHL1     C20      CTL1    -0.900000E-01   12.0110           0
       347 MEMB     5        CHL1     H20      HAL1     0.900000E-01   1.00800           0
       348 MEMB     5        CHL1     C21      CTL3    -0.270000       12.0110           0
       349 MEMB     5        CHL1     H21A     HAL3     0.900000E-01   1.00800           0
       350 MEMB     5        CHL1     H21B     HAL3     0.900000E-01   1.00800           0
       351 MEMB     5        CHL1     H21C     HAL3     0.900000E-01   1.00800           0
       352 MEMB     5        CHL1     C22      CTL2    -0.180000       12.0110           0
       353 MEMB     5        CHL1     H22A     HAL2     0.900000E-01   1.00800           0
       354 MEMB     5        CHL1     H22B     HAL2     0.900000E-01   1.00800           0
       355 MEMB     5        CHL1     C23      CTL2    -0.180000       12.0110           0
       356 MEMB     5        CHL1     H23A     HAL2     0.900000E-01   1.00800           0
       357 MEMB     5        CHL1     H23B     HAL2     0.900000E-01   1.00800           0
       358 MEMB     5        CHL1     C24      CTL2    -0.180000       12.0110           0
       359 MEMB     5        CHL1     H24A     HAL2     0.900000E-01   1.00800           0
       360 MEMB     5        CHL1     H24B     HAL2     0.900000E-01   1.00800           0
       361 MEMB     5        CHL1     C25      CTL1    -0.900000E-01   12.0110           0
       362 MEMB     5        CHL1     H25      HAL1     0.900000E-01   1.00800           0
       363 MEMB     5        CHL1     C26      CTL3    -0.270000       12.0110           0
       364 MEMB     5        CHL1     H26A     HAL3     0.900000E-01   1.00800           0
       365 MEMB     5        CHL1     H26B     HAL3     0.900000E-01   1.00800           0
       366 MEMB     5        CHL1     H26C     HAL3     0.900000E-01   1.00800           0
       367 MEMB     5        CHL1     C27      CTL3    -0.270000       12.0110           0
       368 MEMB     5        CHL1     H27A     HAL3     0.900000E-01   1.00800           0
       369 MEMB     5        CHL1     H27B     HAL3     0.900000E-01   1.00800           0
       370 MEMB     5        CHL1     H27C     HAL3     0.900000E-01   1.00800           0
       371 MEMB     6        CHL1     C3       CRL1     0.140000       12.0110           0
       372 MEMB     6        CHL1     H3       HGA1     0.900000E-01   1.00800           0
       373 MEMB     6        CHL1     O3       OHL     -0.660000       15.9994           0
       374 MEMB     6        CHL1     H3'      HOL      0.430000       1.00800           0
       375 MEMB     6        CHL1     C4       CRL2    -0.180000       12.0110           0
       376 MEMB     6        CHL1     H4A      HGA2     0.900000E-01   1.00800           0
       377 MEMB     6        CHL1     H4B      HGA2     0.900000E-01   1.00800           0
       378 MEMB     6        CHL1     C5       CEL1      0.00000       12.0110           0
       379 MEMB     6        CHL1     C6       CEL1    -0.150000       12.0110           0
       380 MEMB     6        CHL1     H6       HEL1     0.150000       1.00800           0
       381 MEMB     6        CHL1     C7       CRL2    -0.180000       12.0110           0
       382 MEMB     6        CHL1     H7A      HGA2     0.900000E-01   1.00800           0
       383 MEMB     6        CHL1     H7B      HGA2     0.900000E-01   1.00800           0
       384 MEMB     6        CHL1     C8       CRL1    -0.900000E-01   12.0110           0
       385 MEMB     6        CHL1     H8       HGA1     0.900000E-01   1.00800           0
       386 MEMB     6        CHL1     C14      CRL1    -0.900000E-01   12.0110           0
       387 MEMB     6        CHL1     H14      HGA1     0.900000E-01   1.00800           0
       388 MEMB     6        CHL1     C15      CRL2    -0.180000       12.0110           0
       389 MEMB     6        CHL1     H15A     HGA2     0.900000E-01   1.00800           0
       390 MEMB     6        CHL1     H15B     HGA2     0.900000E-01   1.00800           0
       391 MEMB     6        CHL1     C16      CRL2    -0.180000       12.0110           0
       392 MEMB     6        CHL1     H16A     HGA2     0.900000E-01   1.00800           0
       393 MEMB     6        CHL1     H16B     HGA2     0.900000E-01   1.00800           0
       394 MEMB     6        CHL1     C17      CRL1    -0.900000E-01   12.0110           0
       395 MEMB     6        CHL1     H17      HGA1     0.900000E-01   1.00800           0
       396 MEMB     6        CHL1     C13      CRL1      0.00000       12.0110           0
       397 MEMB     6        CHL1     C18      CTL3    -0.270000       12.0110           0
       398 MEMB     6        CHL1     H18A     HAL3     0.900000E-01   1.00800           0
       399 MEMB     6        CHL1     H18B     HAL3     0.900000E-01   1.00800           0
       400 MEMB     6        CHL1     H18C     HAL3     0.900000E-01   1.00800           0
       401 MEMB     6        CHL1     C12      CRL2    -0.180000       12.0110           0
       402 MEMB     6        CHL1     H12A     HGA2     0.900000E-01   1.00800           0
       403 MEMB     6        CHL1     H12B     HGA2     0.900000E-01   1.00800           0
       404 MEMB     6        CHL1     C11      CRL2    -0.180000       12.0110           0
       405 MEMB     6        CHL1     H11A     HGA2     0.900000E-01   1.00800           0
       406 MEMB     6        CHL1     H11B     HGA2     0.900000E-01   1.00800           0
       407 MEMB     6        CHL1     C9       CRL1    -0.900000E-01   12.0110           0
       408 MEMB     6        CHL1     H9       HGA1     0.900000E-01   1.00800           0
       409 MEMB     6        CHL1     C10      CRL1      0.00000       12.0110           0
       410 MEMB     6        CHL1     C19      CTL3    -0.270000       12.0110           0
       411 MEMB     6        CHL1     H19A     HAL3     0.900000E-01   1.00800           0
       412 MEMB     6        CHL1     H19B     HAL3     0.900000E-01   1.00800           0
       413 MEMB     6        CHL1     H19C     HAL3     0.900000E-01   1.00800           0
       414 MEMB     6        CHL1     C1       CRL2    -0.180000       12.0110           0
       415 MEMB     6        CHL1     H1A      HGA2     0.900000E-01   1.00800           0
       416 MEMB     6        CHL1     H1B      HGA2     0.900000E-01   1.00800           0
       417 MEMB     6        CHL1     C2       CRL2    -0.180000       12.0110           0
       418 MEMB     6        CHL1     H2A      HGA2     0.900000E-01   1.00800           0
       419 MEMB     6        CHL1     H2B      HGA2     0.900000E-01   1.00800           0
       420 MEMB     6        CHL1     C20      CTL1    -0.900000E-01   12.0110           0
       421 MEMB     6        CHL1     H20      HAL1     0.900000E-01   1.00800           0
       422 MEMB     6        CHL1     C21      CTL3    -0.270000       12.0110           0
       423 MEMB     6        CHL1     H21A     HAL3     0.900000E-01   1.00800           0
       424 MEMB     6        CHL1     H21B     HAL3     0.900000E-01   1.00800           0
       425 MEMB     6        CHL1     H21C     HAL3     0.900000E-01   1.00800           0
       426 MEMB     6        CHL1     C22      CTL2    -0.180000       12.0110           0
       427 MEMB     6        CHL1     H22A     HAL2     0.900000E-01   1.00800           0
       428 MEMB     6        CHL1     H22B     HAL2     0.900000E-01   1.00800           0
       429 MEMB     6        CHL1     C23      CTL2    -0.180000       12.0110           0
       430 MEMB     6        CHL1     H23A     HAL2     0.900000E-01   1.00800           0
       431 MEMB     6        CHL1     H23B     HAL2     0.900000E-01   1.00800           0
       432 MEMB     6        CHL1     C24      CTL2    -0.180000       12.0110           0
       433 MEMB     6        CHL1     H24A     HAL2     0.900000E-01   1.00800           0
       434 MEMB     6        CHL1     H24B     HAL2     0.900000E-01   1.00800           0
       435 MEMB     6        CHL1     C25      CTL1    -0.900000E-01   12.0110           0
       436 MEMB     6        CHL1     H25      HAL1     0.900000E-01   1.00800           0
       437 MEMB     6        CHL1     C26      CTL3    -0.270000       12.0110           0
       438 MEMB     6        CHL1     H26A     HAL3     0.900000E-01   1.00800           0
       439 MEMB     6        CHL1     H26B     HAL3     0.900000E-01   1.00800           0
       440 MEMB     6        CHL1     H26C     HAL3     0.900000E-01   1.00800           0
       441 MEMB     6        CHL1     C27      CTL3    -0.270000       12.0110           0
       442 MEMB     6        CHL1     H27A     HAL3     0.900000E-01   1.00800           0
       443 MEMB     6        CHL1     H27B     HAL3     0.900000E-01   1.00800           0
       444 MEMB     6        CHL1     H27C     HAL3     0.900000E-01   1.00800           0
       445 MEMB     7        CHL1     C3       CRL1     0.140000       12.0110           0
       446 MEMB     7        CHL1     H3       HGA1     0.900000E-01   1.00800           0
       447 MEMB     7        CHL1     O3       OHL     -0.660000       15.9994           0
       448 MEMB     7        CHL1     H3'      HOL      0.430000       1.00800           0
       449 MEMB     7        CHL1     C4       CRL2    -0.180000       12.0110           0
       450 MEMB     7        CHL1     H4A      HGA2     0.900000E-01   1.00800           0
       451 MEMB     7        CHL1     H4B      HGA2     0.900000E-01   1.00800           0
       452 MEMB     7        CHL1     C5       CEL1      0.00000       12.0110           0
       453 MEMB     7        CHL1     C6       CEL1    -0.150000       12.0110           0
       454 MEMB     7        CHL1     H6       HEL1     0.150000       1.00800           0
       455 MEMB     7        CHL1     C7       CRL2    -0.180000       12.0110           0
       456 MEMB     7        CHL1     H7A      HGA2     0.900000E-01   1.00800           0
       457 MEMB     7        CHL1     H7B      HGA2     0.900000E-01   1.00800           0
       458 MEMB     7        CHL1     C8       CRL1    -0.900000E-01   12.0110           0
       459 MEMB     7        CHL1     H8       HGA1     0.900000E-01   1.00800           0
       460 MEMB     7        CHL1     C14      CRL1    -0.900000E-01   12.0110           0
       461 MEMB     7        CHL1     H14      HGA1     0.900000E-01   1.00800           0
       462 MEMB     7        CHL1     C15      CRL2    -0.180000       12.0110           0
       463 MEMB     7        CHL1     H15A     HGA2     0.900000E-01   1.00800           0
       464 MEMB     7        CHL1     H15B     HGA2     0.900000E-01   1.00800           0
       465 MEMB     7        CHL1     C16      CRL2    -0.180000       12.0110           0
       466 MEMB     7        CHL1     H16A     HGA2     0.900000E-01   1.00800           0
       467 MEMB     7        CHL1     H16B     HGA2     0.900000E-01   1.00800           0
       468 MEMB     7        CHL1     C17      CRL1    -0.900000E-01   12.0110           0
       469 MEMB     7        CHL1     H17      HGA1     0.900000E-01   1.00800           0
       470 MEMB     7        CHL1     C13      CRL1      0.00000       12.0110           0
       471 MEMB     7        CHL1     C18      CTL3    -0.270000       12.0110           0
       472 MEMB     7        CHL1     H18A     HAL3     0.900000E-01   1.00800           0
       473 MEMB     7        CHL1     H18B     HAL3     0.900000E-01   1.00800           0
       474 MEMB     7        CHL1     H18C     HAL3     0.900000E-01   1.00800           0
       475 MEMB     7        CHL1     C12      CRL2    -0.180000       12.0110           0
       476 MEMB     7        CHL1     H12A     HGA2     0.900000E-01   1.00800           0
       477 MEMB     7        CHL1     H12B     HGA2     0.900000E-01   1.00800           0
       478 MEMB     7        CHL1     C11      CRL2    -0.180000       12.0110           0
       479 MEMB     7        CHL1     H11A     HGA2     0.900000E-01   1.00800           0
       480 MEMB     7        CHL1     H11B     HGA2     0.900000E-01   1.00800           0
       481 MEMB     7        CHL1     C9       CRL1    -0.900000E-01   12.0110           0
       482 MEMB     7        CHL1     H9       HGA1     0.900000E-01   1.00800           0
       483 MEMB     7        CHL1     C10      CRL1      0.00000       12.0110           0
       484 MEMB     7        CHL1     C19      CTL3    -0.270000       12.0110           0
       485 MEMB     7        CHL1     H19A     HAL3     0.900000E-01   1.00800           0
       486 MEMB     7        CHL1     H19B     HAL3     0.900000E-01   1.00800           0
       487 MEMB     7        CHL1     H19C     HAL3     0.900000E-01   1.00800           0
       488 MEMB     7        CHL1     C1       CRL2    -0.180000       12.0110           0
       489 MEMB     7        CHL1     H1A      HGA2     0.900000E-01   1.00800           0
       490 MEMB     7        CHL1     H1B      HGA2     0.900000E-01   1.00800           0
       491 MEMB     7        CHL1     C2       CRL2    -0.180000       12.0110           0
       492 MEMB     7        CHL1     H2A      HGA2     0.900000E-01   1.00800           0
       493 MEMB     7        CHL1     H2B      HGA2     0.900000E-01   1.00800           0
       494 MEMB     7        CHL1     C20      CTL1    -0.900000E-01   12.0110           0
       495 MEMB     7        CHL1     H20      HAL1     0.900000E-01   1.00800           0
       496 MEMB     7        CHL1     C21      CTL3    -0.270000       12.0110           0
       497 MEMB     7        CHL1     H21A     HAL3     0.900000E-01   1.00800           0
       498 MEMB     7        CHL1     H21B     HAL3     0.900000E-01   1.00800           0
       499 MEMB     7        CHL1     H21C     HAL3     0.900000E-01   1.00800           0
       500 MEMB     7        CHL1     C22      CTL2    -0.180000       12.0110           0
       501 MEMB     7        CHL1     H22A     HAL2     0.900000E-01   1.00800           0
       502 MEMB     7        CHL1     H22B     HAL2     0.900000E-01   1.00800           0
       503 MEMB     7        CHL1     C23      CTL2    -0.180000       12.0110           0
       504 MEMB     7        CHL1     H23A     HAL2     0.900000E-01   1.00800           0
       505 MEMB     7        CHL1     H23B     HAL2     0.900000E-01   1.00800           0
       506 MEMB     7        CHL1     C24      CTL2    -0.180000       12.0110           0
       507 MEMB     7        CHL1     H24A     HAL2     0.900000E-01   1.00800           0
       508 MEMB     7        CHL1     H24B     HAL2     0.900000E-01   1.00800           0
       509 MEMB     7        CHL1     C25      CTL1    -0.900000E-01   12.0110           0
       510 MEMB     7        CHL1     H25      HAL1     0.900000E-01   1.00800           0
       511 MEMB     7        CHL1     C26      CTL3    -0.270000       12.0110           0
       512 MEMB     7        CHL1     H26A     HAL3     0.900000E-01   1.00800           0
       513 MEMB     7        CHL1     H26B     HAL3     0.900000E-01   1.00800           0
       514 MEMB     7        CHL1     H26C     HAL3     0.900000E-01   1.00800           0
       515 MEMB     7        CHL1     C27      CTL3    -0.270000       12.0110           0
       516 MEMB     7        CHL1     H27A     HAL3     0.900000E-01   1.00800           0
       517 MEMB     7        CHL1     H27B     HAL3     0.900000E-01   1.00800           0
       518 MEMB     7        CHL1     H27C     HAL3     0.900000E-01   1.00800           0
       519 MEMB     8        CHL1     C3       CRL1     0.140000       12.0110           0
       520 MEMB     8        CHL1     H3       HGA1     0.900000E-01   1.00800           0
       521 MEMB     8        CHL1     O3       OHL     -0.660000       15.9994           0
       522 MEMB     8        CHL1     H3'      HOL      0.430000       1.00800           0
       523 MEMB     8        CHL1     C4       CRL2    -0.180000       12.0110           0
       524 MEMB     8        CHL1     H4A      HGA2     0.900000E-01   1.00800           0
       525 MEMB     8        CHL1     H4B      HGA2     0.900000E-01   1.00800           0
       526 MEMB     8        CHL1     C5       CEL1      0.00000       12.0110           0
       527 MEMB     8        CHL1     C6       CEL1    -0.150000       12.0110           0
       528 MEMB     8        CHL1     H6       HEL1     0.150000       1.00800           0
       529 MEMB     8        CHL1     C7       CRL2    -0.180000       12.0110           0
       530 MEMB     8        CHL1     H7A      HGA2     0.900000E-01   1.00800           0
       531 MEMB     8        CHL1     H7B      HGA2     0.900000E-01   1.00800           0
       532 MEMB     8        CHL1     C8       CRL1    -0.900000E-01   12.0110           0
       533 MEMB     8        CHL1     H8       HGA1     0.900000E-01   1.00800           0
       534 MEMB     8        CHL1     C14      CRL1    -0.900000E-01   12.0110           0
       535 MEMB     8        CHL1     H14      HGA1     0.900000E-01   1.00800           0
       536 MEMB     8        CHL1     C15      CRL2    -0.180000       12.0110           0
       537 MEMB     8        CHL1     H15A     HGA2     0.900000E-01   1.00800           0
       538 MEMB     8        CHL1     H15B     HGA2     0.900000E-01   1.00800           0
       539 MEMB     8        CHL1     C16      CRL2    -0.180000       12.0110           0
       540 MEMB     8        CHL1     H16A     HGA2     0.900000E-01   1.00800           0
       541 MEMB     8        CHL1     H16B     HGA2     0.900000E-01   1.00800           0
       542 MEMB     8        CHL1     C17      CRL1    -0.900000E-01   12.0110           0
       543 MEMB     8        CHL1     H17      HGA1     0.900000E-01   1.00800           0
       544 MEMB     8        CHL1     C13      CRL1      0.00000       12.0110           0
       545 MEMB     8        CHL1     C18      CTL3    -0.270000       12.0110           0
       546 MEMB     8        CHL1     H18A     HAL3     0.900000E-01   1.00800           0
       547 MEMB     8        CHL1     H18B     HAL3     0.900000E-01   1.00800           0
       548 MEMB     8        CHL1     H18C     HAL3     0.900000E-01   1.00800           0
       549 MEMB     8        CHL1     C12      CRL2    -0.180000       12.0110           0
       550 MEMB     8        CHL1     H12A     HGA2     0.900000E-01   1.00800           0
       551 MEMB     8        CHL1     H12B     HGA2     0.900000E-01   1.00800           0
       552 MEMB     8        CHL1     C11      CRL2    -0.180000       12.0110           0
       553 MEMB     8        CHL1     H11A     HGA2     0.900000E-01   1.00800           0
       554 MEMB     8        CHL1     H11B     HGA2     0.900000E-01   1.00800           0
       555 MEMB     8        CHL1     C9       CRL1    -0.900000E-01   12.0110           0
       556 MEMB     8        CHL1     H9       HGA1     0.900000E-01   1.00800           0
       557 MEMB     8        CHL1     C10      CRL1      0.00000       12.0110           0
       558 MEMB     8        CHL1     C19      CTL3    -0.270000       12.0110           0
       559 MEMB     8        CHL1     H19A     HAL3     0.900000E-01   1.00800           0
       560 MEMB     8        CHL1     H19B     HAL3     0.900000E-01   1.00800           0
       561 MEMB     8        CHL1     H19C     HAL3     0.900000E-01   1.00800           0
       562 MEMB     8        CHL1     C1       CRL2    -0.180000       12.0110           0
       563 MEMB     8        CHL1     H1A      HGA2     0.900000E-01   1.00800           0
       564 MEMB     8        CHL1     H1B      HGA2     0.900000E-01   1.00800           0
       565 MEMB     8        CHL1     C2       CRL2    -0.180000       12.0110           0
       566 MEMB     8        CHL1     H2A      HGA2     0.900000E-01   1.00800           0
       567 MEMB     8        CHL1     H2B      HGA2     0.900000E-01   1.00800           0
       568 MEMB     8        CHL1     C20      CTL1    -0.900000E-01   12.0110           0
       569 MEMB     8        CHL1     H20      HAL1     0.900000E-01   1.00800           0
       570 MEMB     8        CHL1     C21      CTL3    -0.270000       12.0110           0
       571 MEMB     8        CHL1     H21A     HAL3     0.900000E-01   1.00800           0
       572 MEMB     8        CHL1     H21B     HAL3     0.900000E-01   1.00800           0
       573 MEMB     8        CHL1     H21C     HAL3     0.900000E-01   1.00800           0
       574 MEMB     8        CHL1     C22      CTL2    -0.180000       12.0110           0
       575 MEMB     8        CHL1     H22A     HAL2     0.900000E-01   1.00800           0
       576 MEMB     8        CHL1     H22B     HAL2     0.900000E-01   1.00800           0
       577 MEMB     8        CHL1     C23      CTL2    -0.180000       12.0110           0
       578 MEMB     8        CHL1     H23A     HAL2     0.900000E-01   1.00800           0
       579 MEMB     8        CHL1     H23B     HAL2     0.900000E-01   1.00800           0
       580 MEMB     8        CHL1     C24      CTL2    -0.180000       12.0110           0
       581 MEMB     8        CHL1     H24A     HAL2     0.900000E-01   1.00800           0
       582 MEMB     8        CHL1     H24B     HAL2     0.900000E-01   1.00800           0
       583 MEMB     8        CHL1     C25      CTL1    -0.900000E-01   12.0110           0
       584 MEMB     8        CHL1     H25      HAL1     0.900000E-01   1.00800           0
       585 MEMB     8        CHL1     C26      CTL3    -0.270000       12.0110           0
       586 MEMB     8        CHL1     H26A     HAL3     0.900000E-01   1.00800           0
       587 MEMB     8        CHL1     H26B     HAL3     0.900000E-01   1.00800           0
       588 MEMB     8        CHL1     H26C     HAL3     0.900000E-01   1.00800           0
       589 MEMB     8        CHL1     C27      CTL3    -0.270000       12.0110           0
       590 MEMB     8        CHL1     H27A     HAL3     0.900000E-01   1.00800           0
       591 MEMB     8        CHL1     H27B     HAL3     0.900000E-01   1.00800           0
       592 MEMB     8        CHL1     H27C     HAL3     0.900000E-01   1.00800           0
       593 MEMB     9        CHL1     C3       CRL1     0.140000       12.0110           0
       594 MEMB     9        CHL1     H3       HGA1     0.900000E-01   1.00800           0
       595 MEMB     9        CHL1     O3       OHL     -0.660000       15.9994           0
       596 MEMB     9        CHL1     H3'      HOL      0.430000       1.00800           0
       597 MEMB     9        CHL1     C4       CRL2    -0.180000       12.0110           0
       598 MEMB     9        CHL1     H4A      HGA2     0.900000E-01   1.00800           0
       599 MEMB     9        CHL1     H4B      HGA2     0.900000E-01   1.00800           0
       600 MEMB     9        CHL1     C5       CEL1      0.00000       12.0110           0
       601 MEMB     9        CHL1     C6       CEL1    -0.150000       12.0110           0
       602 MEMB     9        CHL1     H6       HEL1     0.150000       1.00800           0
       603 MEMB     9        CHL1     C7       CRL2    -0.180000       12.0110           0
       604 MEMB     9        CHL1     H7A      HGA2     0.900000E-01   1.00800           0
       605 MEMB     9        CHL1     H7B      HGA2     0.900000E-01   1.00800           0
       606 MEMB     9        CHL1     C8       CRL1    -0.900000E-01   12.0110           0
       607 MEMB     9        CHL1     H8       HGA1     0.900000E-01   1.00800           0
       608 MEMB     9        CHL1     C14      CRL1    -0.900000E-01   12.0110           0
       609 MEMB     9        CHL1     H14      HGA1     0.900000E-01   1.00800           0
       610 MEMB     9        CHL1     C15      CRL2    -0.180000       12.0110           0
       611 MEMB     9        CHL1     H15A     HGA2     0.900000E-01   1.00800           0
       612 MEMB     9        CHL1     H15B     HGA2     0.900000E-01   1.00800           0
       613 MEMB     9        CHL1     C16      CRL2    -0.180000       12.0110           0
       614 MEMB     9        CHL1     H16A     HGA2     0.900000E-01   1.00800           0
       615 MEMB     9        CHL1     H16B     HGA2     0.900000E-01   1.00800           0
       616 MEMB     9        CHL1     C17      CRL1    -0.900000E-01   12.0110           0
       617 MEMB     9        CHL1     H17      HGA1     0.900000E-01   1.00800           0
       618 MEMB     9        CHL1     C13      CRL1      0.00000       12.0110           0
       619 MEMB     9        CHL1     C18      CTL3    -0.270000       12.0110           0
       620 MEMB     9        CHL1     H18A     HAL3     0.900000E-01   1.00800           0
       621 MEMB     9        CHL1     H18B     HAL3     0.900000E-01   1.00800           0
       622 MEMB     9        CHL1     H18C     HAL3     0.900000E-01   1.00800           0
       623 MEMB     9        CHL1     C12      CRL2    -0.180000       12.0110           0
       624 MEMB     9        CHL1     H12A     HGA2     0.900000E-01   1.00800           0
       625 MEMB     9        CHL1     H12B     HGA2     0.900000E-01   1.00800           0
       626 MEMB     9        CHL1     C11      CRL2    -0.180000       12.0110           0
       627 MEMB     9        CHL1     H11A     HGA2     0.900000E-01   1.00800           0
       628 MEMB     9        CHL1     H11B     HGA2     0.900000E-01   1.00800           0
       629 MEMB     9        CHL1     C9       CRL1    -0.900000E-01   12.0110           0
       630 MEMB     9        CHL1     H9       HGA1     0.900000E-01   1.00800           0
       631 MEMB     9        CHL1     C10      CRL1      0.00000       12.0110           0
       632 MEMB     9        CHL1     C19      CTL3    -0.270000       12.0110           0
       633 MEMB     9        CHL1     H19A     HAL3     0.900000E-01   1.00800           0
       634 MEMB     9        CHL1     H19B     HAL3     0.900000E-01   1.00800           0
       635 MEMB     9        CHL1     H19C     HAL3     0.900000E-01   1.00800           0
       636 MEMB     9        CHL1     C1       CRL2    -0.180000       12.0110           0
       637 MEMB     9        CHL1     H1A      HGA2     0.900000E-01   1.00800           0
       638 MEMB     9        CHL1     H1B      HGA2     0.900000E-01   1.00800           0
       639 MEMB     9        CHL1     C2       CRL2    -0.180000       12.0110           0
       640 MEMB     9        CHL1     H2A      HGA2     0.900000E-01   1.00800           0
       641 MEMB     9        CHL1     H2B      HGA2     0.900000E-01   1.00800           0
       642 MEMB     9        CHL1     C20      CTL1    -0.900000E-01   12.0110           0
       643 MEMB     9        CHL1     H20      HAL1     0.900000E-01   1.00800           0
       644 MEMB     9        CHL1     C21      CTL3    -0.270000       12.0110           0
       645 MEMB     9        CHL1     H21A     HAL3     0.900000E-01   1.00800           0
       646 MEMB     9        CHL1     H21B     HAL3     0.900000E-01   1.00800           0
       647 MEMB     9        CHL1     H21C     HAL3     0.900000E-01   1.00800           0
       648 MEMB     9        CHL1     C22      CTL2    -0.180000       12.0110           0
       649 MEMB     9        CHL1     H22A     HAL2     0.900000E-01   1.00800           0
       650 MEMB     9        CHL1     H22B     HAL2     0.900000E-01   1.00800           0
       651 MEMB     9        CHL1     C23      CTL2    -0.180000       12.0110           0
       652 MEMB     9        CHL1     H23A     HAL2     0.900000E-01   1.00800           0
       653 MEMB     9        CHL1     H23B     HAL2     0.900000E-01   1.00800           0
       654 MEMB     9        CHL1     C24      CTL2    -0.180000       12.0110           0
       655 MEMB     9        CHL1     H24A     HAL2     0.900000E-01   1.00800           0
       656 MEMB     9        CHL1     H24B     HAL2     0.900000E-01   1.00800           0
       657 MEMB     9        CHL1     C25      CTL1    -0.900000E-01   12.0110           0
       658 MEMB     9        CHL1     H25      HAL1     0.900000E-01   1.00800           0
       659 MEMB     9        CHL1     C26      CTL3    -0.270000       12.0110           0
       660 MEMB     9        CHL1     H26A     HAL3     0.900000E-01   1.00800           0
       661 MEMB     9        CHL1     H26B     HAL3     0.900000E-01   1.00800           0
       662 MEMB     9        CHL1     H26C     HAL3     0.900000E-01   1.00800           0
       663 MEMB     9        CHL1     C27      CTL3    -0.270000       12.0110           0
       664 MEMB     9        CHL1     H27A     HAL3     0.900000E-01   1.00800           0
       665 MEMB     9        CHL1     H27B     HAL3     0.900000E-01   1.00800           0
       666 MEMB     9        CHL1     H27C     HAL3     0.900000E-01   1.00800           0
       667 MEMB     10       CHL1     C3       CRL1     0.140000       12.0110           0
       668 MEMB     10       CHL1     H3       HGA1     0.900000E-01   1.00800           0
       669 MEMB     10       CHL1     O3       OHL     -0.660000       15.9994           0
       670 MEMB     10       CHL1     H3'      HOL      0.430000       1.00800           0
       671 MEMB     10       CHL1     C4       CRL2    -0.180000       12.0110           0
       672 MEMB     10       CHL1     H4A      HGA2     0.900000E-01   1.00800           0
       673 MEMB     10       CHL1     H4B      HGA2     0.900000E-01   1.00800           0
       674 MEMB     10       CHL1     C5       CEL1      0.00000       12.0110           0
       675 MEMB     10       CHL1     C6       CEL1    -0.150000       12.0110           0
       676 MEMB     10       CHL1     H6       HEL1     0.150000       1.00800           0
       677 MEMB     10       CHL1     C7       CRL2    -0.180000       12.0110           0
       678 MEMB     10       CHL1     H7A      HGA2     0.900000E-01   1.00800           0
       679 MEMB     10       CHL1     H7B      HGA2     0.900000E-01   1.00800           0
       680 MEMB     10       CHL1     C8       CRL1    -0.900000E-01   12.0110           0
       681 MEMB     10       CHL1     H8       HGA1     0.900000E-01   1.00800           0
       682 MEMB     10       CHL1     C14      CRL1    -0.900000E-01   12.0110           0
       683 MEMB     10       CHL1     H14      HGA1     0.900000E-01   1.00800           0
       684 MEMB     10       CHL1     C15      CRL2    -0.180000       12.0110           0
       685 MEMB     10       CHL1     H15A     HGA2     0.900000E-01   1.00800           0
       686 MEMB     10       CHL1     H15B     HGA2     0.900000E-01   1.00800           0
       687 MEMB     10       CHL1     C16      CRL2    -0.180000       12.0110           0
       688 MEMB     10       CHL1     H16A     HGA2     0.900000E-01   1.00800           0
       689 MEMB     10       CHL1     H16B     HGA2     0.900000E-01   1.00800           0
       690 MEMB     10       CHL1     C17      CRL1    -0.900000E-01   12.0110           0
       691 MEMB     10       CHL1     H17      HGA1     0.900000E-01   1.00800           0
       692 MEMB     10       CHL1     C13      CRL1      0.00000       12.0110           0
       693 MEMB     10       CHL1     C18      CTL3    -0.270000       12.0110           0
       694 MEMB     10       CHL1     H18A     HAL3     0.900000E-01   1.00800           0
       695 MEMB     10       CHL1     H18B     HAL3     0.900000E-01   1.00800           0
       696 MEMB     10       CHL1     H18C     HAL3     0.900000E-01   1.00800           0
       697 MEMB     10       CHL1     C12      CRL2    -0.180000       12.0110           0
       698 MEMB     10       CHL1     H12A     HGA2     0.900000E-01   1.00800           0
       699 MEMB     10       CHL1     H12B     HGA2     0.900000E-01   1.00800           0
       700 MEMB     10       CHL1     C11      CRL2    -0.180000       12.0110           0
       701 MEMB     10       CHL1     H11A     HGA2     0.900000E-01   1.00800           0
       702 MEMB     10       CHL1     H11B     HGA2     0.900000E-01   1.00800           0
       703 MEMB     10       CHL1     C9       CRL1    -0.900000E-01   12.0110           0
       704 MEMB     10       CHL1     H9       HGA1     0.900000E-01   1.00800           0
       705 MEMB     10       CHL1     C10      CRL1      0.00000       12.0110           0
       706 MEMB     10       CHL1     C19      CTL3    -0.270000       12.0110           0
       707 MEMB     10       CHL1     H19A     HAL3     0.900000E-01   1.00800           0
       708 MEMB     10       CHL1     H19B     HAL3     0.900000E-01   1.00800           0
       709 MEMB     10       CHL1     H19C     HAL3     0.900000E-01   1.00800           0
       710 MEMB     10       CHL1     C1       CRL2    -0.180000       12.0110           0
       711 MEMB     10       CHL1     H1A      HGA2     0.900000E-01   1.00800           0
       712 MEMB     10       CHL1     H1B      HGA2     0.900000E-01   1.00800           0
       713 MEMB     10       CHL1     C2       CRL2    -0.180000       12.0110           0
       714 MEMB     10       CHL1     H2A      HGA2     0.900000E-01   1.00800           0
       715 MEMB     10       CHL1     H2B      HGA2     0.900000E-01   1.00800           0
       716 MEMB     10       CHL1     C20      CTL1    -0.900000E-01   12.0110           0
       717 MEMB     10       CHL1     H20      HAL1     0.900000E-01   1.00800           0
       718 MEMB     10       CHL1     C21      CTL3    -0.270000       12.0110           0
       719 MEMB     10       CHL1     H21A     HAL3     0.900000E-01   1.00800           0
       720 MEMB     10       CHL1     H21B     HAL3     0.900000E-01   1.00800           0
       721 MEMB     10       CHL1     H21C     HAL3     0.900000E-01   1.00800           0
       722 MEMB     10       CHL1     C22      CTL2    -0.180000       12.0110           0
       723 MEMB     10       CHL1     H22A     HAL2     0.900000E-01   1.00800           0
       724 MEMB     10       CHL1     H22B     HAL2     0.900000E-01   1.00800           0
       725 MEMB     10       CHL1     C23      CTL2    -0.180000       12.0110           0
       726 MEMB     10       CHL1     H23A     HAL2     0.900000E-01   1.00800           0
       727 MEMB     10       CHL1     H23B     HAL2     0.900000E-01   1.00800           0
       728 MEMB     10       CHL1     C24      CTL2    -0.180000       12.0110           0
       729 MEMB     10       CHL1     H24A     HAL2     0.900000E-01   1.00800           0
       730 MEMB     10       CHL1     H24B     HAL2     0.900000E-01   1.00800           0
       731 MEMB     10       CHL1     C25      CTL1    -0.900000E-01   12.0110           0
       732 MEMB     10       CHL1     H25      HAL1     0.900000E-01   1.00800           0
       733 MEMB     10       CHL1     C26      CTL3    -0.270000       12.0110           0
       734 MEMB     10       CHL1     H26A     HAL3     0.900000E-01   1.00800           0
       735 MEMB     10       CHL1     H26B     HAL3     0.900000E-01   1.00800           0
       736 MEMB     10       CHL1     H26C     HAL3     0.900000E-01   1.00800           0
       737 MEMB     10       CHL1     C27      CTL3    -0.270000       12.0110           0
       738 MEMB     10       CHL1     H27A     HAL3     0.900000E-01   1.00800           0
       739 MEMB     10       CHL1     H27B     HAL3     0.900000E-01   1.00800           0
       740 MEMB     10       CHL1     H27C     HAL3     0.900000E-01   1.00800           0
       741 MEMB     11       CHL1     C3       CRL1     0.140000       12.0110           0
       742 MEMB     11       CHL1     H3       HGA1     0.900000E-01   1.00800           0
       743 MEMB     11       CHL1     O3       OHL     -0.660000       15.9994           0
       744 MEMB     11       CHL1     H3'      HOL      0.430000       1.00800           0
       745 MEMB     11       CHL1     C4       CRL2    -0.180000       12.0110           0
       746 MEMB     11       CHL1     H4A      HGA2     0.900000E-01   1.00800           0
       747 MEMB     11       CHL1     H4B      HGA2     0.900000E-01   1.00800           0
       748 MEMB     11       CHL1     C5       CEL1      0.00000       12.0110           0
       749 MEMB     11       CHL1     C6       CEL1    -0.150000       12.0110           0
       750 MEMB     11       CHL1     H6       HEL1     0.150000       1.00800           0
       751 MEMB     11       CHL1     C7       CRL2    -0.180000       12.0110           0
       752 MEMB     11       CHL1     H7A      HGA2     0.900000E-01   1.00800           0
       753 MEMB     11       CHL1     H7B      HGA2     0.900000E-01   1.00800           0
       754 MEMB     11       CHL1     C8       CRL1    -0.900000E-01   12.0110           0
       755 MEMB     11       CHL1     H8       HGA1     0.900000E-01   1.00800           0
       756 MEMB     11       CHL1     C14      CRL1    -0.900000E-01   12.0110           0
       757 MEMB     11       CHL1     H14      HGA1     0.900000E-01   1.00800           0
       758 MEMB     11       CHL1     C15      CRL2    -0.180000       12.0110           0
       759 MEMB     11       CHL1     H15A     HGA2     0.900000E-01   1.00800           0
       760 MEMB     11       CHL1     H15B     HGA2     0.900000E-01   1.00800           0
       761 MEMB     11       CHL1     C16      CRL2    -0.180000       12.0110           0
       762 MEMB     11       CHL1     H16A     HGA2     0.900000E-01   1.00800           0
       763 MEMB     11       CHL1     H16B     HGA2     0.900000E-01   1.00800           0
       764 MEMB     11       CHL1     C17      CRL1    -0.900000E-01   12.0110           0
       765 MEMB     11       CHL1     H17      HGA1     0.900000E-01   1.00800           0
       766 MEMB     11       CHL1     C13      CRL1      0.00000       12.0110           0
       767 MEMB     11       CHL1     C18      CTL3    -0.270000       12.0110           0
       768 MEMB     11       CHL1     H18A     HAL3     0.900000E-01   1.00800           0
       769 MEMB     11       CHL1     H18B     HAL3     0.900000E-01   1.00800           0
       770 MEMB     11       CHL1     H18C     HAL3     0.900000E-01   1.00800           0
       771 MEMB     11       CHL1     C12      CRL2    -0.180000       12.0110           0
       772 MEMB     11       CHL1     H12A     HGA2     0.900000E-01   1.00800           0
       773 MEMB     11       CHL1     H12B     HGA2     0.900000E-01   1.00800           0
       774 MEMB     11       CHL1     C11      CRL2    -0.180000       12.0110           0
       775 MEMB     11       CHL1     H11A     HGA2     0.900000E-01   1.00800           0
       776 MEMB     11       CHL1     H11B     HGA2     0.900000E-01   1.00800           0
       777 MEMB     11       CHL1     C9       CRL1    -0.900000E-01   12.0110           0
       778 MEMB     11       CHL1     H9       HGA1     0.900000E-01   1.00800           0
       779 MEMB     11       CHL1     C10      CRL1      0.00000       12.0110           0
       780 MEMB     11       CHL1     C19      CTL3    -0.270000       12.0110           0
       781 MEMB     11       CHL1     H19A     HAL3     0.900000E-01   1.00800           0
       782 MEMB     11       CHL1     H19B     HAL3     0.900000E-01   1.00800           0
       783 MEMB     11       CHL1     H19C     HAL3     0.900000E-01   1.00800           0
       784 MEMB     11       CHL1     C1       CRL2    -0.180000       12.0110           0
       785 MEMB     11       CHL1     H1A      HGA2     0.900000E-01   1.00800           0
       786 MEMB     11       CHL1     H1B      HGA2     0.900000E-01   1.00800           0
       787 MEMB     11       CHL1     C2       CRL2    -0.180000       12.0110           0
       788 MEMB     11       CHL1     H2A      HGA2     0.900000E-01   1.00800           0
       789 MEMB     11       CHL1     H2B      HGA2     0.900000E-01   1.00800           0
       790 MEMB     11       CHL1     C20      CTL1    -0.900000E-01   12.0110           0
       791 MEMB     11       CHL1     H20      HAL1     0.900000E-01   1.00800           0
       792 MEMB     11       CHL1     C21      CTL3    -0.270000       12.0110           0
       793 MEMB     11       CHL1     H21A     HAL3     0.900000E-01   1.00800           0
       794 MEMB     11       CHL1     H21B     HAL3     0.900000E-01   1.00800           0
       795 MEMB     11       CHL1     H21C     HAL3     0.900000E-01   1.00800           0
       796 MEMB     11       CHL1     C22      CTL2    -0.180000       12.0110           0
       797 MEMB     11       CHL1     H22A     HAL2     0.900000E-01   1.00800           0
       798 MEMB     11       CHL1     H22B     HAL2     0.900000E-01   1.00800           0
       799 MEMB     11       CHL1     C23      CTL2    -0.180000       12.0110           0
       800 MEMB     11       CHL1     H23A     HAL2     0.900000E-01   1.00800           0
       801 MEMB     11       CHL1     H23B     HAL2     0.900000E-01   1.00800           0
       802 MEMB     11       CHL1     C24      CTL2    -0.180000       12.0110           0
       803 MEMB     11       CHL1     H24A     HAL2     0.900000E-01   1.00800           0
       804 MEMB     11       CHL1     H24B     HAL2     0.900000E-01   1.00800           0
       805 MEMB     11       CHL1     C25      CTL1    -0.900000E-01   12.0110           0
       806 MEMB     11       CHL1     H25      HAL1     0.900000E-01   1.00800           0
       807 MEMB     11       CHL1     C26      CTL3    -0.270000       12.0110           0
       808 MEMB     11       CHL1     H26A     HAL3     0.900000E-01   1.00800           0
       809 MEMB     11       CHL1     H26B     HAL3     0.900000E-01   1.00800           0
       810 MEMB     11       CHL1     H26C     HAL3     0.900000E-01   1.00800           0
       811 MEMB     11       CHL1     C27      CTL3    -0.270000       12.0110           0
       812 MEMB     11       CHL1     H27A     HAL3     0.900000E-01   1.00800           0
       813 MEMB     11       CHL1     H27B     HAL3     0.900000E-01   1.00800           0
       814 MEMB     11       CHL1     H27C     HAL3     0.900000E-01   1.00800           0
       815 MEMB     12       CHL1     C3       CRL1     0.140000       12.0110           0
       816 MEMB     12       CHL1     H3       HGA1     0.900000E-01   1.00800           0
       817 MEMB     12       CHL1     O3       OHL     -0.660000       15.9994           0
       818 MEMB     12       CHL1     H3'      HOL      0.430000       1.00800           0
       819 MEMB     12       CHL1     C4       CRL2    -0.180000       12.0110           0
       820 MEMB     12       CHL1     H4A      HGA2     0.900000E-01   1.00800           0
       821 MEMB     12       CHL1     H4B      HGA2     0.900000E-01   1.00800           0
       822 MEMB     12       CHL1     C5       CEL1      0.00000       12.0110           0
       823 MEMB     12       CHL1     C6       CEL1    -0.150000       12.0110           0
       824 MEMB     12       CHL1     H6       HEL1     0.150000       1.00800           0
       825 MEMB     12       CHL1     C7       CRL2    -0.180000       12.0110           0
       826 MEMB     12       CHL1     H7A      HGA2     0.900000E-01   1.00800           0
       827 MEMB     12       CHL1     H7B      HGA2     0.900000E-01   1.00800           0
       828 MEMB     12       CHL1     C8       CRL1    -0.900000E-01   12.0110           0
       829 MEMB     12       CHL1     H8       HGA1     0.900000E-01   1.00800           0
       830 MEMB     12       CHL1     C14      CRL1    -0.900000E-01   12.0110           0
       831 MEMB     12       CHL1     H14      HGA1     0.900000E-01   1.00800           0
       832 MEMB     12       CHL1     C15      CRL2    -0.180000       12.0110           0
       833 MEMB     12       CHL1     H15A     HGA2     0.900000E-01   1.00800           0
       834 MEMB     12       CHL1     H15B     HGA2     0.900000E-01   1.00800           0
       835 MEMB     12       CHL1     C16      CRL2    -0.180000       12.0110           0
       836 MEMB     12       CHL1     H16A     HGA2     0.900000E-01   1.00800           0
       837 MEMB     12       CHL1     H16B     HGA2     0.900000E-01   1.00800           0
       838 MEMB     12       CHL1     C17      CRL1    -0.900000E-01   12.0110           0
       839 MEMB     12       CHL1     H17      HGA1     0.900000E-01   1.00800           0
       840 MEMB     12       CHL1     C13      CRL1      0.00000       12.0110           0
       841 MEMB     12       CHL1     C18      CTL3    -0.270000       12.0110           0
       842 MEMB     12       CHL1     H18A     HAL3     0.900000E-01   1.00800           0
       843 MEMB     12       CHL1     H18B     HAL3     0.900000E-01   1.00800           0
       844 MEMB     12       CHL1     H18C     HAL3     0.900000E-01   1.00800           0
       845 MEMB     12       CHL1     C12      CRL2    -0.180000       12.0110           0
       846 MEMB     12       CHL1     H12A     HGA2     0.900000E-01   1.00800           0
       847 MEMB     12       CHL1     H12B     HGA2     0.900000E-01   1.00800           0
       848 MEMB     12       CHL1     C11      CRL2    -0.180000       12.0110           0
       849 MEMB     12       CHL1     H11A     HGA2     0.900000E-01   1.00800           0
       850 MEMB     12       CHL1     H11B     HGA2     0.900000E-01   1.00800           0
       851 MEMB     12       CHL1     C9       CRL1    -0.900000E-01   12.0110           0
       852 MEMB     12       CHL1     H9       HGA1     0.900000E-01   1.00800           0
       853 MEMB     12       CHL1     C10      CRL1      0.00000       12.0110           0
       854 MEMB     12       CHL1     C19      CTL3    -0.270000       12.0110           0
       855 MEMB     12       CHL1     H19A     HAL3     0.900000E-01   1.00800           0
       856 MEMB     12       CHL1     H19B     HAL3     0.900000E-01   1.00800           0
       857 MEMB     12       CHL1     H19C     HAL3     0.900000E-01   1.00800           0
       858 MEMB     12       CHL1     C1       CRL2    -0.180000       12.0110           0
       859 MEMB     12       CHL1     H1A      HGA2     0.900000E-01   1.00800           0
       860 MEMB     12       CHL1     H1B      HGA2     0.900000E-01   1.00800           0
       861 MEMB     12       CHL1     C2       CRL2    -0.180000       12.0110           0
       862 MEMB     12       CHL1     H2A      HGA2     0.900000E-01   1.00800           0
       863 MEMB     12       CHL1     H2B      HGA2     0.900000E-01   1.00800           0
       864 MEMB     12       CHL1     C20      CTL1    -0.900000E-01   12.0110           0
       865 MEMB     12       CHL1     H20      HAL1     0.900000E-01   1.00800           0
       866 MEMB     12       CHL1     C21      CTL3    -0.270000       12.0110           0
       867 MEMB     12       CHL1     H21A     HAL3     0.900000E-01   1.00800           0
       868 MEMB     12       CHL1     H21B     HAL3     0.900000E-01   1.00800           0
       869 MEMB     12       CHL1     H21C     HAL3     0.900000E-01   1.00800           0
       870 MEMB     12       CHL1     C22      CTL2    -0.180000       12.0110           0
       871 MEMB     12       CHL1     H22A     HAL2     0.900000E-01   1.00800           0
       872 MEMB     12       CHL1     H22B     HAL2     0.900000E-01   1.00800           0
       873 MEMB     12       CHL1     C23      CTL2    -0.180000       12.0110           0
       874 MEMB     12       CHL1     H23A     HAL2     0.900000E-01   1.00800           0
       875 MEMB     12       CHL1     H23B     HAL2     0.900000E-01   1.00800           0
       876 MEMB     12       CHL1     C24      CTL2    -0.180000       12.0110           0
       877 MEMB     12       CHL1     H24A     HAL2     0.900000E-01   1.00800           0
       878 MEMB     12       CHL1     H24B     HAL2     0.900000E-01   1.00800           0
       879 MEMB     12       CHL1     C25      CTL1    -0.900000E-01   12.0110           0
       880 MEMB     12       CHL1     H25      HAL1     0.900000E-01   1.00800           0
       881 MEMB     12       CHL1     C26      CTL3    -0.270000       12.0110           0
       882 MEMB     12       CHL1     H26A     HAL3     0.900000E-01   1.00800           0
       883 MEMB     12       CHL1     H26B     HAL3     0.900000E-01   1.00800           0
       884 MEMB     12       CHL1     H26C     HAL3     0.900000E-01   1.00800           0
       885 MEMB     12       CHL1     C27      CTL3    -0.270000       12.0110           0
       886 MEMB     12       CHL1     H27A     HAL3     0.900000E-01   1.00800           0
       887 MEMB     12       CHL1     H27B     HAL3     0.900000E-01   1.00800           0
       888 MEMB     12       CHL1     H27C     HAL3     0.900000E-01   1.00800           0
       889 MEMB     13       CHL1     C3       CRL1     0.140000       12.0110           0
       890 MEMB     13       CHL1     H3       HGA1     0.900000E-01   1.00800           0
       891 MEMB     13       CHL1     O3       OHL     -0.660000       15.9994           0
       892 MEMB     13       CHL1     H3'      HOL      0.430000       1.00800           0
       893 MEMB     13       CHL1     C4       CRL2    -0.180000       12.0110           0
       894 MEMB     13       CHL1     H4A      HGA2     0.900000E-01   1.00800           0
       895 MEMB     13       CHL1     H4B      HGA2     0.900000E-01   1.00800           0
       896 MEMB     13       CHL1     C5       CEL1      0.00000       12.0110           0
       897 MEMB     13       CHL1     C6       CEL1    -0.150000       12.0110           0
       898 MEMB     13       CHL1     H6       HEL1     0.150000       1.00800           0
       899 MEMB     13       CHL1     C7       CRL2    -0.180000       12.0110           0
       900 MEMB     13       CHL1     H7A      HGA2     0.900000E-01   1.00800           0
       901 MEMB     13       CHL1     H7B      HGA2     0.900000E-01   1.00800           0
       902 MEMB     13       CHL1     C8       CRL1    -0.900000E-01   12.0110           0
       903 MEMB     13       CHL1     H8       HGA1     0.900000E-01   1.00800           0
       904 MEMB     13       CHL1     C14      CRL1    -0.900000E-01   12.0110           0
       905 MEMB     13       CHL1     H14      HGA1     0.900000E-01   1.00800           0
       906 MEMB     13       CHL1     C15      CRL2    -0.180000       12.0110           0
       907 MEMB     13       CHL1     H15A     HGA2     0.900000E-01   1.00800           0
       908 MEMB     13       CHL1     H15B     HGA2     0.900000E-01   1.00800           0
       909 MEMB     13       CHL1     C16      CRL2    -0.180000       12.0110           0
       910 MEMB     13       CHL1     H16A     HGA2     0.900000E-01   1.00800           0
       911 MEMB     13       CHL1     H16B     HGA2     0.900000E-01   1.00800           0
       912 MEMB     13       CHL1     C17      CRL1    -0.900000E-01   12.0110           0
       913 MEMB     13       CHL1     H17      HGA1     0.900000E-01   1.00800           0
       914 MEMB     13       CHL1     C13      CRL1      0.00000       12.0110           0
       915 MEMB     13       CHL1     C18      CTL3    -0.270000       12.0110           0
       916 MEMB     13       CHL1     H18A     HAL3     0.900000E-01   1.00800           0
       917 MEMB     13       CHL1     H18B     HAL3     0.900000E-01   1.00800           0
       918 MEMB     13       CHL1     H18C     HAL3     0.900000E-01   1.00800           0
       919 MEMB     13       CHL1     C12      CRL2    -0.180000       12.0110           0
       920 MEMB     13       CHL1     H12A     HGA2     0.900000E-01   1.00800           0
       921 MEMB     13       CHL1     H12B     HGA2     0.900000E-01   1.00800           0
       922 MEMB     13       CHL1     C11      CRL2    -0.180000       12.0110           0
       923 MEMB     13       CHL1     H11A     HGA2     0.900000E-01   1.00800           0
       924 MEMB     13       CHL1     H11B     HGA2     0.900000E-01   1.00800           0
       925 MEMB     13       CHL1     C9       CRL1    -0.900000E-01   12.0110           0
       926 MEMB     13       CHL1     H9       HGA1     0.900000E-01   1.00800           0
       927 MEMB     13       CHL1     C10      CRL1      0.00000       12.0110           0
       928 MEMB     13       CHL1     C19      CTL3    -0.270000       12.0110           0
       929 MEMB     13       CHL1     H19A     HAL3     0.900000E-01   1.00800           0
       930 MEMB     13       CHL1     H19B     HAL3     0.900000E-01   1.00800           0
       931 MEMB     13       CHL1     H19C     HAL3     0.900000E-01   1.00800           0
       932 MEMB     13       CHL1     C1       CRL2    -0.180000       12.0110           0
       933 MEMB     13       CHL1     H1A      HGA2     0.900000E-01   1.00800           0
       934 MEMB     13       CHL1     H1B      HGA2     0.900000E-01   1.00800           0
       935 MEMB     13       CHL1     C2       CRL2    -0.180000       12.0110           0
       936 MEMB     13       CHL1     H2A      HGA2     0.900000E-01   1.00800           0
       937 MEMB     13       CHL1     H2B      HGA2     0.900000E-01   1.00800           0
       938 MEMB     13       CHL1     C20      CTL1    -0.900000E-01   12.0110           0
       939 MEMB     13       CHL1     H20      HAL1     0.900000E-01   1.00800           0
       940 MEMB     13       CHL1     C21      CTL3    -0.270000       12.0110           0
       941 MEMB     13       CHL1     H21A     HAL3     0.900000E-01   1.00800           0
       942 MEMB     13       CHL1     H21B     HAL3     0.900000E-01   1.00800           0
       943 MEMB     13       CHL1     H21C     HAL3     0.900000E-01   1.00800           0
       944 MEMB     13       CHL1     C22      CTL2    -0.180000       12.0110           0
       945 MEMB     13       CHL1     H22A     HAL2     0.900000E-01   1.00800           0
       946 MEMB     13       CHL1     H22B     HAL2     0.900000E-01   1.00800           0
       947 MEMB     13       CHL1     C23      CTL2    -0.180000       12.0110           0
       948 MEMB     13       CHL1     H23A     HAL2     0.900000E-01   1.00800           0
       949 MEMB     13       CHL1     H23B     HAL2     0.900000E-01   1.00800           0
       950 MEMB     13       CHL1     C24      CTL2    -0.180000       12.0110           0
       951 MEMB     13       CHL1     H24A     HAL2     0.900000E-01   1.00800           0
       952 MEMB     13       CHL1     H24B     HAL2     0.900000E-01   1.00800           0
       953 MEMB     13       CHL1     C25      CTL1    -0.900000E-01   12.0110           0
       954 MEMB     13       CHL1     H25      HAL1     0.900000E-01   1.00800           0
       955 MEMB     13       CHL1     C26      CTL3    -0.270000       12.0110           0
       956 MEMB     13       CHL1     H26A     HAL3     0.900000E-01   1.00800           0
       957 MEMB     13       CHL1     H26B     HAL3     0.900000E-01   1.00800           0
       958 MEMB     13       CHL1     H26C     HAL3     0.900000E-01   1.00800           0
       959 MEMB     13       CHL1     C27      CTL3    -0.270000       12.0110           0
       960 MEMB     13       CHL1     H27A     HAL3     0.900000E-01   1.00800           0
       961 MEMB     13       CHL1     H27B     HAL3     0.900000E-01   1.00800           0
       962 MEMB     13       CHL1     H27C     HAL3     0.900000E-01   1.00800           0
       963 MEMB     14       CHL1     C3       CRL1     0.140000       12.0110           0
       964 MEMB     14       CHL1     H3       HGA1     0.900000E-01   1.00800           0
       965 MEMB     14       CHL1     O3       OHL     -0.660000       15.9994           0
       966 MEMB     14       CHL1     H3'      HOL      0.430000       1.00800           0
       967 MEMB     14       CHL1     C4       CRL2    -0.180000       12.0110           0
       968 MEMB     14       CHL1     H4A      HGA2     0.900000E-01   1.00800           0
       969 MEMB     14       CHL1     H4B      HGA2     0.900000E-01   1.00800           0
       970 MEMB     14       CHL1     C5       CEL1      0.00000       12.0110           0
       971 MEMB     14       CHL1     C6       CEL1    -0.150000       12.0110           0
       972 MEMB     14       CHL1     H6       HEL1     0.150000       1.00800           0
       973 MEMB     14       CHL1     C7       CRL2    -0.180000       12.0110           0
       974 MEMB     14       CHL1     H7A      HGA2     0.900000E-01   1.00800           0
       975 MEMB     14       CHL1     H7B      HGA2     0.900000E-01   1.00800           0
       976 MEMB     14       CHL1     C8       CRL1    -0.900000E-01   12.0110           0
       977 MEMB     14       CHL1     H8       HGA1     0.900000E-01   1.00800           0
       978 MEMB     14       CHL1     C14      CRL1    -0.900000E-01   12.0110           0
       979 MEMB     14       CHL1     H14      HGA1     0.900000E-01   1.00800           0
       980 MEMB     14       CHL1     C15      CRL2    -0.180000       12.0110           0
       981 MEMB     14       CHL1     H15A     HGA2     0.900000E-01   1.00800           0
       982 MEMB     14       CHL1     H15B     HGA2     0.900000E-01   1.00800           0
       983 MEMB     14       CHL1     C16      CRL2    -0.180000       12.0110           0
       984 MEMB     14       CHL1     H16A     HGA2     0.900000E-01   1.00800           0
       985 MEMB     14       CHL1     H16B     HGA2     0.900000E-01   1.00800           0
       986 MEMB     14       CHL1     C17      CRL1    -0.900000E-01   12.0110           0
       987 MEMB     14       CHL1     H17      HGA1     0.900000E-01   1.00800           0
       988 MEMB     14       CHL1     C13      CRL1      0.00000       12.0110           0
       989 MEMB     14       CHL1     C18      CTL3    -0.270000       12.0110           0
       990 MEMB     14       CHL1     H18A     HAL3     0.900000E-01   1.00800           0
       991 MEMB     14       CHL1     H18B     HAL3     0.900000E-01   1.00800           0
       992 MEMB     14       CHL1     H18C     HAL3     0.900000E-01   1.00800           0
       993 MEMB     14       CHL1     C12      CRL2    -0.180000       12.0110           0
       994 MEMB     14       CHL1     H12A     HGA2     0.900000E-01   1.00800           0
       995 MEMB     14       CHL1     H12B     HGA2     0.900000E-01   1.00800           0
       996 MEMB     14       CHL1     C11      CRL2    -0.180000       12.0110           0
       997 MEMB     14       CHL1     H11A     HGA2     0.900000E-01   1.00800           0
       998 MEMB     14       CHL1     H11B     HGA2     0.900000E-01   1.00800           0
       999 MEMB     14       CHL1     C9       CRL1    -0.900000E-01   12.0110           0
      1000 MEMB     14       CHL1     H9       HGA1     0.900000E-01   1.00800           0
      1001 MEMB     14       CHL1     C10      CRL1      0.00000       12.0110           0
      1002 MEMB     14       CHL1     C19      CTL3    -0.270000       12.0110           0
      1003 MEMB     14       CHL1     H19A     HAL3     0.900000E-01   1.00800           0
      1004 MEMB     14       CHL1     H19B     HAL3     0.900000E-01   1.00800           0
      1005 MEMB     14       CHL1     H19C     HAL3     0.900000E-01   1.00800           0
      1006 MEMB     14       CHL1     C1       CRL2    -0.180000       12.0110           0
      1007 MEMB     14       CHL1     H1A      HGA2     0.900000E-01   1.00800           0
      1008 MEMB     14       CHL1     H1B      HGA2     0.900000E-01   1.00800           0
      1009 MEMB     14       CHL1     C2       CRL2    -0.180000       12.0110           0
      1010 MEMB     14       CHL1     H2A      HGA2     0.900000E-01   1.00800           0
      1011 MEMB     14       CHL1     H2B      HGA2     0.900000E-01   1.00800           0
      1012 MEMB     14       CHL1     C20      CTL1    -0.900000E-01   12.0110           0
      1013 MEMB     14       CHL1     H20      HAL1     0.900000E-01   1.00800           0
      1014 MEMB     14       CHL1     C21      CTL3    -0.270000       12.0110           0
      1015 MEMB     14       CHL1     H21A     HAL3     0.900000E-01   1.00800           0
      1016 MEMB     14       CHL1     H21B     HAL3     0.900000E-01   1.00800           0
      1017 MEMB     14       CHL1     H21C     HAL3     0.900000E-01   1.00800           0
      1018 MEMB     14       CHL1     C22      CTL2    -0.180000       12.0110           0
      1019 MEMB     14       CHL1     H22A     HAL2     0.900000E-01   1.00800           0
      1020 MEMB     14       CHL1     H22B     HAL2     0.900000E-01   1.00800           0
      1021 MEMB     14       CHL1     C23      CTL2    -0.180000       12.0110           0
      1022 MEMB     14       CHL1     H23A     HAL2     0.900000E-01   1.00800           0
      1023 MEMB     14       CHL1     H23B     HAL2     0.900000E-01   1.00800           0
      1024 MEMB     14       CHL1     C24      CTL2    -0.180000       12.0110           0
      1025 MEMB     14       CHL1     H24A     HAL2     0.900000E-01   1.00800           0
      1026 MEMB     14       CHL1     H24B     HAL2     0.900000E-01   1.00800           0
      1027 MEMB     14       CHL1     C25      CTL1    -0.900000E-01   12.0110           0
      1028 MEMB     14       CHL1     H25      HAL1     0.900000E-01   1.00800           0
      1029 MEMB     14       CHL1     C26      CTL3    -0.270000       12.0110           0
      1030 MEMB     14       CHL1     H26A     HAL3     0.900000E-01   1.00800           0
      1031 MEMB     14       CHL1     H26B     HAL3     0.900000E-01   1.00800           0
      1032 MEMB     14       CHL1     H26C     HAL3     0.900000E-01   1.00800           0
      1033 MEMB     14       CHL1     C27      CTL3    -0.270000       12.0110           0
      1034 MEMB     14       CHL1     H27A     HAL3     0.900000E-01   1.00800           0
      1035 MEMB     14       CHL1     H27B     HAL3     0.900000E-01   1.00800           0
      1036 MEMB     14       CHL1     H27C     HAL3     0.900000E-01   1.00800           0
      1037 MEMB     15       CHL1     C3       CRL1     0.140000       12.0110           0
      1038 MEMB     15       CHL1     H3       HGA1     0.900000E-01   1.00800           0
      1039 MEMB     15       CHL1     O3       OHL     -0.660000       15.9994           0
      1040 MEMB     15       CHL1     H3'      HOL      0.430000       1.00800           0
      1041 MEMB     15       CHL1     C4       CRL2    -0.180000       12.0110           0
      1042 MEMB     15       CHL1     H4A      HGA2     0.900000E-01   1.00800           0
      1043 MEMB     15       CHL1     H4B      HGA2     0.900000E-01   1.00800           0
      1044 MEMB     15       CHL1     C5       CEL1      0.00000       12.0110           0
      1045 MEMB     15       CHL1     C6       CEL1    -0.150000       12.0110           0
      1046 MEMB     15       CHL1     H6       HEL1     0.150000       1.00800           0
      1047 MEMB     15       CHL1     C7       CRL2    -0.180000       12.0110           0
      1048 MEMB     15       CHL1     H7A      HGA2     0.900000E-01   1.00800           0
      1049 MEMB     15       CHL1     H7B      HGA2     0.900000E-01   1.00800           0
      1050 MEMB     15       CHL1     C8       CRL1    -0.900000E-01   12.0110           0
      1051 MEMB     15       CHL1     H8       HGA1     0.900000E-01   1.00800           0
      1052 MEMB     15       CHL1     C14      CRL1    -0.900000E-01   12.0110           0
      1053 MEMB     15       CHL1     H14      HGA1     0.900000E-01   1.00800           0
      1054 MEMB     15       CHL1     C15      CRL2    -0.180000       12.0110           0
      1055 MEMB     15       CHL1     H15A     HGA2     0.900000E-01   1.00800           0
      1056 MEMB     15       CHL1     H15B     HGA2     0.900000E-01   1.00800           0
      1057 MEMB     15       CHL1     C16      CRL2    -0.180000       12.0110           0
      1058 MEMB     15       CHL1     H16A     HGA2     0.900000E-01   1.00800           0
      1059 MEMB     15       CHL1     H16B     HGA2     0.900000E-01   1.00800           0
      1060 MEMB     15       CHL1     C17      CRL1    -0.900000E-01   12.0110           0
      1061 MEMB     15       CHL1     H17      HGA1     0.900000E-01   1.00800           0
      1062 MEMB     15       CHL1     C13      CRL1      0.00000       12.0110           0
      1063 MEMB     15       CHL1     C18      CTL3    -0.270000       12.0110           0
      1064 MEMB     15       CHL1     H18A     HAL3     0.900000E-01   1.00800           0
      1065 MEMB     15       CHL1     H18B     HAL3     0.900000E-01   1.00800           0
      1066 MEMB     15       CHL1     H18C     HAL3     0.900000E-01   1.00800           0
      1067 MEMB     15       CHL1     C12      CRL2    -0.180000       12.0110           0
      1068 MEMB     15       CHL1     H12A     HGA2     0.900000E-01   1.00800           0
      1069 MEMB     15       CHL1     H12B     HGA2     0.900000E-01   1.00800           0
      1070 MEMB     15       CHL1     C11      CRL2    -0.180000       12.0110           0
      1071 MEMB     15       CHL1     H11A     HGA2     0.900000E-01   1.00800           0
      1072 MEMB     15       CHL1     H11B     HGA2     0.900000E-01   1.00800           0
      1073 MEMB     15       CHL1     C9       CRL1    -0.900000E-01   12.0110           0
      1074 MEMB     15       CHL1     H9       HGA1     0.900000E-01   1.00800           0
      1075 MEMB     15       CHL1     C10      CRL1      0.00000       12.0110           0
      1076 MEMB     15       CHL1     C19      CTL3    -0.270000       12.0110           0
      1077 MEMB     15       CHL1     H19A     HAL3     0.900000E-01   1.00800           0
      1078 MEMB     15       CHL1     H19B     HAL3     0.900000E-01   1.00800           0
      1079 MEMB     15       CHL1     H19C     HAL3     0.900000E-01   1.00800           0
      1080 MEMB     15       CHL1     C1       CRL2    -0.180000       12.0110           0
      1081 MEMB     15       CHL1     H1A      HGA2     0.900000E-01   1.00800           0
      1082 MEMB     15       CHL1     H1B      HGA2     0.900000E-01   1.00800           0
      1083 MEMB     15       CHL1     C2       CRL2    -0.180000       12.0110           0
      1084 MEMB     15       CHL1     H2A      HGA2     0.900000E-01   1.00800           0
      1085 MEMB     15       CHL1     H2B      HGA2     0.900000E-01   1.00800           0
      1086 MEMB     15       CHL1     C20      CTL1    -0.900000E-01   12.0110           0
      1087 MEMB     15       CHL1     H20      HAL1     0.900000E-01   1.00800           0
      1088 MEMB     15       CHL1     C21      CTL3    -0.270000       12.0110           0
      1089 MEMB     15       CHL1     H21A     HAL3     0.900000E-01   1.00800           0
      1090 MEMB     15       CHL1     H21B     HAL3     0.900000E-01   1.00800           0
      1091 MEMB     15       CHL1     H21C     HAL3     0.900000E-01   1.00800           0
      1092 MEMB     15       CHL1     C22      CTL2    -0.180000       12.0110           0
      1093 MEMB     15       CHL1     H22A     HAL2     0.900000E-01   1.00800           0
      1094 MEMB     15       CHL1     H22B     HAL2     0.900000E-01   1.00800           0
      1095 MEMB     15       CHL1     C23      CTL2    -0.180000       12.0110           0
      1096 MEMB     15       CHL1     H23A     HAL2     0.900000E-01   1.00800           0
      1097 MEMB     15       CHL1     H23B     HAL2     0.900000E-01   1.00800           0
      1098 MEMB     15       CHL1     C24      CTL2    -0.180000       12.0110           0
      1099 MEMB     15       CHL1     H24A     HAL2     0.900000E-01   1.00800           0
      1100 MEMB     15       CHL1     H24B     HAL2     0.900000E-01   1.00800           0
      1101 MEMB     15       CHL1     C25      CTL1    -0.900000E-01   12.0110           0
      1102 MEMB     15       CHL1     H25      HAL1     0.900000E-01   1.00800           0
      1103 MEMB     15       CHL1     C26      CTL3    -0.270000       12.0110           0
      1104 MEMB     15       CHL1     H26A     HAL3     0.900000E-01   1.00800           0
      1105 MEMB     15       CHL1     H26B     HAL3     0.900000E-01   1.00800           0
      1106 MEMB     15       CHL1     H26C     HAL3     0.900000E-01   1.00800           0
      1107 MEMB     15       CHL1     C27      CTL3    -0.270000       12.0110           0
      1108 MEMB     15       CHL1     H27A     HAL3     0.900000E-01   1.00800           0
      1109 MEMB     15       CHL1     H27B     HAL3     0.900000E-01   1.00800           0
      1110 MEMB     15       CHL1     H27C     HAL3     0.900000E-01   1.00800           0
      1111 MEMB     16       CHL1     C3       CRL1     0.140000       12.0110           0
      1112 MEMB     16       CHL1     H3       HGA1     0.900000E-01   1.00800           0
      1113 MEMB     16       CHL1     O3       OHL     -0.660000       15.9994           0
      1114 MEMB     16       CHL1     H3'      HOL      0.430000       1.00800           0
      1115 MEMB     16       CHL1     C4       CRL2    -0.180000       12.0110           0
      1116 MEMB     16       CHL1     H4A      HGA2     0.900000E-01   1.00800           0
      1117 MEMB     16       CHL1     H4B      HGA2     0.900000E-01   1.00800           0
      1118 MEMB     16       CHL1     C5       CEL1      0.00000       12.0110           0
      1119 MEMB     16       CHL1     C6       CEL1    -0.150000       12.0110           0
      1120 MEMB     16       CHL1     H6       HEL1     0.150000       1.00800           0
      1121 MEMB     16       CHL1     C7       CRL2    -0.180000       12.0110           0
      1122 MEMB     16       CHL1     H7A      HGA2     0.900000E-01   1.00800           0
      1123 MEMB     16       CHL1     H7B      HGA2     0.900000E-01   1.00800           0
      1124 MEMB     16       CHL1     C8       CRL1    -0.900000E-01   12.0110           0
      1125 MEMB     16       CHL1     H8       HGA1     0.900000E-01   1.00800           0
      1126 MEMB     16       CHL1     C14      CRL1    -0.900000E-01   12.0110           0
      1127 MEMB     16       CHL1     H14      HGA1     0.900000E-01   1.00800           0
      1128 MEMB     16       CHL1     C15      CRL2    -0.180000       12.0110           0
      1129 MEMB     16       CHL1     H15A     HGA2     0.900000E-01   1.00800           0
      1130 MEMB     16       CHL1     H15B     HGA2     0.900000E-01   1.00800           0
      1131 MEMB     16       CHL1     C16      CRL2    -0.180000       12.0110           0
      1132 MEMB     16       CHL1     H16A     HGA2     0.900000E-01   1.00800           0
      1133 MEMB     16       CHL1     H16B     HGA2     0.900000E-01   1.00800           0
      1134 MEMB     16       CHL1     C17      CRL1    -0.900000E-01   12.0110           0
      1135 MEMB     16       CHL1     H17      HGA1     0.900000E-01   1.00800           0
      1136 MEMB     16       CHL1     C13      CRL1      0.00000       12.0110           0
      1137 MEMB     16       CHL1     C18      CTL3    -0.270000       12.0110           0
      1138 MEMB     16       CHL1     H18A     HAL3     0.900000E-01   1.00800           0
      1139 MEMB     16       CHL1     H18B     HAL3     0.900000E-01   1.00800           0
      1140 MEMB     16       CHL1     H18C     HAL3     0.900000E-01   1.00800           0
      1141 MEMB     16       CHL1     C12      CRL2    -0.180000       12.0110           0
      1142 MEMB     16       CHL1     H12A     HGA2     0.900000E-01   1.00800           0
      1143 MEMB     16       CHL1     H12B     HGA2     0.900000E-01   1.00800           0
      1144 MEMB     16       CHL1     C11      CRL2    -0.180000       12.0110           0
      1145 MEMB     16       CHL1     H11A     HGA2     0.900000E-01   1.00800           0
      1146 MEMB     16       CHL1     H11B     HGA2     0.900000E-01   1.00800           0
      1147 MEMB     16       CHL1     C9       CRL1    -0.900000E-01   12.0110           0
      1148 MEMB     16       CHL1     H9       HGA1     0.900000E-01   1.00800           0
      1149 MEMB     16       CHL1     C10      CRL1      0.00000       12.0110           0
      1150 MEMB     16       CHL1     C19      CTL3    -0.270000       12.0110           0
      1151 MEMB     16       CHL1     H19A     HAL3     0.900000E-01   1.00800           0
      1152 MEMB     16       CHL1     H19B     HAL3     0.900000E-01   1.00800           0
      1153 MEMB     16       CHL1     H19C     HAL3     0.900000E-01   1.00800           0
      1154 MEMB     16       CHL1     C1       CRL2    -0.180000       12.0110           0
      1155 MEMB     16       CHL1     H1A      HGA2     0.900000E-01   1.00800           0
      1156 MEMB     16       CHL1     H1B      HGA2     0.900000E-01   1.00800           0
      1157 MEMB     16       CHL1     C2       CRL2    -0.180000       12.0110           0
      1158 MEMB     16       CHL1     H2A      HGA2     0.900000E-01   1.00800           0
      1159 MEMB     16       CHL1     H2B      HGA2     0.900000E-01   1.00800           0
      1160 MEMB     16       CHL1     C20      CTL1    -0.900000E-01   12.0110           0
      1161 MEMB     16       CHL1     H20      HAL1     0.900000E-01   1.00800           0
      1162 MEMB     16       CHL1     C21      CTL3    -0.270000       12.0110           0
      1163 MEMB     16       CHL1     H21A     HAL3     0.900000E-01   1.00800           0
      1164 MEMB     16       CHL1     H21B     HAL3     0.900000E-01   1.00800           0
      1165 MEMB     16       CHL1     H21C     HAL3     0.900000E-01   1.00800           0
      1166 MEMB     16       CHL1     C22      CTL2    -0.180000       12.0110           0
      1167 MEMB     16       CHL1     H22A     HAL2     0.900000E-01   1.00800           0
      1168 MEMB     16       CHL1     H22B     HAL2     0.900000E-01   1.00800           0
      1169 MEMB     16       CHL1     C23      CTL2    -0.180000       12.0110           0
      1170 MEMB     16       CHL1     H23A     HAL2     0.900000E-01   1.00800           0
      1171 MEMB     16       CHL1     H23B     HAL2     0.900000E-01   1.00800           0
      1172 MEMB     16       CHL1     C24      CTL2    -0.180000       12.0110           0
      1173 MEMB     16       CHL1     H24A     HAL2     0.900000E-01   1.00800           0
      1174 MEMB     16       CHL1     H24B     HAL2     0.900000E-01   1.00800           0
      1175 MEMB     16       CHL1     C25      CTL1    -0.900000E-01   12.0110           0
      1176 MEMB     16       CHL1     H25      HAL1     0.900000E-01   1.00800           0
      1177 MEMB     16       CHL1     C26      CTL3    -0.270000       12.0110           0
      1178 MEMB     16       CHL1     H26A     HAL3     0.900000E-01   1.00800           0
      1179 MEMB     16       CHL1     H26B     HAL3     0.900000E-01   1.00800           0
      1180 MEMB     16       CHL1     H26C     HAL3     0.900000E-01   1.00800           0
      1181 MEMB     16       CHL1     C27      CTL3    -0.270000       12.0110           0
      1182 MEMB     16       CHL1     H27A     HAL3     0.900000E-01   1.00800           0
      1183 MEMB     16       CHL1     H27B     HAL3     0.900000E-01   1.00800           0
      1184 MEMB     16       CHL1     H27C     HAL3     0.900000E-01   1.00800           0
      1185 MEMB     17       CHL1     C3       CRL1     0.140000       12.0110           0
      1186 MEMB     17       CHL1     H3       HGA1     0.900000E-01   1.00800           0
      1187 MEMB     17       CHL1     O3       OHL     -0.660000       15.9994           0
      1188 MEMB     17       CHL1     H3'      HOL      0.430000       1.00800           0
      1189 MEMB     17       CHL1     C4       CRL2    -0.180000       12.0110           0
      1190 MEMB     17       CHL1     H4A      HGA2     0.900000E-01   1.00800           0
      1191 MEMB     17       CHL1     H4B      HGA2     0.900000E-01   1.00800           0
      1192 MEMB     17       CHL1     C5       CEL1      0.00000       12.0110           0
      1193 MEMB     17       CHL1     C6       CEL1    -0.150000       12.0110           0
      1194 MEMB     17       CHL1     H6       HEL1     0.150000       1.00800           0
      1195 MEMB     17       CHL1     C7       CRL2    -0.180000       12.0110           0
      1196 MEMB     17       CHL1     H7A      HGA2     0.900000E-01   1.00800           0
      1197 MEMB     17       CHL1     H7B      HGA2     0.900000E-01   1.00800           0
      1198 MEMB     17       CHL1     C8       CRL1    -0.900000E-01   12.0110           0
      1199 MEMB     17       CHL1     H8       HGA1     0.900000E-01   1.00800           0
      1200 MEMB     17       CHL1     C14      CRL1    -0.900000E-01   12.0110           0
      1201 MEMB     17       CHL1     H14      HGA1     0.900000E-01   1.00800           0
      1202 MEMB     17       CHL1     C15      CRL2    -0.180000       12.0110           0
      1203 MEMB     17       CHL1     H15A     HGA2     0.900000E-01   1.00800           0
      1204 MEMB     17       CHL1     H15B     HGA2     0.900000E-01   1.00800           0
      1205 MEMB     17       CHL1     C16      CRL2    -0.180000       12.0110           0
      1206 MEMB     17       CHL1     H16A     HGA2     0.900000E-01   1.00800           0
      1207 MEMB     17       CHL1     H16B     HGA2     0.900000E-01   1.00800           0
      1208 MEMB     17       CHL1     C17      CRL1    -0.900000E-01   12.0110           0
      1209 MEMB     17       CHL1     H17      HGA1     0.900000E-01   1.00800           0
      1210 MEMB     17       CHL1     C13      CRL1      0.00000       12.0110           0
      1211 MEMB     17       CHL1     C18      CTL3    -0.270000       12.0110           0
      1212 MEMB     17       CHL1     H18A     HAL3     0.900000E-01   1.00800           0
      1213 MEMB     17       CHL1     H18B     HAL3     0.900000E-01   1.00800           0
      1214 MEMB     17       CHL1     H18C     HAL3     0.900000E-01   1.00800           0
      1215 MEMB     17       CHL1     C12      CRL2    -0.180000       12.0110           0
      1216 MEMB     17       CHL1     H12A     HGA2     0.900000E-01   1.00800           0
      1217 MEMB     17       CHL1     H12B     HGA2     0.900000E-01   1.00800           0
      1218 MEMB     17       CHL1     C11      CRL2    -0.180000       12.0110           0
      1219 MEMB     17       CHL1     H11A     HGA2     0.900000E-01   1.00800           0
      1220 MEMB     17       CHL1     H11B     HGA2     0.900000E-01   1.00800           0
      1221 MEMB     17       CHL1     C9       CRL1    -0.900000E-01   12.0110           0
      1222 MEMB     17       CHL1     H9       HGA1     0.900000E-01   1.00800           0
      1223 MEMB     17       CHL1     C10      CRL1      0.00000       12.0110           0
      1224 MEMB     17       CHL1     C19      CTL3    -0.270000       12.0110           0
      1225 MEMB     17       CHL1     H19A     HAL3     0.900000E-01   1.00800           0
      1226 MEMB     17       CHL1     H19B     HAL3     0.900000E-01   1.00800           0
      1227 MEMB     17       CHL1     H19C     HAL3     0.900000E-01   1.00800           0
      1228 MEMB     17       CHL1     C1       CRL2    -0.180000       12.0110           0
      1229 MEMB     17       CHL1     H1A      HGA2     0.900000E-01   1.00800           0
      1230 MEMB     17       CHL1     H1B      HGA2     0.900000E-01   1.00800           0
      1231 MEMB     17       CHL1     C2       CRL2    -0.180000       12.0110           0
      1232 MEMB     17       CHL1     H2A      HGA2     0.900000E-01   1.00800           0
      1233 MEMB     17       CHL1     H2B      HGA2     0.900000E-01   1.00800           0
      1234 MEMB     17       CHL1     C20      CTL1    -0.900000E-01   12.0110           0
      1235 MEMB     17       CHL1     H20      HAL1     0.900000E-01   1.00800           0
      1236 MEMB     17       CHL1     C21      CTL3    -0.270000       12.0110           0
      1237 MEMB     17       CHL1     H21A     HAL3     0.900000E-01   1.00800           0
      1238 MEMB     17       CHL1     H21B     HAL3     0.900000E-01   1.00800           0
      1239 MEMB     17       CHL1     H21C     HAL3     0.900000E-01   1.00800           0
      1240 MEMB     17       CHL1     C22      CTL2    -0.180000       12.0110           0
      1241 MEMB     17       CHL1     H22A     HAL2     0.900000E-01   1.00800           0
      1242 MEMB     17       CHL1     H22B     HAL2     0.900000E-01   1.00800           0
      1243 MEMB     17       CHL1     C23      CTL2    -0.180000       12.0110           0
      1244 MEMB     17       CHL1     H23A     HAL2     0.900000E-01   1.00800           0
      1245 MEMB     17       CHL1     H23B     HAL2     0.900000E-01   1.00800           0
      1246 MEMB     17       CHL1     C24      CTL2    -0.180000       12.0110           0
      1247 MEMB     17       CHL1     H24A     HAL2     0.900000E-01   1.00800           0
      1248 MEMB     17       CHL1     H24B     HAL2     0.900000E-01   1.00800           0
      1249 MEMB     17       CHL1     C25      CTL1    -0.900000E-01   12.0110           0
      1250 MEMB     17       CHL1     H25      HAL1     0.900000E-01   1.00800           0
      1251 MEMB     17       CHL1     C26      CTL3    -0.270000       12.0110           0
      1252 MEMB     17       CHL1     H26A     HAL3     0.900000E-01   1.00800           0
      1253 MEMB     17       CHL1     H26B     HAL3     0.900000E-01   1.00800           0
      1254 MEMB     17       CHL1     H26C     HAL3     0.900000E-01   1.00800           0
      1255 MEMB     17       CHL1     C27      CTL3    -0.270000       12.0110           0
      1256 MEMB     17       CHL1     H27A     HAL3     0.900000E-01   1.00800           0
      1257 MEMB     17       CHL1     H27B     HAL3     0.900000E-01   1.00800           0
      1258 MEMB     17       CHL1     H27C     HAL3     0.900000E-01   1.00800           0
      1259 MEMB     18       CHL1     C3       CRL1     0.140000       12.0110           0
      1260 MEMB     18       CHL1     H3       HGA1     0.900000E-01   1.00800           0
      1261 MEMB     18       CHL1     O3       OHL     -0.660000       15.9994           0
      1262 MEMB     18       CHL1     H3'      HOL      0.430000       1.00800           0
      1263 MEMB     18       CHL1     C4       CRL2    -0.180000       12.0110           0
      1264 MEMB     18       CHL1     H4A      HGA2     0.900000E-01   1.00800           0
      1265 MEMB     18       CHL1     H4B      HGA2     0.900000E-01   1.00800           0
      1266 MEMB     18       CHL1     C5       CEL1      0.00000       12.0110           0
      1267 MEMB     18       CHL1     C6       CEL1    -0.150000       12.0110           0
      1268 MEMB     18       CHL1     H6       HEL1     0.150000       1.00800           0
      1269 MEMB     18       CHL1     C7       CRL2    -0.180000       12.0110           0
      1270 MEMB     18       CHL1     H7A      HGA2     0.900000E-01   1.00800           0
      1271 MEMB     18       CHL1     H7B      HGA2     0.900000E-01   1.00800           0
      1272 MEMB     18       CHL1     C8       CRL1    -0.900000E-01   12.0110           0
      1273 MEMB     18       CHL1     H8       HGA1     0.900000E-01   1.00800           0
      1274 MEMB     18       CHL1     C14      CRL1    -0.900000E-01   12.0110           0
      1275 MEMB     18       CHL1     H14      HGA1     0.900000E-01   1.00800           0
      1276 MEMB     18       CHL1     C15      CRL2    -0.180000       12.0110           0
      1277 MEMB     18       CHL1     H15A     HGA2     0.900000E-01   1.00800           0
      1278 MEMB     18       CHL1     H15B     HGA2     0.900000E-01   1.00800           0
      1279 MEMB     18       CHL1     C16      CRL2    -0.180000       12.0110           0
      1280 MEMB     18       CHL1     H16A     HGA2     0.900000E-01   1.00800           0
      1281 MEMB     18       CHL1     H16B     HGA2     0.900000E-01   1.00800           0
      1282 MEMB     18       CHL1     C17      CRL1    -0.900000E-01   12.0110           0
      1283 MEMB     18       CHL1     H17      HGA1     0.900000E-01   1.00800           0
      1284 MEMB     18       CHL1     C13      CRL1      0.00000       12.0110           0
      1285 MEMB     18       CHL1     C18      CTL3    -0.270000       12.0110           0
      1286 MEMB     18       CHL1     H18A     HAL3     0.900000E-01   1.00800           0
      1287 MEMB     18       CHL1     H18B     HAL3     0.900000E-01   1.00800           0
      1288 MEMB     18       CHL1     H18C     HAL3     0.900000E-01   1.00800           0
      1289 MEMB     18       CHL1     C12      CRL2    -0.180000       12.0110           0
      1290 MEMB     18       CHL1     H12A     HGA2     0.900000E-01   1.00800           0
      1291 MEMB     18       CHL1     H12B     HGA2     0.900000E-01   1.00800           0
      1292 MEMB     18       CHL1     C11      CRL2    -0.180000       12.0110           0
      1293 MEMB     18       CHL1     H11A     HGA2     0.900000E-01   1.00800           0
      1294 MEMB     18       CHL1     H11B     HGA2     0.900000E-01   1.00800           0
      1295 MEMB     18       CHL1     C9       CRL1    -0.900000E-01   12.0110           0
      1296 MEMB     18       CHL1     H9       HGA1     0.900000E-01   1.00800           0
      1297 MEMB     18       CHL1     C10      CRL1      0.00000       12.0110           0
      1298 MEMB     18       CHL1     C19      CTL3    -0.270000       12.0110           0
      1299 MEMB     18       CHL1     H19A     HAL3     0.900000E-01   1.00800           0
      1300 MEMB     18       CHL1     H19B     HAL3     0.900000E-01   1.00800           0
      1301 MEMB     18       CHL1     H19C     HAL3     0.900000E-01   1.00800           0
      1302 MEMB     18       CHL1     C1       CRL2    -0.180000       12.0110           0
      1303 MEMB     18       CHL1     H1A      HGA2     0.900000E-01   1.00800           0
      1304 MEMB     18       CHL1     H1B      HGA2     0.900000E-01   1.00800           0
      1305 MEMB     18       CHL1     C2       CRL2    -0.180000       12.0110           0
      1306 MEMB     18       CHL1     H2A      HGA2     0.900000E-01   1.00800           0
      1307 MEMB     18       CHL1     H2B      HGA2     0.900000E-01   1.00800           0
      1308 MEMB     18       CHL1     C20      CTL1    -0.900000E-01   12.0110           0
      1309 MEMB     18       CHL1     H20      HAL1     0.900000E-01   1.00800           0
      1310 MEMB     18       CHL1     C21      CTL3    -0.270000       12.0110           0
      1311 MEMB     18       CHL1     H21A     HAL3     0.900000E-01   1.00800           0
      1312 MEMB     18       CHL1     H21B     HAL3     0.900000E-01   1.00800           0
      1313 MEMB     18       CHL1     H21C     HAL3     0.900000E-01   1.00800           0
      1314 MEMB     18       CHL1     C22      CTL2    -0.180000       12.0110           0
      1315 MEMB     18       CHL1     H22A     HAL2     0.900000E-01   1.00800           0
      1316 MEMB     18       CHL1     H22B     HAL2     0.900000E-01   1.00800           0
      1317 MEMB     18       CHL1     C23      CTL2    -0.180000       12.0110           0
      1318 MEMB     18       CHL1     H23A     HAL2     0.900000E-01   1.00800           0
      1319 MEMB     18       CHL1     H23B     HAL2     0.900000E-01   1.00800           0
      1320 MEMB     18       CHL1     C24      CTL2    -0.180000       12.0110           0
      1321 MEMB     18       CHL1     H24A     HAL2     0.900000E-01   1.00800           0
      1322 MEMB     18       CHL1     H24B     HAL2     0.900000E-01   1.00800           0
      1323 MEMB     18       CHL1     C25      CTL1    -0.900000E-01   12.0110           0
      1324 MEMB     18       CHL1     H25      HAL1     0.900000E-01   1.00800           0
      1325 MEMB     18       CHL1     C26      CTL3    -0.270000       12.0110           0
      1326 MEMB     18       CHL1     H26A     HAL3     0.900000E-01   1.00800           0
      1327 MEMB     18       CHL1     H26B     HAL3     0.900000E-01   1.00800           0
      1328 MEMB     18       CHL1     H26C     HAL3     0.900000E-01   1.00800           0
      1329 MEMB     18       CHL1     C27      CTL3    -0.270000       12.0110           0
      1330 MEMB     18       CHL1     H27A     HAL3     0.900000E-01   1.00800           0
      1331 MEMB     18       CHL1     H27B     HAL3     0.900000E-01   1.00800           0
      1332 MEMB     18       CHL1     H27C     HAL3     0.900000E-01   1.00800           0
      1333 MEMB     19       CHL1     C3       CRL1     0.140000       12.0110           0
      1334 MEMB     19       CHL1     H3       HGA1     0.900000E-01   1.00800           0
      1335 MEMB     19       CHL1     O3       OHL     -0.660000       15.9994           0
      1336 MEMB     19       CHL1     H3'      HOL      0.430000       1.00800           0
      1337 MEMB     19       CHL1     C4       CRL2    -0.180000       12.0110           0
      1338 MEMB     19       CHL1     H4A      HGA2     0.900000E-01   1.00800           0
      1339 MEMB     19       CHL1     H4B      HGA2     0.900000E-01   1.00800           0
      1340 MEMB     19       CHL1     C5       CEL1      0.00000       12.0110           0
      1341 MEMB     19       CHL1     C6       CEL1    -0.150000       12.0110           0
      1342 MEMB     19       CHL1     H6       HEL1     0.150000       1.00800           0
      1343 MEMB     19       CHL1     C7       CRL2    -0.180000       12.0110           0
      1344 MEMB     19       CHL1     H7A      HGA2     0.900000E-01   1.00800           0
      1345 MEMB     19       CHL1     H7B      HGA2     0.900000E-01   1.00800           0
      1346 MEMB     19       CHL1     C8       CRL1    -0.900000E-01   12.0110           0
      1347 MEMB     19       CHL1     H8       HGA1     0.900000E-01   1.00800           0
      1348 MEMB     19       CHL1     C14      CRL1    -0.900000E-01   12.0110           0
      1349 MEMB     19       CHL1     H14      HGA1     0.900000E-01   1.00800           0
      1350 MEMB     19       CHL1     C15      CRL2    -0.180000       12.0110           0
      1351 MEMB     19       CHL1     H15A     HGA2     0.900000E-01   1.00800           0
      1352 MEMB     19       CHL1     H15B     HGA2     0.900000E-01   1.00800           0
      1353 MEMB     19       CHL1     C16      CRL2    -0.180000       12.0110           0
      1354 MEMB     19       CHL1     H16A     HGA2     0.900000E-01   1.00800           0
      1355 MEMB     19       CHL1     H16B     HGA2     0.900000E-01   1.00800           0
      1356 MEMB     19       CHL1     C17      CRL1    -0.900000E-01   12.0110           0
      1357 MEMB     19       CHL1     H17      HGA1     0.900000E-01   1.00800           0
      1358 MEMB     19       CHL1     C13      CRL1      0.00000       12.0110           0
      1359 MEMB     19       CHL1     C18      CTL3    -0.270000       12.0110           0
      1360 MEMB     19       CHL1     H18A     HAL3     0.900000E-01   1.00800           0
      1361 MEMB     19       CHL1     H18B     HAL3     0.900000E-01   1.00800           0
      1362 MEMB     19       CHL1     H18C     HAL3     0.900000E-01   1.00800           0
      1363 MEMB     19       CHL1     C12      CRL2    -0.180000       12.0110           0
      1364 MEMB     19       CHL1     H12A     HGA2     0.900000E-01   1.00800           0
      1365 MEMB     19       CHL1     H12B     HGA2     0.900000E-01   1.00800           0
      1366 MEMB     19       CHL1     C11      CRL2    -0.180000       12.0110           0
      1367 MEMB     19       CHL1     H11A     HGA2     0.900000E-01   1.00800           0
      1368 MEMB     19       CHL1     H11B     HGA2     0.900000E-01   1.00800           0
      1369 MEMB     19       CHL1     C9       CRL1    -0.900000E-01   12.0110           0
      1370 MEMB     19       CHL1     H9       HGA1     0.900000E-01   1.00800           0
      1371 MEMB     19       CHL1     C10      CRL1      0.00000       12.0110           0
      1372 MEMB     19       CHL1     C19      CTL3    -0.270000       12.0110           0
      1373 MEMB     19       CHL1     H19A     HAL3     0.900000E-01   1.00800           0
      1374 MEMB     19       CHL1     H19B     HAL3     0.900000E-01   1.00800           0
      1375 MEMB     19       CHL1     H19C     HAL3     0.900000E-01   1.00800           0
      1376 MEMB     19       CHL1     C1       CRL2    -0.180000       12.0110           0
      1377 MEMB     19       CHL1     H1A      HGA2     0.900000E-01   1.00800           0
      1378 MEMB     19       CHL1     H1B      HGA2     0.900000E-01   1.00800           0
      1379 MEMB     19       CHL1     C2       CRL2    -0.180000       12.0110           0
      1380 MEMB     19       CHL1     H2A      HGA2     0.900000E-01   1.00800           0
      1381 MEMB     19       CHL1     H2B      HGA2     0.900000E-01   1.00800           0
      1382 MEMB     19       CHL1     C20      CTL1    -0.900000E-01   12.0110           0
      1383 MEMB     19       CHL1     H20      HAL1     0.900000E-01   1.00800           0
      1384 MEMB     19       CHL1     C21      CTL3    -0.270000       12.0110           0
      1385 MEMB     19       CHL1     H21A     HAL3     0.900000E-01   1.00800           0
      1386 MEMB     19       CHL1     H21B     HAL3     0.900000E-01   1.00800           0
      1387 MEMB     19       CHL1     H21C     HAL3     0.900000E-01   1.00800           0
      1388 MEMB     19       CHL1     C22      CTL2    -0.180000       12.0110           0
      1389 MEMB     19       CHL1     H22A     HAL2     0.900000E-01   1.00800           0
      1390 MEMB     19       CHL1     H22B     HAL2     0.900000E-01   1.00800           0
      1391 MEMB     19       CHL1     C23      CTL2    -0.180000       12.0110           0
      1392 MEMB     19       CHL1     H23A     HAL2     0.900000E-01   1.00800           0
      1393 MEMB     19       CHL1     H23B     HAL2     0.900000E-01   1.00800           0
      1394 MEMB     19       CHL1     C24      CTL2    -0.180000       12.0110           0
      1395 MEMB     19       CHL1     H24A     HAL2     0.900000E-01   1.00800           0
      1396 MEMB     19       CHL1     H24B     HAL2     0.900000E-01   1.00800           0
      1397 MEMB     19       CHL1     C25      CTL1    -0.900000E-01   12.0110           0
      1398 MEMB     19       CHL1     H25      HAL1     0.900000E-01   1.00800           0
      1399 MEMB     19       CHL1     C26      CTL3    -0.270000       12.0110           0
      1400 MEMB     19       CHL1     H26A     HAL3     0.900000E-01   1.00800           0
      1401 MEMB     19       CHL1     H26B     HAL3     0.900000E-01   1.00800           0
      1402 MEMB     19       CHL1     H26C     HAL3     0.900000E-01   1.00800           0
      1403 MEMB     19       CHL1     C27      CTL3    -0.270000       12.0110           0
      1404 MEMB     19       CHL1     H27A     HAL3     0.900000E-01   1.00800           0
      1405 MEMB     19       CHL1     H27B     HAL3     0.900000E-01   1.00800           0
      1406 MEMB     19       CHL1     H27C     HAL3     0.900000E-01   1.00800           0
      1407 MEMB     20       CHL1     C3       CRL1     0.140000       12.0110           0
      1408 MEMB     20       CHL1     H3       HGA1     0.900000E-01   1.00800           0
      1409 MEMB     20       CHL1     O3       OHL     -0.660000       15.9994           0
      1410 MEMB     20       CHL1     H3'      HOL      0.430000       1.00800           0
      1411 MEMB     20       CHL1     C4       CRL2    -0.180000       12.0110           0
      1412 MEMB     20       CHL1     H4A      HGA2     0.900000E-01   1.00800           0
      1413 MEMB     20       CHL1     H4B      HGA2     0.900000E-01   1.00800           0
      1414 MEMB     20       CHL1     C5       CEL1      0.00000       12.0110           0
      1415 MEMB     20       CHL1     C6       CEL1    -0.150000       12.0110           0
      1416 MEMB     20       CHL1     H6       HEL1     0.150000       1.00800           0
      1417 MEMB     20       CHL1     C7       CRL2    -0.180000       12.0110           0
      1418 MEMB     20       CHL1     H7A      HGA2     0.900000E-01   1.00800           0
      1419 MEMB     20       CHL1     H7B      HGA2     0.900000E-01   1.00800           0
      1420 MEMB     20       CHL1     C8       CRL1    -0.900000E-01   12.0110           0
      1421 MEMB     20       CHL1     H8       HGA1     0.900000E-01   1.00800           0
      1422 MEMB     20       CHL1     C14      CRL1    -0.900000E-01   12.0110           0
      1423 MEMB     20       CHL1     H14      HGA1     0.900000E-01   1.00800           0
      1424 MEMB     20       CHL1     C15      CRL2    -0.180000       12.0110           0
      1425 MEMB     20       CHL1     H15A     HGA2     0.900000E-01   1.00800           0
      1426 MEMB     20       CHL1     H15B     HGA2     0.900000E-01   1.00800           0
      1427 MEMB     20       CHL1     C16      CRL2    -0.180000       12.0110           0
      1428 MEMB     20       CHL1     H16A     HGA2     0.900000E-01   1.00800           0
      1429 MEMB     20       CHL1     H16B     HGA2     0.900000E-01   1.00800           0
      1430 MEMB     20       CHL1     C17      CRL1    -0.900000E-01   12.0110           0
      1431 MEMB     20       CHL1     H17      HGA1     0.900000E-01   1.00800           0
      1432 MEMB     20       CHL1     C13      CRL1      0.00000       12.0110           0
      1433 MEMB     20       CHL1     C18      CTL3    -0.270000       12.0110           0
      1434 MEMB     20       CHL1     H18A     HAL3     0.900000E-01   1.00800           0
      1435 MEMB     20       CHL1     H18B     HAL3     0.900000E-01   1.00800           0
      1436 MEMB     20       CHL1     H18C     HAL3     0.900000E-01   1.00800           0
      1437 MEMB     20       CHL1     C12      CRL2    -0.180000       12.0110           0
      1438 MEMB     20       CHL1     H12A     HGA2     0.900000E-01   1.00800           0
      1439 MEMB     20       CHL1     H12B     HGA2     0.900000E-01   1.00800           0
      1440 MEMB     20       CHL1     C11      CRL2    -0.180000       12.0110           0
      1441 MEMB     20       CHL1     H11A     HGA2     0.900000E-01   1.00800           0
      1442 MEMB     20       CHL1     H11B     HGA2     0.900000E-01   1.00800           0
      1443 MEMB     20       CHL1     C9       CRL1    -0.900000E-01   12.0110           0
      1444 MEMB     20       CHL1     H9       HGA1     0.900000E-01   1.00800           0
      1445 MEMB     20       CHL1     C10      CRL1      0.00000       12.0110           0
      1446 MEMB     20       CHL1     C19      CTL3    -0.270000       12.0110           0
      1447 MEMB     20       CHL1     H19A     HAL3     0.900000E-01   1.00800           0
      1448 MEMB     20       CHL1     H19B     HAL3     0.900000E-01   1.00800           0
      1449 MEMB     20       CHL1     H19C     HAL3     0.900000E-01   1.00800           0
      1450 MEMB     20       CHL1     C1       CRL2    -0.180000       12.0110           0
      1451 MEMB     20       CHL1     H1A      HGA2     0.900000E-01   1.00800           0
      1452 MEMB     20       CHL1     H1B      HGA2     0.900000E-01   1.00800           0
      1453 MEMB     20       CHL1     C2       CRL2    -0.180000       12.0110           0
      1454 MEMB     20       CHL1     H2A      HGA2     0.900000E-01   1.00800           0
      1455 MEMB     20       CHL1     H2B      HGA2     0.900000E-01   1.00800           0
      1456 MEMB     20       CHL1     C20      CTL1    -0.900000E-01   12.0110           0
      1457 MEMB     20       CHL1     H20      HAL1     0.900000E-01   1.00800           0
      1458 MEMB     20       CHL1     C21      CTL3    -0.270000       12.0110           0
      1459 MEMB     20       CHL1     H21A     HAL3     0.900000E-01   1.00800           0
      1460 MEMB     20       CHL1     H21B     HAL3     0.900000E-01   1.00800           0
      1461 MEMB     20       CHL1     H21C     HAL3     0.900000E-01   1.00800           0
      1462 MEMB     20       CHL1     C22      CTL2    -0.180000       12.0110           0
      1463 MEMB     20       CHL1     H22A     HAL2     0.900000E-01   1.00800           0
      1464 MEMB     20       CHL1     H22B     HAL2     0.900000E-01   1.00800           0
      1465 MEMB     20       CHL1     C23      CTL2    -0.180000       12.0110           0
      1466 MEMB     20       CHL1     H23A     HAL2     0.900000E-01   1.00800           0
      1467 MEMB     20       CHL1     H23B     HAL2     0.900000E-01   1.00800           0
      1468 MEMB     20       CHL1     C24      CTL2    -0.180000       12.0110           0
      1469 MEMB     20       CHL1     H24A     HAL2     0.900000E-01   1.00800           0
      1470 MEMB     20       CHL1     H24B     HAL2     0.900000E-01   1.00800           0
      1471 MEMB     20       CHL1     C25      CTL1    -0.900000E-01   12.0110           0
      1472 MEMB     20       CHL1     H25      HAL1     0.900000E-01   1.00800           0
      1473 MEMB     20       CHL1     C26      CTL3    -0.270000       12.0110           0
      1474 MEMB     20       CHL1     H26A     HAL3     0.900000E-01   1.00800           0
      1475 MEMB     20       CHL1     H26B     HAL3     0.900000E-01   1.00800           0
      1476 MEMB     20       CHL1     H26C     HAL3     0.900000E-01   1.00800           0
      1477 MEMB     20       CHL1     C27      CTL3    -0.270000       12.0110           0
      1478 MEMB     20       CHL1     H27A     HAL3     0.900000E-01   1.00800           0
      1479 MEMB     20       CHL1     H27B     HAL3     0.900000E-01   1.00800           0
      1480 MEMB     20       CHL1     H27C     HAL3     0.900000E-01   1.00800           0
      1481 MEMB     21       CHL1     C3       CRL1     0.140000       12.0110           0
      1482 MEMB     21       CHL1     H3       HGA1     0.900000E-01   1.00800           0
      1483 MEMB     21       CHL1     O3       OHL     -0.660000       15.9994           0
      1484 MEMB     21       CHL1     H3'      HOL      0.430000       1.00800           0
      1485 MEMB     21       CHL1     C4       CRL2    -0.180000       12.0110           0
      1486 MEMB     21       CHL1     H4A      HGA2     0.900000E-01   1.00800           0
      1487 MEMB     21       CHL1     H4B      HGA2     0.900000E-01   1.00800           0
      1488 MEMB     21       CHL1     C5       CEL1      0.00000       12.0110           0
      1489 MEMB     21       CHL1     C6       CEL1    -0.150000       12.0110           0
      1490 MEMB     21       CHL1     H6       HEL1     0.150000       1.00800           0
      1491 MEMB     21       CHL1     C7       CRL2    -0.180000       12.0110           0
      1492 MEMB     21       CHL1     H7A      HGA2     0.900000E-01   1.00800           0
      1493 MEMB     21       CHL1     H7B      HGA2     0.900000E-01   1.00800           0
      1494 MEMB     21       CHL1     C8       CRL1    -0.900000E-01   12.0110           0
      1495 MEMB     21       CHL1     H8       HGA1     0.900000E-01   1.00800           0
      1496 MEMB     21       CHL1     C14      CRL1    -0.900000E-01   12.0110           0
      1497 MEMB     21       CHL1     H14      HGA1     0.900000E-01   1.00800           0
      1498 MEMB     21       CHL1     C15      CRL2    -0.180000       12.0110           0
      1499 MEMB     21       CHL1     H15A     HGA2     0.900000E-01   1.00800           0
      1500 MEMB     21       CHL1     H15B     HGA2     0.900000E-01   1.00800           0
      1501 MEMB     21       CHL1     C16      CRL2    -0.180000       12.0110           0
      1502 MEMB     21       CHL1     H16A     HGA2     0.900000E-01   1.00800           0
      1503 MEMB     21       CHL1     H16B     HGA2     0.900000E-01   1.00800           0
      1504 MEMB     21       CHL1     C17      CRL1    -0.900000E-01   12.0110           0
      1505 MEMB     21       CHL1     H17      HGA1     0.900000E-01   1.00800           0
      1506 MEMB     21       CHL1     C13      CRL1      0.00000       12.0110           0
      1507 MEMB     21       CHL1     C18      CTL3    -0.270000       12.0110           0
      1508 MEMB     21       CHL1     H18A     HAL3     0.900000E-01   1.00800           0
      1509 MEMB     21       CHL1     H18B     HAL3     0.900000E-01   1.00800           0
      1510 MEMB     21       CHL1     H18C     HAL3     0.900000E-01   1.00800           0
      1511 MEMB     21       CHL1     C12      CRL2    -0.180000       12.0110           0
      1512 MEMB     21       CHL1     H12A     HGA2     0.900000E-01   1.00800           0
      1513 MEMB     21       CHL1     H12B     HGA2     0.900000E-01   1.00800           0
      1514 MEMB     21       CHL1     C11      CRL2    -0.180000       12.0110           0
      1515 MEMB     21       CHL1     H11A     HGA2     0.900000E-01   1.00800           0
      1516 MEMB     21       CHL1     H11B     HGA2     0.900000E-01   1.00800           0
      1517 MEMB     21       CHL1     C9       CRL1    -0.900000E-01   12.0110           0
      1518 MEMB     21       CHL1     H9       HGA1     0.900000E-01   1.00800           0
      1519 MEMB     21       CHL1     C10      CRL1      0.00000       12.0110           0
      1520 MEMB     21       CHL1     C19      CTL3    -0.270000       12.0110           0
      1521 MEMB     21       CHL1     H19A     HAL3     0.900000E-01   1.00800           0
      1522 MEMB     21       CHL1     H19B     HAL3     0.900000E-01   1.00800           0
      1523 MEMB     21       CHL1     H19C     HAL3     0.900000E-01   1.00800           0
      1524 MEMB     21       CHL1     C1       CRL2    -0.180000       12.0110           0
      1525 MEMB     21       CHL1     H1A      HGA2     0.900000E-01   1.00800           0
      1526 MEMB     21       CHL1     H1B      HGA2     0.900000E-01   1.00800           0
      1527 MEMB     21       CHL1     C2       CRL2    -0.180000       12.0110           0
      1528 MEMB     21       CHL1     H2A      HGA2     0.900000E-01   1.00800           0
      1529 MEMB     21       CHL1     H2B      HGA2     0.900000E-01   1.00800           0
      1530 MEMB     21       CHL1     C20      CTL1    -0.900000E-01   12.0110           0
      1531 MEMB     21       CHL1     H20      HAL1     0.900000E-01   1.00800           0
      1532 MEMB     21       CHL1     C21      CTL3    -0.270000       12.0110           0
      1533 MEMB     21       CHL1     H21A     HAL3     0.900000E-01   1.00800           0
      1534 MEMB     21       CHL1     H21B     HAL3     0.900000E-01   1.00800           0
      1535 MEMB     21       CHL1     H21C     HAL3     0.900000E-01   1.00800           0
      1536 MEMB     21       CHL1     C22      CTL2    -0.180000       12.0110           0
      1537 MEMB     21       CHL1     H22A     HAL2     0.900000E-01   1.00800           0
      1538 MEMB     21       CHL1     H22B     HAL2     0.900000E-01   1.00800           0
      1539 MEMB     21       CHL1     C23      CTL2    -0.180000       12.0110           0
      1540 MEMB     21       CHL1     H23A     HAL2     0.900000E-01   1.00800           0
      1541 MEMB     21       CHL1     H23B     HAL2     0.900000E-01   1.00800           0
      1542 MEMB     21       CHL1     C24      CTL2    -0.180000       12.0110           0
      1543 MEMB     21       CHL1     H24A     HAL2     0.900000E-01   1.00800           0
      1544 MEMB     21       CHL1     H24B     HAL2     0.900000E-01   1.00800           0
      1545 MEMB     21       CHL1     C25      CTL1    -0.900000E-01   12.0110           0
      1546 MEMB     21       CHL1     H25      HAL1     0.900000E-01   1.00800           0
      1547 MEMB     21       CHL1     C26      CTL3    -0.270000       12.0110           0
      1548 MEMB     21       CHL1     H26A     HAL3     0.900000E-01   1.00800           0
      1549 MEMB     21       CHL1     H26B     HAL3     0.900000E-01   1.00800           0
      1550 MEMB     21       CHL1     H26C     HAL3     0.900000E-01   1.00800           0
      1551 MEMB     21       CHL1     C27      CTL3    -0.270000       12.0110           0
      1552 MEMB     21       CHL1     H27A     HAL3     0.900000E-01   1.00800           0
      1553 MEMB     21       CHL1     H27B     HAL3     0.900000E-01   1.00800           0
      1554 MEMB     21       CHL1     H27C     HAL3     0.900000E-01   1.00800           0
      1555 MEMB     22       CHL1     C3       CRL1     0.140000       12.0110           0
      1556 MEMB     22       CHL1     H3       HGA1     0.900000E-01   1.00800           0
      1557 MEMB     22       CHL1     O3       OHL     -0.660000       15.9994           0
      1558 MEMB     22       CHL1     H3'      HOL      0.430000       1.00800           0
      1559 MEMB     22       CHL1     C4       CRL2    -0.180000       12.0110           0
      1560 MEMB     22       CHL1     H4A      HGA2     0.900000E-01   1.00800           0
      1561 MEMB     22       CHL1     H4B      HGA2     0.900000E-01   1.00800           0
      1562 MEMB     22       CHL1     C5       CEL1      0.00000       12.0110           0
      1563 MEMB     22       CHL1     C6       CEL1    -0.150000       12.0110           0
      1564 MEMB     22       CHL1     H6       HEL1     0.150000       1.00800           0
      1565 MEMB     22       CHL1     C7       CRL2    -0.180000       12.0110           0
      1566 MEMB     22       CHL1     H7A      HGA2     0.900000E-01   1.00800           0
      1567 MEMB     22       CHL1     H7B      HGA2     0.900000E-01   1.00800           0
      1568 MEMB     22       CHL1     C8       CRL1    -0.900000E-01   12.0110           0
      1569 MEMB     22       CHL1     H8       HGA1     0.900000E-01   1.00800           0
      1570 MEMB     22       CHL1     C14      CRL1    -0.900000E-01   12.0110           0
      1571 MEMB     22       CHL1     H14      HGA1     0.900000E-01   1.00800           0
      1572 MEMB     22       CHL1     C15      CRL2    -0.180000       12.0110           0
      1573 MEMB     22       CHL1     H15A     HGA2     0.900000E-01   1.00800           0
      1574 MEMB     22       CHL1     H15B     HGA2     0.900000E-01   1.00800           0
      1575 MEMB     22       CHL1     C16      CRL2    -0.180000       12.0110           0
      1576 MEMB     22       CHL1     H16A     HGA2     0.900000E-01   1.00800           0
      1577 MEMB     22       CHL1     H16B     HGA2     0.900000E-01   1.00800           0
      1578 MEMB     22       CHL1     C17      CRL1    -0.900000E-01   12.0110           0
      1579 MEMB     22       CHL1     H17      HGA1     0.900000E-01   1.00800           0
      1580 MEMB     22       CHL1     C13      CRL1      0.00000       12.0110           0
      1581 MEMB     22       CHL1     C18      CTL3    -0.270000       12.0110           0
      1582 MEMB     22       CHL1     H18A     HAL3     0.900000E-01   1.00800           0
      1583 MEMB     22       CHL1     H18B     HAL3     0.900000E-01   1.00800           0
      1584 MEMB     22       CHL1     H18C     HAL3     0.900000E-01   1.00800           0
      1585 MEMB     22       CHL1     C12      CRL2    -0.180000       12.0110           0
      1586 MEMB     22       CHL1     H12A     HGA2     0.900000E-01   1.00800           0
      1587 MEMB     22       CHL1     H12B     HGA2     0.900000E-01   1.00800           0
      1588 MEMB     22       CHL1     C11      CRL2    -0.180000       12.0110           0
      1589 MEMB     22       CHL1     H11A     HGA2     0.900000E-01   1.00800           0
      1590 MEMB     22       CHL1     H11B     HGA2     0.900000E-01   1.00800           0
      1591 MEMB     22       CHL1     C9       CRL1    -0.900000E-01   12.0110           0
      1592 MEMB     22       CHL1     H9       HGA1     0.900000E-01   1.00800           0
      1593 MEMB     22       CHL1     C10      CRL1      0.00000       12.0110           0
      1594 MEMB     22       CHL1     C19      CTL3    -0.270000       12.0110           0
      1595 MEMB     22       CHL1     H19A     HAL3     0.900000E-01   1.00800           0
      1596 MEMB     22       CHL1     H19B     HAL3     0.900000E-01   1.00800           0
      1597 MEMB     22       CHL1     H19C     HAL3     0.900000E-01   1.00800           0
      1598 MEMB     22       CHL1     C1       CRL2    -0.180000       12.0110           0
      1599 MEMB     22       CHL1     H1A      HGA2     0.900000E-01   1.00800           0
      1600 MEMB     22       CHL1     H1B      HGA2     0.900000E-01   1.00800           0
      1601 MEMB     22       CHL1     C2       CRL2    -0.180000       12.0110           0
      1602 MEMB     22       CHL1     H2A      HGA2     0.900000E-01   1.00800           0
      1603 MEMB     22       CHL1     H2B      HGA2     0.900000E-01   1.00800           0
      1604 MEMB     22       CHL1     C20      CTL1    -0.900000E-01   12.0110           0
      1605 MEMB     22       CHL1     H20      HAL1     0.900000E-01   1.00800           0
      1606 MEMB     22       CHL1     C21      CTL3    -0.270000       12.0110           0
      1607 MEMB     22       CHL1     H21A     HAL3     0.900000E-01   1.00800           0
      1608 MEMB     22       CHL1     H21B     HAL3     0.900000E-01   1.00800           0
      1609 MEMB     22       CHL1     H21C     HAL3     0.900000E-01   1.00800           0
      1610 MEMB     22       CHL1     C22      CTL2    -0.180000       12.0110           0
      1611 MEMB     22       CHL1     H22A     HAL2     0.900000E-01   1.00800           0
      1612 MEMB     22       CHL1     H22B     HAL2     0.900000E-01   1.00800           0
      1613 MEMB     22       CHL1     C23      CTL2    -0.180000       12.0110           0
      1614 MEMB     22       CHL1     H23A     HAL2     0.900000E-01   1.00800           0
      1615 MEMB     22       CHL1     H23B     HAL2     0.900000E-01   1.00800           0
      1616 MEMB     22       CHL1     C24      CTL2    -0.180000       12.0110           0
      1617 MEMB     22       CHL1     H24A     HAL2     0.900000E-01   1.00800           0
      1618 MEMB     22       CHL1     H24B     HAL2     0.900000E-01   1.00800           0
      1619 MEMB     22       CHL1     C25      CTL1    -0.900000E-01   12.0110           0
      1620 MEMB     22       CHL1     H25      HAL1     0.900000E-01   1.00800           0
      1621 MEMB     22       CHL1     C26      CTL3    -0.270000       12.0110           0
      1622 MEMB     22       CHL1     H26A     HAL3     0.900000E-01   1.00800           0
      1623 MEMB     22       CHL1     H26B     HAL3     0.900000E-01   1.00800           0
      1624 MEMB     22       CHL1     H26C     HAL3     0.900000E-01   1.00800           0
      1625 MEMB     22       CHL1     C27      CTL3    -0.270000       12.0110           0
      1626 MEMB     22       CHL1     H27A     HAL3     0.900000E-01   1.00800           0
      1627 MEMB     22       CHL1     H27B     HAL3     0.900000E-01   1.00800           0
      1628 MEMB     22       CHL1     H27C     HAL3     0.900000E-01   1.00800           0
      1629 MEMB     23       CHL1     C3       CRL1     0.140000       12.0110           0
      1630 MEMB     23       CHL1     H3       HGA1     0.900000E-01   1.00800           0
      1631 MEMB     23       CHL1     O3       OHL     -0.660000       15.9994           0
      1632 MEMB     23       CHL1     H3'      HOL      0.430000       1.00800           0
      1633 MEMB     23       CHL1     C4       CRL2    -0.180000       12.0110           0
      1634 MEMB     23       CHL1     H4A      HGA2     0.900000E-01   1.00800           0
      1635 MEMB     23       CHL1     H4B      HGA2     0.900000E-01   1.00800           0
      1636 MEMB     23       CHL1     C5       CEL1      0.00000       12.0110           0
      1637 MEMB     23       CHL1     C6       CEL1    -0.150000       12.0110           0
      1638 MEMB     23       CHL1     H6       HEL1     0.150000       1.00800           0
      1639 MEMB     23       CHL1     C7       CRL2    -0.180000       12.0110           0
      1640 MEMB     23       CHL1     H7A      HGA2     0.900000E-01   1.00800           0
      1641 MEMB     23       CHL1     H7B      HGA2     0.900000E-01   1.00800           0
      1642 MEMB     23       CHL1     C8       CRL1    -0.900000E-01   12.0110           0
      1643 MEMB     23       CHL1     H8       HGA1     0.900000E-01   1.00800           0
      1644 MEMB     23       CHL1     C14      CRL1    -0.900000E-01   12.0110           0
      1645 MEMB     23       CHL1     H14      HGA1     0.900000E-01   1.00800           0
      1646 MEMB     23       CHL1     C15      CRL2    -0.180000       12.0110           0
      1647 MEMB     23       CHL1     H15A     HGA2     0.900000E-01   1.00800           0
      1648 MEMB     23       CHL1     H15B     HGA2     0.900000E-01   1.00800           0
      1649 MEMB     23       CHL1     C16      CRL2    -0.180000       12.0110           0
      1650 MEMB     23       CHL1     H16A     HGA2     0.900000E-01   1.00800           0
      1651 MEMB     23       CHL1     H16B     HGA2     0.900000E-01   1.00800           0
      1652 MEMB     23       CHL1     C17      CRL1    -0.900000E-01   12.0110           0
      1653 MEMB     23       CHL1     H17      HGA1     0.900000E-01   1.00800           0
      1654 MEMB     23       CHL1     C13      CRL1      0.00000       12.0110           0
      1655 MEMB     23       CHL1     C18      CTL3    -0.270000       12.0110           0
      1656 MEMB     23       CHL1     H18A     HAL3     0.900000E-01   1.00800           0
      1657 MEMB     23       CHL1     H18B     HAL3     0.900000E-01   1.00800           0
      1658 MEMB     23       CHL1     H18C     HAL3     0.900000E-01   1.00800           0
      1659 MEMB     23       CHL1     C12      CRL2    -0.180000       12.0110           0
      1660 MEMB     23       CHL1     H12A     HGA2     0.900000E-01   1.00800           0
      1661 MEMB     23       CHL1     H12B     HGA2     0.900000E-01   1.00800           0
      1662 MEMB     23       CHL1     C11      CRL2    -0.180000       12.0110           0
      1663 MEMB     23       CHL1     H11A     HGA2     0.900000E-01   1.00800           0
      1664 MEMB     23       CHL1     H11B     HGA2     0.900000E-01   1.00800           0
      1665 MEMB     23       CHL1     C9       CRL1    -0.900000E-01   12.0110           0
      1666 MEMB     23       CHL1     H9       HGA1     0.900000E-01   1.00800           0
      1667 MEMB     23       CHL1     C10      CRL1      0.00000       12.0110           0
      1668 MEMB     23       CHL1     C19      CTL3    -0.270000       12.0110           0
      1669 MEMB     23       CHL1     H19A     HAL3     0.900000E-01   1.00800           0
      1670 MEMB     23       CHL1     H19B     HAL3     0.900000E-01   1.00800           0
      1671 MEMB     23       CHL1     H19C     HAL3     0.900000E-01   1.00800           0
      1672 MEMB     23       CHL1     C1       CRL2    -0.180000       12.0110           0
      1673 MEMB     23       CHL1     H1A      HGA2     0.900000E-01   1.00800           0
      1674 MEMB     23       CHL1     H1B      HGA2     0.900000E-01   1.00800           0
      1675 MEMB     23       CHL1     C2       CRL2    -0.180000       12.0110           0
      1676 MEMB     23       CHL1     H2A      HGA2     0.900000E-01   1.00800           0
      1677 MEMB     23       CHL1     H2B      HGA2     0.900000E-01   1.00800           0
      1678 MEMB     23       CHL1     C20      CTL1    -0.900000E-01   12.0110           0
      1679 MEMB     23       CHL1     H20      HAL1     0.900000E-01   1.00800           0
      1680 MEMB     23       CHL1     C21      CTL3    -0.270000       12.0110           0
      1681 MEMB     23       CHL1     H21A     HAL3     0.900000E-01   1.00800           0
      1682 MEMB     23       CHL1     H21B     HAL3     0.900000E-01   1.00800           0
      1683 MEMB     23       CHL1     H21C     HAL3     0.900000E-01   1.00800           0
      1684 MEMB     23       CHL1     C22      CTL2    -0.180000       12.0110           0
      1685 MEMB     23       CHL1     H22A     HAL2     0.900000E-01   1.00800           0
      1686 MEMB     23       CHL1     H22B     HAL2     0.900000E-01   1.00800           0
      1687 MEMB     23       CHL1     C23      CTL2    -0.180000       12.0110           0
      1688 MEMB     23       CHL1     H23A     HAL2     0.900000E-01   1.00800           0
      1689 MEMB     23       CHL1     H23B     HAL2     0.900000E-01   1.00800           0
      1690 MEMB     23       CHL1     C24      CTL2    -0.180000       12.0110           0
      1691 MEMB     23       CHL1     H24A     HAL2     0.900000E-01   1.00800           0
      1692 MEMB     23       CHL1     H24B     HAL2     0.900000E-01   1.00800           0
      1693 MEMB     23       CHL1     C25      CTL1    -0.900000E-01   12.0110           0
      1694 MEMB     23       CHL1     H25      HAL1     0.900000E-01   1.00800           0
      1695 MEMB     23       CHL1     C26      CTL3    -0.270000       12.0110           0
      1696 MEMB     23       CHL1     H26A     HAL3     0.900000E-01   1.00800           0
      1697 MEMB     23       CHL1     H26B     HAL3     0.900000E-01   1.00800           0
      1698 MEMB     23       CHL1     H26C     HAL3     0.900000E-01   1.00800           0
      1699 MEMB     23       CHL1     C27      CTL3    -0.270000       12.0110           0
      1700 MEMB     23       CHL1     H27A     HAL3     0.900000E-01   1.00800           0
      1701 MEMB     23       CHL1     H27B     HAL3     0.900000E-01   1.00800           0
      1702 MEMB     23       CHL1     H27C     HAL3     0.900000E-01   1.00800           0
      1703 MEMB     24       CHL1     C3       CRL1     0.140000       12.0110           0
      1704 MEMB     24       CHL1     H3       HGA1     0.900000E-01   1.00800           0
      1705 MEMB     24       CHL1     O3       OHL     -0.660000       15.9994           0
      1706 MEMB     24       CHL1     H3'      HOL      0.430000       1.00800           0
      1707 MEMB     24       CHL1     C4       CRL2    -0.180000       12.0110           0
      1708 MEMB     24       CHL1     H4A      HGA2     0.900000E-01   1.00800           0
      1709 MEMB     24       CHL1     H4B      HGA2     0.900000E-01   1.00800           0
      1710 MEMB     24       CHL1     C5       CEL1      0.00000       12.0110           0
      1711 MEMB     24       CHL1     C6       CEL1    -0.150000       12.0110           0
      1712 MEMB     24       CHL1     H6       HEL1     0.150000       1.00800           0
      1713 MEMB     24       CHL1     C7       CRL2    -0.180000       12.0110           0
      1714 MEMB     24       CHL1     H7A      HGA2     0.900000E-01   1.00800           0
      1715 MEMB     24       CHL1     H7B      HGA2     0.900000E-01   1.00800           0
      1716 MEMB     24       CHL1     C8       CRL1    -0.900000E-01   12.0110           0
      1717 MEMB     24       CHL1     H8       HGA1     0.900000E-01   1.00800           0
      1718 MEMB     24       CHL1     C14      CRL1    -0.900000E-01   12.0110           0
      1719 MEMB     24       CHL1     H14      HGA1     0.900000E-01   1.00800           0
      1720 MEMB     24       CHL1     C15      CRL2    -0.180000       12.0110           0
      1721 MEMB     24       CHL1     H15A     HGA2     0.900000E-01   1.00800           0
      1722 MEMB     24       CHL1     H15B     HGA2     0.900000E-01   1.00800           0
      1723 MEMB     24       CHL1     C16      CRL2    -0.180000       12.0110           0
      1724 MEMB     24       CHL1     H16A     HGA2     0.900000E-01   1.00800           0
      1725 MEMB     24       CHL1     H16B     HGA2     0.900000E-01   1.00800           0
      1726 MEMB     24       CHL1     C17      CRL1    -0.900000E-01   12.0110           0
      1727 MEMB     24       CHL1     H17      HGA1     0.900000E-01   1.00800           0
      1728 MEMB     24       CHL1     C13      CRL1      0.00000       12.0110           0
      1729 MEMB     24       CHL1     C18      CTL3    -0.270000       12.0110           0
      1730 MEMB     24       CHL1     H18A     HAL3     0.900000E-01   1.00800           0
      1731 MEMB     24       CHL1     H18B     HAL3     0.900000E-01   1.00800           0
      1732 MEMB     24       CHL1     H18C     HAL3     0.900000E-01   1.00800           0
      1733 MEMB     24       CHL1     C12      CRL2    -0.180000       12.0110           0
      1734 MEMB     24       CHL1     H12A     HGA2     0.900000E-01   1.00800           0
      1735 MEMB     24       CHL1     H12B     HGA2     0.900000E-01   1.00800           0
      1736 MEMB     24       CHL1     C11      CRL2    -0.180000       12.0110           0
      1737 MEMB     24       CHL1     H11A     HGA2     0.900000E-01   1.00800           0
      1738 MEMB     24       CHL1     H11B     HGA2     0.900000E-01   1.00800           0
      1739 MEMB     24       CHL1     C9       CRL1    -0.900000E-01   12.0110           0
      1740 MEMB     24       CHL1     H9       HGA1     0.900000E-01   1.00800           0
      1741 MEMB     24       CHL1     C10      CRL1      0.00000       12.0110           0
      1742 MEMB     24       CHL1     C19      CTL3    -0.270000       12.0110           0
      1743 MEMB     24       CHL1     H19A     HAL3     0.900000E-01   1.00800           0
      1744 MEMB     24       CHL1     H19B     HAL3     0.900000E-01   1.00800           0
      1745 MEMB     24       CHL1     H19C     HAL3     0.900000E-01   1.00800           0
      1746 MEMB     24       CHL1     C1       CRL2    -0.180000       12.0110           0
      1747 MEMB     24       CHL1     H1A      HGA2     0.900000E-01   1.00800           0
      1748 MEMB     24       CHL1     H1B      HGA2     0.900000E-01   1.00800           0
      1749 MEMB     24       CHL1     C2       CRL2    -0.180000       12.0110           0
      1750 MEMB     24       CHL1     H2A      HGA2     0.900000E-01   1.00800           0
      1751 MEMB     24       CHL1     H2B      HGA2     0.900000E-01   1.00800           0
      1752 MEMB     24       CHL1     C20      CTL1    -0.900000E-01   12.0110           0
      1753 MEMB     24       CHL1     H20      HAL1     0.900000E-01   1.00800           0
      1754 MEMB     24       CHL1     C21      CTL3    -0.270000       12.0110           0
      1755 MEMB     24       CHL1     H21A     HAL3     0.900000E-01   1.00800           0
      1756 MEMB     24       CHL1     H21B     HAL3     0.900000E-01   1.00800           0
      1757 MEMB     24       CHL1     H21C     HAL3     0.900000E-01   1.00800           0
      1758 MEMB     24       CHL1     C22      CTL2    -0.180000       12.0110           0
      1759 MEMB     24       CHL1     H22A     HAL2     0.900000E-01   1.00800           0
      1760 MEMB     24       CHL1     H22B     HAL2     0.900000E-01   1.00800           0
      1761 MEMB     24       CHL1     C23      CTL2    -0.180000       12.0110           0
      1762 MEMB     24       CHL1     H23A     HAL2     0.900000E-01   1.00800           0
      1763 MEMB     24       CHL1     H23B     HAL2     0.900000E-01   1.00800           0
      1764 MEMB     24       CHL1     C24      CTL2    -0.180000       12.0110           0
      1765 MEMB     24       CHL1     H24A     HAL2     0.900000E-01   1.00800           0
      1766 MEMB     24       CHL1     H24B     HAL2     0.900000E-01   1.00800           0
      1767 MEMB     24       CHL1     C25      CTL1    -0.900000E-01   12.0110           0
      1768 MEMB     24       CHL1     H25      HAL1     0.900000E-01   1.00800           0
      1769 MEMB     24       CHL1     C26      CTL3    -0.270000       12.0110           0
      1770 MEMB     24       CHL1     H26A     HAL3     0.900000E-01   1.00800           0
      1771 MEMB     24       CHL1     H26B     HAL3     0.900000E-01   1.00800           0
      1772 MEMB     24       CHL1     H26C     HAL3     0.900000E-01   1.00800           0
      1773 MEMB     24       CHL1     C27      CTL3    -0.270000       12.0110           0
      1774 MEMB     24       CHL1     H27A     HAL3     0.900000E-01   1.00800           0
      1775 MEMB     24       CHL1     H27B     HAL3     0.900000E-01   1.00800           0
      1776 MEMB     24       CHL1     H27C     HAL3     0.900000E-01   1.00800           0
      1777 MEMB     25       CHL1     C3       CRL1     0.140000       12.0110           0
      1778 MEMB     25       CHL1     H3       HGA1     0.900000E-01   1.00800           0
      1779 MEMB     25       CHL1     O3       OHL     -0.660000       15.9994           0
      1780 MEMB     25       CHL1     H3'      HOL      0.430000       1.00800           0
      1781 MEMB     25       CHL1     C4       CRL2    -0.180000       12.0110           0
      1782 MEMB     25       CHL1     H4A      HGA2     0.900000E-01   1.00800           0
      1783 MEMB     25       CHL1     H4B      HGA2     0.900000E-01   1.00800           0
      1784 MEMB     25       CHL1     C5       CEL1      0.00000       12.0110           0
      1785 MEMB     25       CHL1     C6       CEL1    -0.150000       12.0110           0
      1786 MEMB     25       CHL1     H6       HEL1     0.150000       1.00800           0
      1787 MEMB     25       CHL1     C7       CRL2    -0.180000       12.0110           0
      1788 MEMB     25       CHL1     H7A      HGA2     0.900000E-01   1.00800           0
      1789 MEMB     25       CHL1     H7B      HGA2     0.900000E-01   1.00800           0
      1790 MEMB     25       CHL1     C8       CRL1    -0.900000E-01   12.0110           0
      1791 MEMB     25       CHL1     H8       HGA1     0.900000E-01   1.00800           0
      1792 MEMB     25       CHL1     C14      CRL1    -0.900000E-01   12.0110           0
      1793 MEMB     25       CHL1     H14      HGA1     0.900000E-01   1.00800           0
      1794 MEMB     25       CHL1     C15      CRL2    -0.180000       12.0110           0
      1795 MEMB     25       CHL1     H15A     HGA2     0.900000E-01   1.00800           0
      1796 MEMB     25       CHL1     H15B     HGA2     0.900000E-01   1.00800           0
      1797 MEMB     25       CHL1     C16      CRL2    -0.180000       12.0110           0
      1798 MEMB     25       CHL1     H16A     HGA2     0.900000E-01   1.00800           0
      1799 MEMB     25       CHL1     H16B     HGA2     0.900000E-01   1.00800           0
      1800 MEMB     25       CHL1     C17      CRL1    -0.900000E-01   12.0110           0
      1801 MEMB     25       CHL1     H17      HGA1     0.900000E-01   1.00800           0
      1802 MEMB     25       CHL1     C13      CRL1      0.00000       12.0110           0
      1803 MEMB     25       CHL1     C18      CTL3    -0.270000       12.0110           0
      1804 MEMB     25       CHL1     H18A     HAL3     0.900000E-01   1.00800           0
      1805 MEMB     25       CHL1     H18B     HAL3     0.900000E-01   1.00800           0
      1806 MEMB     25       CHL1     H18C     HAL3     0.900000E-01   1.00800           0
      1807 MEMB     25       CHL1     C12      CRL2    -0.180000       12.0110           0
      1808 MEMB     25       CHL1     H12A     HGA2     0.900000E-01   1.00800           0
      1809 MEMB     25       CHL1     H12B     HGA2     0.900000E-01   1.00800           0
      1810 MEMB     25       CHL1     C11      CRL2    -0.180000       12.0110           0
      1811 MEMB     25       CHL1     H11A     HGA2     0.900000E-01   1.00800           0
      1812 MEMB     25       CHL1     H11B     HGA2     0.900000E-01   1.00800           0
      1813 MEMB     25       CHL1     C9       CRL1    -0.900000E-01   12.0110           0
      1814 MEMB     25       CHL1     H9       HGA1     0.900000E-01   1.00800           0
      1815 MEMB     25       CHL1     C10      CRL1      0.00000       12.0110           0
      1816 MEMB     25       CHL1     C19      CTL3    -0.270000       12.0110           0
      1817 MEMB     25       CHL1     H19A     HAL3     0.900000E-01   1.00800           0
      1818 MEMB     25       CHL1     H19B     HAL3     0.900000E-01   1.00800           0
      1819 MEMB     25       CHL1     H19C     HAL3     0.900000E-01   1.00800           0
      1820 MEMB     25       CHL1     C1       CRL2    -0.180000       12.0110           0
      1821 MEMB     25       CHL1     H1A      HGA2     0.900000E-01   1.00800           0
      1822 MEMB     25       CHL1     H1B      HGA2     0.900000E-01   1.00800           0
      1823 MEMB     25       CHL1     C2       CRL2    -0.180000       12.0110           0
      1824 MEMB     25       CHL1     H2A      HGA2     0.900000E-01   1.00800           0
      1825 MEMB     25       CHL1     H2B      HGA2     0.900000E-01   1.00800           0
      1826 MEMB     25       CHL1     C20      CTL1    -0.900000E-01   12.0110           0
      1827 MEMB     25       CHL1     H20      HAL1     0.900000E-01   1.00800           0
      1828 MEMB     25       CHL1     C21      CTL3    -0.270000       12.0110           0
      1829 MEMB     25       CHL1     H21A     HAL3     0.900000E-01   1.00800           0
      1830 MEMB     25       CHL1     H21B     HAL3     0.900000E-01   1.00800           0
      1831 MEMB     25       CHL1     H21C     HAL3     0.900000E-01   1.00800           0
      1832 MEMB     25       CHL1     C22      CTL2    -0.180000       12.0110           0
      1833 MEMB     25       CHL1     H22A     HAL2     0.900000E-01   1.00800           0
      1834 MEMB     25       CHL1     H22B     HAL2     0.900000E-01   1.00800           0
      1835 MEMB     25       CHL1     C23      CTL2    -0.180000       12.0110           0
      1836 MEMB     25       CHL1     H23A     HAL2     0.900000E-01   1.00800           0
      1837 MEMB     25       CHL1     H23B     HAL2     0.900000E-01   1.00800           0
      1838 MEMB     25       CHL1     C24      CTL2    -0.180000       12.0110           0
      1839 MEMB     25       CHL1     H24A     HAL2     0.900000E-01   1.00800           0
      1840 MEMB     25       CHL1     H24B     HAL2     0.900000E-01   1.00800           0
      1841 MEMB     25       CHL1     C25      CTL1    -0.900000E-01   12.0110           0
      1842 MEMB     25       CHL1     H25      HAL1     0.900000E-01   1.00800           0
      1843 MEMB     25       CHL1     C26      CTL3    -0.270000       12.0110           0
      1844 MEMB     25       CHL1     H26A     HAL3     0.900000E-01   1.00800           0
      1845 MEMB     25       CHL1     H26B     HAL3     0.900000E-01   1.00800           0
      1846 MEMB     25       CHL1     H26C     HAL3     0.900000E-01   1.00800           0
      1847 MEMB     25       CHL1     C27      CTL3    -0.270000       12.0110           0
      1848 MEMB     25       CHL1     H27A     HAL3     0.900000E-01   1.00800           0
      1849 MEMB     25       CHL1     H27B     HAL3     0.900000E-01   1.00800           0
      1850 MEMB     25       CHL1     H27C     HAL3     0.900000E-01   1.00800           0
      1851 MEMB     26       CHL1     C3       CRL1     0.140000       12.0110           0
      1852 MEMB     26       CHL1     H3       HGA1     0.900000E-01   1.00800           0
      1853 MEMB     26       CHL1     O3       OHL     -0.660000       15.9994           0
      1854 MEMB     26       CHL1     H3'      HOL      0.430000       1.00800           0
      1855 MEMB     26       CHL1     C4       CRL2    -0.180000       12.0110           0
      1856 MEMB     26       CHL1     H4A      HGA2     0.900000E-01   1.00800           0
      1857 MEMB     26       CHL1     H4B      HGA2     0.900000E-01   1.00800           0
      1858 MEMB     26       CHL1     C5       CEL1      0.00000       12.0110           0
      1859 MEMB     26       CHL1     C6       CEL1    -0.150000       12.0110           0
      1860 MEMB     26       CHL1     H6       HEL1     0.150000       1.00800           0
      1861 MEMB     26       CHL1     C7       CRL2    -0.180000       12.0110           0
      1862 MEMB     26       CHL1     H7A      HGA2     0.900000E-01   1.00800           0
      1863 MEMB     26       CHL1     H7B      HGA2     0.900000E-01   1.00800           0
      1864 MEMB     26       CHL1     C8       CRL1    -0.900000E-01   12.0110           0
      1865 MEMB     26       CHL1     H8       HGA1     0.900000E-01   1.00800           0
      1866 MEMB     26       CHL1     C14      CRL1    -0.900000E-01   12.0110           0
      1867 MEMB     26       CHL1     H14      HGA1     0.900000E-01   1.00800           0
      1868 MEMB     26       CHL1     C15      CRL2    -0.180000       12.0110           0
      1869 MEMB     26       CHL1     H15A     HGA2     0.900000E-01   1.00800           0
      1870 MEMB     26       CHL1     H15B     HGA2     0.900000E-01   1.00800           0
      1871 MEMB     26       CHL1     C16      CRL2    -0.180000       12.0110           0
      1872 MEMB     26       CHL1     H16A     HGA2     0.900000E-01   1.00800           0
      1873 MEMB     26       CHL1     H16B     HGA2     0.900000E-01   1.00800           0
      1874 MEMB     26       CHL1     C17      CRL1    -0.900000E-01   12.0110           0
      1875 MEMB     26       CHL1     H17      HGA1     0.900000E-01   1.00800           0
      1876 MEMB     26       CHL1     C13      CRL1      0.00000       12.0110           0
      1877 MEMB     26       CHL1     C18      CTL3    -0.270000       12.0110           0
      1878 MEMB     26       CHL1     H18A     HAL3     0.900000E-01   1.00800           0
      1879 MEMB     26       CHL1     H18B     HAL3     0.900000E-01   1.00800           0
      1880 MEMB     26       CHL1     H18C     HAL3     0.900000E-01   1.00800           0
      1881 MEMB     26       CHL1     C12      CRL2    -0.180000       12.0110           0
      1882 MEMB     26       CHL1     H12A     HGA2     0.900000E-01   1.00800           0
      1883 MEMB     26       CHL1     H12B     HGA2     0.900000E-01   1.00800           0
      1884 MEMB     26       CHL1     C11      CRL2    -0.180000       12.0110           0
      1885 MEMB     26       CHL1     H11A     HGA2     0.900000E-01   1.00800           0
      1886 MEMB     26       CHL1     H11B     HGA2     0.900000E-01   1.00800           0
      1887 MEMB     26       CHL1     C9       CRL1    -0.900000E-01   12.0110           0
      1888 MEMB     26       CHL1     H9       HGA1     0.900000E-01   1.00800           0
      1889 MEMB     26       CHL1     C10      CRL1      0.00000       12.0110           0
      1890 MEMB     26       CHL1     C19      CTL3    -0.270000       12.0110           0
      1891 MEMB     26       CHL1     H19A     HAL3     0.900000E-01   1.00800           0
      1892 MEMB     26       CHL1     H19B     HAL3     0.900000E-01   1.00800           0
      1893 MEMB     26       CHL1     H19C     HAL3     0.900000E-01   1.00800           0
      1894 MEMB     26       CHL1     C1       CRL2    -0.180000       12.0110           0
      1895 MEMB     26       CHL1     H1A      HGA2     0.900000E-01   1.00800           0
      1896 MEMB     26       CHL1     H1B      HGA2     0.900000E-01   1.00800           0
      1897 MEMB     26       CHL1     C2       CRL2    -0.180000       12.0110           0
      1898 MEMB     26       CHL1     H2A      HGA2     0.900000E-01   1.00800           0
      1899 MEMB     26       CHL1     H2B      HGA2     0.900000E-01   1.00800           0
      1900 MEMB     26       CHL1     C20      CTL1    -0.900000E-01   12.0110           0
      1901 MEMB     26       CHL1     H20      HAL1     0.900000E-01   1.00800           0
      1902 MEMB     26       CHL1     C21      CTL3    -0.270000       12.0110           0
      1903 MEMB     26       CHL1     H21A     HAL3     0.900000E-01   1.00800           0
      1904 MEMB     26       CHL1     H21B     HAL3     0.900000E-01   1.00800           0
      1905 MEMB     26       CHL1     H21C     HAL3     0.900000E-01   1.00800           0
      1906 MEMB     26       CHL1     C22      CTL2    -0.180000       12.0110           0
      1907 MEMB     26       CHL1     H22A     HAL2     0.900000E-01   1.00800           0
      1908 MEMB     26       CHL1     H22B     HAL2     0.900000E-01   1.00800           0
      1909 MEMB     26       CHL1     C23      CTL2    -0.180000       12.0110           0
      1910 MEMB     26       CHL1     H23A     HAL2     0.900000E-01   1.00800           0
      1911 MEMB     26       CHL1     H23B     HAL2     0.900000E-01   1.00800           0
      1912 MEMB     26       CHL1     C24      CTL2    -0.180000       12.0110           0
      1913 MEMB     26       CHL1     H24A     HAL2     0.900000E-01   1.00800           0
      1914 MEMB     26       CHL1     H24B     HAL2     0.900000E-01   1.00800           0
      1915 MEMB     26       CHL1     C25      CTL1    -0.900000E-01   12.0110           0
      1916 MEMB     26       CHL1     H25      HAL1     0.900000E-01   1.00800           0
      1917 MEMB     26       CHL1     C26      CTL3    -0.270000       12.0110           0
      1918 MEMB     26       CHL1     H26A     HAL3     0.900000E-01   1.00800           0
      1919 MEMB     26       CHL1     H26B     HAL3     0.900000E-01   1.00800           0
      1920 MEMB     26       CHL1     H26C     HAL3     0.900000E-01   1.00800           0
      1921 MEMB     26       CHL1     C27      CTL3    -0.270000       12.0110           0
      1922 MEMB     26       CHL1     H27A     HAL3     0.900000E-01   1.00800           0
      1923 MEMB     26       CHL1     H27B     HAL3     0.900000E-01   1.00800           0
      1924 MEMB     26       CHL1     H27C     HAL3     0.900000E-01   1.00800           0
      1925 MEMB     27       CHL1     C3       CRL1     0.140000       12.0110           0
      1926 MEMB     27       CHL1     H3       HGA1     0.900000E-01   1.00800           0
      1927 MEMB     27       CHL1     O3       OHL     -0.660000       15.9994           0
      1928 MEMB     27       CHL1     H3'      HOL      0.430000       1.00800           0
      1929 MEMB     27       CHL1     C4       CRL2    -0.180000       12.0110           0
      1930 MEMB     27       CHL1     H4A      HGA2     0.900000E-01   1.00800           0
      1931 MEMB     27       CHL1     H4B      HGA2     0.900000E-01   1.00800           0
      1932 MEMB     27       CHL1     C5       CEL1      0.00000       12.0110           0
      1933 MEMB     27       CHL1     C6       CEL1    -0.150000       12.0110           0
      1934 MEMB     27       CHL1     H6       HEL1     0.150000       1.00800           0
      1935 MEMB     27       CHL1     C7       CRL2    -0.180000       12.0110           0
      1936 MEMB     27       CHL1     H7A      HGA2     0.900000E-01   1.00800           0
      1937 MEMB     27       CHL1     H7B      HGA2     0.900000E-01   1.00800           0
      1938 MEMB     27       CHL1     C8       CRL1    -0.900000E-01   12.0110           0
      1939 MEMB     27       CHL1     H8       HGA1     0.900000E-01   1.00800           0
      1940 MEMB     27       CHL1     C14      CRL1    -0.900000E-01   12.0110           0
      1941 MEMB     27       CHL1     H14      HGA1     0.900000E-01   1.00800           0
      1942 MEMB     27       CHL1     C15      CRL2    -0.180000       12.0110           0
      1943 MEMB     27       CHL1     H15A     HGA2     0.900000E-01   1.00800           0
      1944 MEMB     27       CHL1     H15B     HGA2     0.900000E-01   1.00800           0
      1945 MEMB     27       CHL1     C16      CRL2    -0.180000       12.0110           0
      1946 MEMB     27       CHL1     H16A     HGA2     0.900000E-01   1.00800           0
      1947 MEMB     27       CHL1     H16B     HGA2     0.900000E-01   1.00800           0
      1948 MEMB     27       CHL1     C17      CRL1    -0.900000E-01   12.0110           0
      1949 MEMB     27       CHL1     H17      HGA1     0.900000E-01   1.00800           0
      1950 MEMB     27       CHL1     C13      CRL1      0.00000       12.0110           0
      1951 MEMB     27       CHL1     C18      CTL3    -0.270000       12.0110           0
      1952 MEMB     27       CHL1     H18A     HAL3     0.900000E-01   1.00800           0
      1953 MEMB     27       CHL1     H18B     HAL3     0.900000E-01   1.00800           0
      1954 MEMB     27       CHL1     H18C     HAL3     0.900000E-01   1.00800           0
      1955 MEMB     27       CHL1     C12      CRL2    -0.180000       12.0110           0
      1956 MEMB     27       CHL1     H12A     HGA2     0.900000E-01   1.00800           0
      1957 MEMB     27       CHL1     H12B     HGA2     0.900000E-01   1.00800           0
      1958 MEMB     27       CHL1     C11      CRL2    -0.180000       12.0110           0
      1959 MEMB     27       CHL1     H11A     HGA2     0.900000E-01   1.00800           0
      1960 MEMB     27       CHL1     H11B     HGA2     0.900000E-01   1.00800           0
      1961 MEMB     27       CHL1     C9       CRL1    -0.900000E-01   12.0110           0
      1962 MEMB     27       CHL1     H9       HGA1     0.900000E-01   1.00800           0
      1963 MEMB     27       CHL1     C10      CRL1      0.00000       12.0110           0
      1964 MEMB     27       CHL1     C19      CTL3    -0.270000       12.0110           0
      1965 MEMB     27       CHL1     H19A     HAL3     0.900000E-01   1.00800           0
      1966 MEMB     27       CHL1     H19B     HAL3     0.900000E-01   1.00800           0
      1967 MEMB     27       CHL1     H19C     HAL3     0.900000E-01   1.00800           0
      1968 MEMB     27       CHL1     C1       CRL2    -0.180000       12.0110           0
      1969 MEMB     27       CHL1     H1A      HGA2     0.900000E-01   1.00800           0
      1970 MEMB     27       CHL1     H1B      HGA2     0.900000E-01   1.00800           0
      1971 MEMB     27       CHL1     C2       CRL2    -0.180000       12.0110           0
      1972 MEMB     27       CHL1     H2A      HGA2     0.900000E-01   1.00800           0
      1973 MEMB     27       CHL1     H2B      HGA2     0.900000E-01   1.00800           0
      1974 MEMB     27       CHL1     C20      CTL1    -0.900000E-01   12.0110           0
      1975 MEMB     27       CHL1     H20      HAL1     0.900000E-01   1.00800           0
      1976 MEMB     27       CHL1     C21      CTL3    -0.270000       12.0110           0
      1977 MEMB     27       CHL1     H21A     HAL3     0.900000E-01   1.00800           0
      1978 MEMB     27       CHL1     H21B     HAL3     0.900000E-01   1.00800           0
      1979 MEMB     27       CHL1     H21C     HAL3     0.900000E-01   1.00800           0
      1980 MEMB     27       CHL1     C22      CTL2    -0.180000       12.0110           0
      1981 MEMB     27       CHL1     H22A     HAL2     0.900000E-01   1.00800           0
      1982 MEMB     27       CHL1     H22B     HAL2     0.900000E-01   1.00800           0
      1983 MEMB     27       CHL1     C23      CTL2    -0.180000       12.0110           0
      1984 MEMB     27       CHL1     H23A     HAL2     0.900000E-01   1.00800           0
      1985 MEMB     27       CHL1     H23B     HAL2     0.900000E-01   1.00800           0
      1986 MEMB     27       CHL1     C24      CTL2    -0.180000       12.0110           0
      1987 MEMB     27       CHL1     H24A     HAL2     0.900000E-01   1.00800           0
      1988 MEMB     27       CHL1     H24B     HAL2     0.900000E-01   1.00800           0
      1989 MEMB     27       CHL1     C25      CTL1    -0.900000E-01   12.0110           0
      1990 MEMB     27       CHL1     H25      HAL1     0.900000E-01   1.00800           0
      1991 MEMB     27       CHL1     C26      CTL3    -0.270000       12.0110           0
      1992 MEMB     27       CHL1     H26A     HAL3     0.900000E-01   1.00800           0
      1993 MEMB     27       CHL1     H26B     HAL3     0.900000E-01   1.00800           0
      1994 MEMB     27       CHL1     H26C     HAL3     0.900000E-01   1.00800           0
      1995 MEMB     27       CHL1     C27      CTL3    -0.270000       12.0110           0
      1996 MEMB     27       CHL1     H27A     HAL3     0.900000E-01   1.00800           0
      1997 MEMB     27       CHL1     H27B     HAL3     0.900000E-01   1.00800           0
      1998 MEMB     27       CHL1     H27C     HAL3     0.900000E-01   1.00800           0
      1999 MEMB     28       CHL1     C3       CRL1     0.140000       12.0110           0
      2000 MEMB     28       CHL1     H3       HGA1     0.900000E-01   1.00800           0
      2001 MEMB     28       CHL1     O3       OHL     -0.660000       15.9994           0
      2002 MEMB     28       CHL1     H3'      HOL      0.430000       1.00800           0
      2003 MEMB     28       CHL1     C4       CRL2    -0.180000       12.0110           0
      2004 MEMB     28       CHL1     H4A      HGA2     0.900000E-01   1.00800           0
      2005 MEMB     28       CHL1     H4B      HGA2     0.900000E-01   1.00800           0
      2006 MEMB     28       CHL1     C5       CEL1      0.00000       12.0110           0
      2007 MEMB     28       CHL1     C6       CEL1    -0.150000       12.0110           0
      2008 MEMB     28       CHL1     H6       HEL1     0.150000       1.00800           0
      2009 MEMB     28       CHL1     C7       CRL2    -0.180000       12.0110           0
      2010 MEMB     28       CHL1     H7A      HGA2     0.900000E-01   1.00800           0
      2011 MEMB     28       CHL1     H7B      HGA2     0.900000E-01   1.00800           0
      2012 MEMB     28       CHL1     C8       CRL1    -0.900000E-01   12.0110           0
      2013 MEMB     28       CHL1     H8       HGA1     0.900000E-01   1.00800           0
      2014 MEMB     28       CHL1     C14      CRL1    -0.900000E-01   12.0110           0
      2015 MEMB     28       CHL1     H14      HGA1     0.900000E-01   1.00800           0
      2016 MEMB     28       CHL1     C15      CRL2    -0.180000       12.0110           0
      2017 MEMB     28       CHL1     H15A     HGA2     0.900000E-01   1.00800           0
      2018 MEMB     28       CHL1     H15B     HGA2     0.900000E-01   1.00800           0
      2019 MEMB     28       CHL1     C16      CRL2    -0.180000       12.0110           0
      2020 MEMB     28       CHL1     H16A     HGA2     0.900000E-01   1.00800           0
      2021 MEMB     28       CHL1     H16B     HGA2     0.900000E-01   1.00800           0
      2022 MEMB     28       CHL1     C17      CRL1    -0.900000E-01   12.0110           0
      2023 MEMB     28       CHL1     H17      HGA1     0.900000E-01   1.00800           0
      2024 MEMB     28       CHL1     C13      CRL1      0.00000       12.0110           0
      2025 MEMB     28       CHL1     C18      CTL3    -0.270000       12.0110           0
      2026 MEMB     28       CHL1     H18A     HAL3     0.900000E-01   1.00800           0
      2027 MEMB     28       CHL1     H18B     HAL3     0.900000E-01   1.00800           0
      2028 MEMB     28       CHL1     H18C     HAL3     0.900000E-01   1.00800           0
      2029 MEMB     28       CHL1     C12      CRL2    -0.180000       12.0110           0
      2030 MEMB     28       CHL1     H12A     HGA2     0.900000E-01   1.00800           0
      2031 MEMB     28       CHL1     H12B     HGA2     0.900000E-01   1.00800           0
      2032 MEMB     28       CHL1     C11      CRL2    -0.180000       12.0110           0
      2033 MEMB     28       CHL1     H11A     HGA2     0.900000E-01   1.00800           0
      2034 MEMB     28       CHL1     H11B     HGA2     0.900000E-01   1.00800           0
      2035 MEMB     28       CHL1     C9       CRL1    -0.900000E-01   12.0110           0
      2036 MEMB     28       CHL1     H9       HGA1     0.900000E-01   1.00800           0
      2037 MEMB     28       CHL1     C10      CRL1      0.00000       12.0110           0
      2038 MEMB     28       CHL1     C19      CTL3    -0.270000       12.0110           0
      2039 MEMB     28       CHL1     H19A     HAL3     0.900000E-01   1.00800           0
      2040 MEMB     28       CHL1     H19B     HAL3     0.900000E-01   1.00800           0
      2041 MEMB     28       CHL1     H19C     HAL3     0.900000E-01   1.00800           0
      2042 MEMB     28       CHL1     C1       CRL2    -0.180000       12.0110           0
      2043 MEMB     28       CHL1     H1A      HGA2     0.900000E-01   1.00800           0
      2044 MEMB     28       CHL1     H1B      HGA2     0.900000E-01   1.00800           0
      2045 MEMB     28       CHL1     C2       CRL2    -0.180000       12.0110           0
      2046 MEMB     28       CHL1     H2A      HGA2     0.900000E-01   1.00800           0
      2047 MEMB     28       CHL1     H2B      HGA2     0.900000E-01   1.00800           0
      2048 MEMB     28       CHL1     C20      CTL1    -0.900000E-01   12.0110           0
      2049 MEMB     28       CHL1     H20      HAL1     0.900000E-01   1.00800           0
      2050 MEMB     28       CHL1     C21      CTL3    -0.270000       12.0110           0
      2051 MEMB     28       CHL1     H21A     HAL3     0.900000E-01   1.00800           0
      2052 MEMB     28       CHL1     H21B     HAL3     0.900000E-01   1.00800           0
      2053 MEMB     28       CHL1     H21C     HAL3     0.900000E-01   1.00800           0
      2054 MEMB     28       CHL1     C22      CTL2    -0.180000       12.0110           0
      2055 MEMB     28       CHL1     H22A     HAL2     0.900000E-01   1.00800           0
      2056 MEMB     28       CHL1     H22B     HAL2     0.900000E-01   1.00800           0
      2057 MEMB     28       CHL1     C23      CTL2    -0.180000       12.0110           0
      2058 MEMB     28       CHL1     H23A     HAL2     0.900000E-01   1.00800           0
      2059 MEMB     28       CHL1     H23B     HAL2     0.900000E-01   1.00800           0
      2060 MEMB     28       CHL1     C24      CTL2    -0.180000       12.0110           0
      2061 MEMB     28       CHL1     H24A     HAL2     0.900000E-01   1.00800           0
      2062 MEMB     28       CHL1     H24B     HAL2     0.900000E-01   1.00800           0
      2063 MEMB     28       CHL1     C25      CTL1    -0.900000E-01   12.0110           0
      2064 MEMB     28       CHL1     H25      HAL1     0.900000E-01   1.00800           0
      2065 MEMB     28       CHL1     C26      CTL3    -0.270000       12.0110           0
      2066 MEMB     28       CHL1     H26A     HAL3     0.900000E-01   1.00800           0
      2067 MEMB     28       CHL1     H26B     HAL3     0.900000E-01   1.00800           0
      2068 MEMB     28       CHL1     H26C     HAL3     0.900000E-01   1.00800           0
      2069 MEMB     28       CHL1     C27      CTL3    -0.270000       12.0110           0
      2070 MEMB     28       CHL1     H27A     HAL3     0.900000E-01   1.00800           0
      2071 MEMB     28       CHL1     H27B     HAL3     0.900000E-01   1.00800           0
      2072 MEMB     28       CHL1     H27C     HAL3     0.900000E-01   1.00800           0
      2073 MEMB     29       CHL1     C3       CRL1     0.140000       12.0110           0
      2074 MEMB     29       CHL1     H3       HGA1     0.900000E-01   1.00800           0
      2075 MEMB     29       CHL1     O3       OHL     -0.660000       15.9994           0
      2076 MEMB     29       CHL1     H3'      HOL      0.430000       1.00800           0
      2077 MEMB     29       CHL1     C4       CRL2    -0.180000       12.0110           0
      2078 MEMB     29       CHL1     H4A      HGA2     0.900000E-01   1.00800           0
      2079 MEMB     29       CHL1     H4B      HGA2     0.900000E-01   1.00800           0
      2080 MEMB     29       CHL1     C5       CEL1      0.00000       12.0110           0
      2081 MEMB     29       CHL1     C6       CEL1    -0.150000       12.0110           0
      2082 MEMB     29       CHL1     H6       HEL1     0.150000       1.00800           0
      2083 MEMB     29       CHL1     C7       CRL2    -0.180000       12.0110           0
      2084 MEMB     29       CHL1     H7A      HGA2     0.900000E-01   1.00800           0
      2085 MEMB     29       CHL1     H7B      HGA2     0.900000E-01   1.00800           0
      2086 MEMB     29       CHL1     C8       CRL1    -0.900000E-01   12.0110           0
      2087 MEMB     29       CHL1     H8       HGA1     0.900000E-01   1.00800           0
      2088 MEMB     29       CHL1     C14      CRL1    -0.900000E-01   12.0110           0
      2089 MEMB     29       CHL1     H14      HGA1     0.900000E-01   1.00800           0
      2090 MEMB     29       CHL1     C15      CRL2    -0.180000       12.0110           0
      2091 MEMB     29       CHL1     H15A     HGA2     0.900000E-01   1.00800           0
      2092 MEMB     29       CHL1     H15B     HGA2     0.900000E-01   1.00800           0
      2093 MEMB     29       CHL1     C16      CRL2    -0.180000       12.0110           0
      2094 MEMB     29       CHL1     H16A     HGA2     0.900000E-01   1.00800           0
      2095 MEMB     29       CHL1     H16B     HGA2     0.900000E-01   1.00800           0
      2096 MEMB     29       CHL1     C17      CRL1    -0.900000E-01   12.0110           0
      2097 MEMB     29       CHL1     H17      HGA1     0.900000E-01   1.00800           0
      2098 MEMB     29       CHL1     C13      CRL1      0.00000       12.0110           0
      2099 MEMB     29       CHL1     C18      CTL3    -0.270000       12.0110           0
      2100 MEMB     29       CHL1     H18A     HAL3     0.900000E-01   1.00800           0
      2101 MEMB     29       CHL1     H18B     HAL3     0.900000E-01   1.00800           0
      2102 MEMB     29       CHL1     H18C     HAL3     0.900000E-01   1.00800           0
      2103 MEMB     29       CHL1     C12      CRL2    -0.180000       12.0110           0
      2104 MEMB     29       CHL1     H12A     HGA2     0.900000E-01   1.00800           0
      2105 MEMB     29       CHL1     H12B     HGA2     0.900000E-01   1.00800           0
      2106 MEMB     29       CHL1     C11      CRL2    -0.180000       12.0110           0
      2107 MEMB     29       CHL1     H11A     HGA2     0.900000E-01   1.00800           0
      2108 MEMB     29       CHL1     H11B     HGA2     0.900000E-01   1.00800           0
      2109 MEMB     29       CHL1     C9       CRL1    -0.900000E-01   12.0110           0
      2110 MEMB     29       CHL1     H9       HGA1     0.900000E-01   1.00800           0
      2111 MEMB     29       CHL1     C10      CRL1      0.00000       12.0110           0
      2112 MEMB     29       CHL1     C19      CTL3    -0.270000       12.0110           0
      2113 MEMB     29       CHL1     H19A     HAL3     0.900000E-01   1.00800           0
      2114 MEMB     29       CHL1     H19B     HAL3     0.900000E-01   1.00800           0
      2115 MEMB     29       CHL1     H19C     HAL3     0.900000E-01   1.00800           0
      2116 MEMB     29       CHL1     C1       CRL2    -0.180000       12.0110           0
      2117 MEMB     29       CHL1     H1A      HGA2     0.900000E-01   1.00800           0
      2118 MEMB     29       CHL1     H1B      HGA2     0.900000E-01   1.00800           0
      2119 MEMB     29       CHL1     C2       CRL2    -0.180000       12.0110           0
      2120 MEMB     29       CHL1     H2A      HGA2     0.900000E-01   1.00800           0
      2121 MEMB     29       CHL1     H2B      HGA2     0.900000E-01   1.00800           0
      2122 MEMB     29       CHL1     C20      CTL1    -0.900000E-01   12.0110           0
      2123 MEMB     29       CHL1     H20      HAL1     0.900000E-01   1.00800           0
      2124 MEMB     29       CHL1     C21      CTL3    -0.270000       12.0110           0
      2125 MEMB     29       CHL1     H21A     HAL3     0.900000E-01   1.00800           0
      2126 MEMB     29       CHL1     H21B     HAL3     0.900000E-01   1.00800           0
      2127 MEMB     29       CHL1     H21C     HAL3     0.900000E-01   1.00800           0
      2128 MEMB     29       CHL1     C22      CTL2    -0.180000       12.0110           0
      2129 MEMB     29       CHL1     H22A     HAL2     0.900000E-01   1.00800           0
      2130 MEMB     29       CHL1     H22B     HAL2     0.900000E-01   1.00800           0
      2131 MEMB     29       CHL1     C23      CTL2    -0.180000       12.0110           0
      2132 MEMB     29       CHL1     H23A     HAL2     0.900000E-01   1.00800           0
      2133 MEMB     29       CHL1     H23B     HAL2     0.900000E-01   1.00800           0
      2134 MEMB     29       CHL1     C24      CTL2    -0.180000       12.0110           0
      2135 MEMB     29       CHL1     H24A     HAL2     0.900000E-01   1.00800           0
      2136 MEMB     29       CHL1     H24B     HAL2     0.900000E-01   1.00800           0
      2137 MEMB     29       CHL1     C25      CTL1    -0.900000E-01   12.0110           0
      2138 MEMB     29       CHL1     H25      HAL1     0.900000E-01   1.00800           0
      2139 MEMB     29       CHL1     C26      CTL3    -0.270000       12.0110           0
      2140 MEMB     29       CHL1     H26A     HAL3     0.900000E-01   1.00800           0
      2141 MEMB     29       CHL1     H26B     HAL3     0.900000E-01   1.00800           0
      2142 MEMB     29       CHL1     H26C     HAL3     0.900000E-01   1.00800           0
      2143 MEMB     29       CHL1     C27      CTL3    -0.270000       12.0110           0
      2144 MEMB     29       CHL1     H27A     HAL3     0.900000E-01   1.00800           0
      2145 MEMB     29       CHL1     H27B     HAL3     0.900000E-01   1.00800           0
      2146 MEMB     29       CHL1     H27C     HAL3     0.900000E-01   1.00800           0
      2147 MEMB     30       CHL1     C3       CRL1     0.140000       12.0110           0
      2148 MEMB     30       CHL1     H3       HGA1     0.900000E-01   1.00800           0
      2149 MEMB     30       CHL1     O3       OHL     -0.660000       15.9994           0
      2150 MEMB     30       CHL1     H3'      HOL      0.430000       1.00800           0
      2151 MEMB     30       CHL1     C4       CRL2    -0.180000       12.0110           0
      2152 MEMB     30       CHL1     H4A      HGA2     0.900000E-01   1.00800           0
      2153 MEMB     30       CHL1     H4B      HGA2     0.900000E-01   1.00800           0
      2154 MEMB     30       CHL1     C5       CEL1      0.00000       12.0110           0
      2155 MEMB     30       CHL1     C6       CEL1    -0.150000       12.0110           0
      2156 MEMB     30       CHL1     H6       HEL1     0.150000       1.00800           0
      2157 MEMB     30       CHL1     C7       CRL2    -0.180000       12.0110           0
      2158 MEMB     30       CHL1     H7A      HGA2     0.900000E-01   1.00800           0
      2159 MEMB     30       CHL1     H7B      HGA2     0.900000E-01   1.00800           0
      2160 MEMB     30       CHL1     C8       CRL1    -0.900000E-01   12.0110           0
      2161 MEMB     30       CHL1     H8       HGA1     0.900000E-01   1.00800           0
      2162 MEMB     30       CHL1     C14      CRL1    -0.900000E-01   12.0110           0
      2163 MEMB     30       CHL1     H14      HGA1     0.900000E-01   1.00800           0
      2164 MEMB     30       CHL1     C15      CRL2    -0.180000       12.0110           0
      2165 MEMB     30       CHL1     H15A     HGA2     0.900000E-01   1.00800           0
      2166 MEMB     30       CHL1     H15B     HGA2     0.900000E-01   1.00800           0
      2167 MEMB     30       CHL1     C16      CRL2    -0.180000       12.0110           0
      2168 MEMB     30       CHL1     H16A     HGA2     0.900000E-01   1.00800           0
      2169 MEMB     30       CHL1     H16B     HGA2     0.900000E-01   1.00800           0
      2170 MEMB     30       CHL1     C17      CRL1    -0.900000E-01   12.0110           0
      2171 MEMB     30       CHL1     H17      HGA1     0.900000E-01   1.00800           0
      2172 MEMB     30       CHL1     C13      CRL1      0.00000       12.0110           0
      2173 MEMB     30       CHL1     C18      CTL3    -0.270000       12.0110           0
      2174 MEMB     30       CHL1     H18A     HAL3     0.900000E-01   1.00800           0
      2175 MEMB     30       CHL1     H18B     HAL3     0.900000E-01   1.00800           0
      2176 MEMB     30       CHL1     H18C     HAL3     0.900000E-01   1.00800           0
      2177 MEMB     30       CHL1     C12      CRL2    -0.180000       12.0110           0
      2178 MEMB     30       CHL1     H12A     HGA2     0.900000E-01   1.00800           0
      2179 MEMB     30       CHL1     H12B     HGA2     0.900000E-01   1.00800           0
      2180 MEMB     30       CHL1     C11      CRL2    -0.180000       12.0110           0
      2181 MEMB     30       CHL1     H11A     HGA2     0.900000E-01   1.00800           0
      2182 MEMB     30       CHL1     H11B     HGA2     0.900000E-01   1.00800           0
      2183 MEMB     30       CHL1     C9       CRL1    -0.900000E-01   12.0110           0
      2184 MEMB     30       CHL1     H9       HGA1     0.900000E-01   1.00800           0
      2185 MEMB     30       CHL1     C10      CRL1      0.00000       12.0110           0
      2186 MEMB     30       CHL1     C19      CTL3    -0.270000       12.0110           0
      2187 MEMB     30       CHL1     H19A     HAL3     0.900000E-01   1.00800           0
      2188 MEMB     30       CHL1     H19B     HAL3     0.900000E-01   1.00800           0
      2189 MEMB     30       CHL1     H19C     HAL3     0.900000E-01   1.00800           0
      2190 MEMB     30       CHL1     C1       CRL2    -0.180000       12.0110           0
      2191 MEMB     30       CHL1     H1A      HGA2     0.900000E-01   1.00800           0
      2192 MEMB     30       CHL1     H1B      HGA2     0.900000E-01   1.00800           0
      2193 MEMB     30       CHL1     C2       CRL2    -0.180000       12.0110           0
      2194 MEMB     30       CHL1     H2A      HGA2     0.900000E-01   1.00800           0
      2195 MEMB     30       CHL1     H2B      HGA2     0.900000E-01   1.00800           0
      2196 MEMB     30       CHL1     C20      CTL1    -0.900000E-01   12.0110           0
      2197 MEMB     30       CHL1     H20      HAL1     0.900000E-01   1.00800           0
      2198 MEMB     30       CHL1     C21      CTL3    -0.270000       12.0110           0
      2199 MEMB     30       CHL1     H21A     HAL3     0.900000E-01   1.00800           0
      2200 MEMB     30       CHL1     H21B     HAL3     0.900000E-01   1.00800           0
      2201 MEMB     30       CHL1     H21C     HAL3     0.900000E-01   1.00800           0
      2202 MEMB     30       CHL1     C22      CTL2    -0.180000       12.0110           0
      2203 MEMB     30       CHL1     H22A     HAL2     0.900000E-01   1.00800           0
      2204 MEMB     30       CHL1     H22B     HAL2     0.900000E-01   1.00800           0
      2205 MEMB     30       CHL1     C23      CTL2    -0.180000       12.0110           0
      2206 MEMB     30       CHL1     H23A     HAL2     0.900000E-01   1.00800           0
      2207 MEMB     30       CHL1     H23B     HAL2     0.900000E-01   1.00800           0
      2208 MEMB     30       CHL1     C24      CTL2    -0.180000       12.0110           0
      2209 MEMB     30       CHL1     H24A     HAL2     0.900000E-01   1.00800           0
      2210 MEMB     30       CHL1     H24B     HAL2     0.900000E-01   1.00800           0
      2211 MEMB     30       CHL1     C25      CTL1    -0.900000E-01   12.0110           0
      2212 MEMB     30       CHL1     H25      HAL1     0.900000E-01   1.00800           0
      2213 MEMB     30       CHL1     C26      CTL3    -0.270000       12.0110           0
      2214 MEMB     30       CHL1     H26A     HAL3     0.900000E-01   1.00800           0
      2215 MEMB     30       CHL1     H26B     HAL3     0.900000E-01   1.00800           0
      2216 MEMB     30       CHL1     H26C     HAL3     0.900000E-01   1.00800           0
      2217 MEMB     30       CHL1     C27      CTL3    -0.270000       12.0110           0
      2218 MEMB     30       CHL1     H27A     HAL3     0.900000E-01   1.00800           0
      2219 MEMB     30       CHL1     H27B     HAL3     0.900000E-01   1.00800           0
      2220 MEMB     30       CHL1     H27C     HAL3     0.900000E-01   1.00800           0
      2221 MEMB     31       CHL1     C3       CRL1     0.140000       12.0110           0
      2222 MEMB     31       CHL1     H3       HGA1     0.900000E-01   1.00800           0
      2223 MEMB     31       CHL1     O3       OHL     -0.660000       15.9994           0
      2224 MEMB     31       CHL1     H3'      HOL      0.430000       1.00800           0
      2225 MEMB     31       CHL1     C4       CRL2    -0.180000       12.0110           0
      2226 MEMB     31       CHL1     H4A      HGA2     0.900000E-01   1.00800           0
      2227 MEMB     31       CHL1     H4B      HGA2     0.900000E-01   1.00800           0
      2228 MEMB     31       CHL1     C5       CEL1      0.00000       12.0110           0
      2229 MEMB     31       CHL1     C6       CEL1    -0.150000       12.0110           0
      2230 MEMB     31       CHL1     H6       HEL1     0.150000       1.00800           0
      2231 MEMB     31       CHL1     C7       CRL2    -0.180000       12.0110           0
      2232 MEMB     31       CHL1     H7A      HGA2     0.900000E-01   1.00800           0
      2233 MEMB     31       CHL1     H7B      HGA2     0.900000E-01   1.00800           0
      2234 MEMB     31       CHL1     C8       CRL1    -0.900000E-01   12.0110           0
      2235 MEMB     31       CHL1     H8       HGA1     0.900000E-01   1.00800           0
      2236 MEMB     31       CHL1     C14      CRL1    -0.900000E-01   12.0110           0
      2237 MEMB     31       CHL1     H14      HGA1     0.900000E-01   1.00800           0
      2238 MEMB     31       CHL1     C15      CRL2    -0.180000       12.0110           0
      2239 MEMB     31       CHL1     H15A     HGA2     0.900000E-01   1.00800           0
      2240 MEMB     31       CHL1     H15B     HGA2     0.900000E-01   1.00800           0
      2241 MEMB     31       CHL1     C16      CRL2    -0.180000       12.0110           0
      2242 MEMB     31       CHL1     H16A     HGA2     0.900000E-01   1.00800           0
      2243 MEMB     31       CHL1     H16B     HGA2     0.900000E-01   1.00800           0
      2244 MEMB     31       CHL1     C17      CRL1    -0.900000E-01   12.0110           0
      2245 MEMB     31       CHL1     H17      HGA1     0.900000E-01   1.00800           0
      2246 MEMB     31       CHL1     C13      CRL1      0.00000       12.0110           0
      2247 MEMB     31       CHL1     C18      CTL3    -0.270000       12.0110           0
      2248 MEMB     31       CHL1     H18A     HAL3     0.900000E-01   1.00800           0
      2249 MEMB     31       CHL1     H18B     HAL3     0.900000E-01   1.00800           0
      2250 MEMB     31       CHL1     H18C     HAL3     0.900000E-01   1.00800           0
      2251 MEMB     31       CHL1     C12      CRL2    -0.180000       12.0110           0
      2252 MEMB     31       CHL1     H12A     HGA2     0.900000E-01   1.00800           0
      2253 MEMB     31       CHL1     H12B     HGA2     0.900000E-01   1.00800           0
      2254 MEMB     31       CHL1     C11      CRL2    -0.180000       12.0110           0
      2255 MEMB     31       CHL1     H11A     HGA2     0.900000E-01   1.00800           0
      2256 MEMB     31       CHL1     H11B     HGA2     0.900000E-01   1.00800           0
      2257 MEMB     31       CHL1     C9       CRL1    -0.900000E-01   12.0110           0
      2258 MEMB     31       CHL1     H9       HGA1     0.900000E-01   1.00800           0
      2259 MEMB     31       CHL1     C10      CRL1      0.00000       12.0110           0
      2260 MEMB     31       CHL1     C19      CTL3    -0.270000       12.0110           0
      2261 MEMB     31       CHL1     H19A     HAL3     0.900000E-01   1.00800           0
      2262 MEMB     31       CHL1     H19B     HAL3     0.900000E-01   1.00800           0
      2263 MEMB     31       CHL1     H19C     HAL3     0.900000E-01   1.00800           0
      2264 MEMB     31       CHL1     C1       CRL2    -0.180000       12.0110           0
      2265 MEMB     31       CHL1     H1A      HGA2     0.900000E-01   1.00800           0
      2266 MEMB     31       CHL1     H1B      HGA2     0.900000E-01   1.00800           0
      2267 MEMB     31       CHL1     C2       CRL2    -0.180000       12.0110           0
      2268 MEMB     31       CHL1     H2A      HGA2     0.900000E-01   1.00800           0
      2269 MEMB     31       CHL1     H2B      HGA2     0.900000E-01   1.00800           0
      2270 MEMB     31       CHL1     C20      CTL1    -0.900000E-01   12.0110           0
      2271 MEMB     31       CHL1     H20      HAL1     0.900000E-01   1.00800           0
      2272 MEMB     31       CHL1     C21      CTL3    -0.270000       12.0110           0
      2273 MEMB     31       CHL1     H21A     HAL3     0.900000E-01   1.00800           0
      2274 MEMB     31       CHL1     H21B     HAL3     0.900000E-01   1.00800           0
      2275 MEMB     31       CHL1     H21C     HAL3     0.900000E-01   1.00800           0
      2276 MEMB     31       CHL1     C22      CTL2    -0.180000       12.0110           0
      2277 MEMB     31       CHL1     H22A     HAL2     0.900000E-01   1.00800           0
      2278 MEMB     31       CHL1     H22B     HAL2     0.900000E-01   1.00800           0
      2279 MEMB     31       CHL1     C23      CTL2    -0.180000       12.0110           0
      2280 MEMB     31       CHL1     H23A     HAL2     0.900000E-01   1.00800           0
      2281 MEMB     31       CHL1     H23B     HAL2     0.900000E-01   1.00800           0
      2282 MEMB     31       CHL1     C24      CTL2    -0.180000       12.0110           0
      2283 MEMB     31       CHL1     H24A     HAL2     0.900000E-01   1.00800           0
      2284 MEMB     31       CHL1     H24B     HAL2     0.900000E-01   1.00800           0
      2285 MEMB     31       CHL1     C25      CTL1    -0.900000E-01   12.0110           0
      2286 MEMB     31       CHL1     H25      HAL1     0.900000E-01   1.00800           0
      2287 MEMB     31       CHL1     C26      CTL3    -0.270000       12.0110           0
      2288 MEMB     31       CHL1     H26A     HAL3     0.900000E-01   1.00800           0
      2289 MEMB     31       CHL1     H26B     HAL3     0.900000E-01   1.00800           0
      2290 MEMB     31       CHL1     H26C     HAL3     0.900000E-01   1.00800           0
      2291 MEMB     31       CHL1     C27      CTL3    -0.270000       12.0110           0
      2292 MEMB     31       CHL1     H27A     HAL3     0.900000E-01   1.00800           0
      2293 MEMB     31       CHL1     H27B     HAL3     0.900000E-01   1.00800           0
      2294 MEMB     31       CHL1     H27C     HAL3     0.900000E-01   1.00800           0
      2295 MEMB     32       CHL1     C3       CRL1     0.140000       12.0110           0
      2296 MEMB     32       CHL1     H3       HGA1     0.900000E-01   1.00800           0
      2297 MEMB     32       CHL1     O3       OHL     -0.660000       15.9994           0
      2298 MEMB     32       CHL1     H3'      HOL      0.430000       1.00800           0
      2299 MEMB     32       CHL1     C4       CRL2    -0.180000       12.0110           0
      2300 MEMB     32       CHL1     H4A      HGA2     0.900000E-01   1.00800           0
      2301 MEMB     32       CHL1     H4B      HGA2     0.900000E-01   1.00800           0
      2302 MEMB     32       CHL1     C5       CEL1      0.00000       12.0110           0
      2303 MEMB     32       CHL1     C6       CEL1    -0.150000       12.0110           0
      2304 MEMB     32       CHL1     H6       HEL1     0.150000       1.00800           0
      2305 MEMB     32       CHL1     C7       CRL2    -0.180000       12.0110           0
      2306 MEMB     32       CHL1     H7A      HGA2     0.900000E-01   1.00800           0
      2307 MEMB     32       CHL1     H7B      HGA2     0.900000E-01   1.00800           0
      2308 MEMB     32       CHL1     C8       CRL1    -0.900000E-01   12.0110           0
      2309 MEMB     32       CHL1     H8       HGA1     0.900000E-01   1.00800           0
      2310 MEMB     32       CHL1     C14      CRL1    -0.900000E-01   12.0110           0
      2311 MEMB     32       CHL1     H14      HGA1     0.900000E-01   1.00800           0
      2312 MEMB     32       CHL1     C15      CRL2    -0.180000       12.0110           0
      2313 MEMB     32       CHL1     H15A     HGA2     0.900000E-01   1.00800           0
      2314 MEMB     32       CHL1     H15B     HGA2     0.900000E-01   1.00800           0
      2315 MEMB     32       CHL1     C16      CRL2    -0.180000       12.0110           0
      2316 MEMB     32       CHL1     H16A     HGA2     0.900000E-01   1.00800           0
      2317 MEMB     32       CHL1     H16B     HGA2     0.900000E-01   1.00800           0
      2318 MEMB     32       CHL1     C17      CRL1    -0.900000E-01   12.0110           0
      2319 MEMB     32       CHL1     H17      HGA1     0.900000E-01   1.00800           0
      2320 MEMB     32       CHL1     C13      CRL1      0.00000       12.0110           0
      2321 MEMB     32       CHL1     C18      CTL3    -0.270000       12.0110           0
      2322 MEMB     32       CHL1     H18A     HAL3     0.900000E-01   1.00800           0
      2323 MEMB     32       CHL1     H18B     HAL3     0.900000E-01   1.00800           0
      2324 MEMB     32       CHL1     H18C     HAL3     0.900000E-01   1.00800           0
      2325 MEMB     32       CHL1     C12      CRL2    -0.180000       12.0110           0
      2326 MEMB     32       CHL1     H12A     HGA2     0.900000E-01   1.00800           0
      2327 MEMB     32       CHL1     H12B     HGA2     0.900000E-01   1.00800           0
      2328 MEMB     32       CHL1     C11      CRL2    -0.180000       12.0110           0
      2329 MEMB     32       CHL1     H11A     HGA2     0.900000E-01   1.00800           0
      2330 MEMB     32       CHL1     H11B     HGA2     0.900000E-01   1.00800           0
      2331 MEMB     32       CHL1     C9       CRL1    -0.900000E-01   12.0110           0
      2332 MEMB     32       CHL1     H9       HGA1     0.900000E-01   1.00800           0
      2333 MEMB     32       CHL1     C10      CRL1      0.00000       12.0110           0
      2334 MEMB     32       CHL1     C19      CTL3    -0.270000       12.0110           0
      2335 MEMB     32       CHL1     H19A     HAL3     0.900000E-01   1.00800           0
      2336 MEMB     32       CHL1     H19B     HAL3     0.900000E-01   1.00800           0
      2337 MEMB     32       CHL1     H19C     HAL3     0.900000E-01   1.00800           0
      2338 MEMB     32       CHL1     C1       CRL2    -0.180000       12.0110           0
      2339 MEMB     32       CHL1     H1A      HGA2     0.900000E-01   1.00800           0
      2340 MEMB     32       CHL1     H1B      HGA2     0.900000E-01   1.00800           0
      2341 MEMB     32       CHL1     C2       CRL2    -0.180000       12.0110           0
      2342 MEMB     32       CHL1     H2A      HGA2     0.900000E-01   1.00800           0
      2343 MEMB     32       CHL1     H2B      HGA2     0.900000E-01   1.00800           0
      2344 MEMB     32       CHL1     C20      CTL1    -0.900000E-01   12.0110           0
      2345 MEMB     32       CHL1     H20      HAL1     0.900000E-01   1.00800           0
      2346 MEMB     32       CHL1     C21      CTL3    -0.270000       12.0110           0
      2347 MEMB     32       CHL1     H21A     HAL3     0.900000E-01   1.00800           0
      2348 MEMB     32       CHL1     H21B     HAL3     0.900000E-01   1.00800           0
      2349 MEMB     32       CHL1     H21C     HAL3     0.900000E-01   1.00800           0
      2350 MEMB     32       CHL1     C22      CTL2    -0.180000       12.0110           0
      2351 MEMB     32       CHL1     H22A     HAL2     0.900000E-01   1.00800           0
      2352 MEMB     32       CHL1     H22B     HAL2     0.900000E-01   1.00800           0
      2353 MEMB     32       CHL1     C23      CTL2    -0.180000       12.0110           0
      2354 MEMB     32       CHL1     H23A     HAL2     0.900000E-01   1.00800           0
      2355 MEMB     32       CHL1     H23B     HAL2     0.900000E-01   1.00800           0
      2356 MEMB     32       CHL1     C24      CTL2    -0.180000       12.0110           0
      2357 MEMB     32       CHL1     H24A     HAL2     0.900000E-01   1.00800           0
      2358 MEMB     32       CHL1     H24B     HAL2     0.900000E-01   1.00800           0
      2359 MEMB     32       CHL1     C25      CTL1    -0.900000E-01   12.0110           0
      2360 MEMB     32       CHL1     H25      HAL1     0.900000E-01   1.00800           0
      2361 MEMB     32       CHL1     C26      CTL3    -0.270000       12.0110           0
      2362 MEMB     32       CHL1     H26A     HAL3     0.900000E-01   1.00800           0
      2363 MEMB     32       CHL1     H26B     HAL3     0.900000E-01   1.00800           0
      2364 MEMB     32       CHL1     H26C     HAL3     0.900000E-01   1.00800           0
      2365 MEMB     32       CHL1     C27      CTL3    -0.270000       12.0110           0
      2366 MEMB     32       CHL1     H27A     HAL3     0.900000E-01   1.00800           0
      2367 MEMB     32       CHL1     H27B     HAL3     0.900000E-01   1.00800           0
      2368 MEMB     32       CHL1     H27C     HAL3     0.900000E-01   1.00800           0
      2369 MEMB     33       CHL1     C3       CRL1     0.140000       12.0110           0
      2370 MEMB     33       CHL1     H3       HGA1     0.900000E-01   1.00800           0
      2371 MEMB     33       CHL1     O3       OHL     -0.660000       15.9994           0
      2372 MEMB     33       CHL1     H3'      HOL      0.430000       1.00800           0
      2373 MEMB     33       CHL1     C4       CRL2    -0.180000       12.0110           0
      2374 MEMB     33       CHL1     H4A      HGA2     0.900000E-01   1.00800           0
      2375 MEMB     33       CHL1     H4B      HGA2     0.900000E-01   1.00800           0
      2376 MEMB     33       CHL1     C5       CEL1      0.00000       12.0110           0
      2377 MEMB     33       CHL1     C6       CEL1    -0.150000       12.0110           0
      2378 MEMB     33       CHL1     H6       HEL1     0.150000       1.00800           0
      2379 MEMB     33       CHL1     C7       CRL2    -0.180000       12.0110           0
      2380 MEMB     33       CHL1     H7A      HGA2     0.900000E-01   1.00800           0
      2381 MEMB     33       CHL1     H7B      HGA2     0.900000E-01   1.00800           0
      2382 MEMB     33       CHL1     C8       CRL1    -0.900000E-01   12.0110           0
      2383 MEMB     33       CHL1     H8       HGA1     0.900000E-01   1.00800           0
      2384 MEMB     33       CHL1     C14      CRL1    -0.900000E-01   12.0110           0
      2385 MEMB     33       CHL1     H14      HGA1     0.900000E-01   1.00800           0
      2386 MEMB     33       CHL1     C15      CRL2    -0.180000       12.0110           0
      2387 MEMB     33       CHL1     H15A     HGA2     0.900000E-01   1.00800           0
      2388 MEMB     33       CHL1     H15B     HGA2     0.900000E-01   1.00800           0
      2389 MEMB     33       CHL1     C16      CRL2    -0.180000       12.0110           0
      2390 MEMB     33       CHL1     H16A     HGA2     0.900000E-01   1.00800           0
      2391 MEMB     33       CHL1     H16B     HGA2     0.900000E-01   1.00800           0
      2392 MEMB     33       CHL1     C17      CRL1    -0.900000E-01   12.0110           0
      2393 MEMB     33       CHL1     H17      HGA1     0.900000E-01   1.00800           0
      2394 MEMB     33       CHL1     C13      CRL1      0.00000       12.0110           0
      2395 MEMB     33       CHL1     C18      CTL3    -0.270000       12.0110           0
      2396 MEMB     33       CHL1     H18A     HAL3     0.900000E-01   1.00800           0
      2397 MEMB     33       CHL1     H18B     HAL3     0.900000E-01   1.00800           0
      2398 MEMB     33       CHL1     H18C     HAL3     0.900000E-01   1.00800           0
      2399 MEMB     33       CHL1     C12      CRL2    -0.180000       12.0110           0
      2400 MEMB     33       CHL1     H12A     HGA2     0.900000E-01   1.00800           0
      2401 MEMB     33       CHL1     H12B     HGA2     0.900000E-01   1.00800           0
      2402 MEMB     33       CHL1     C11      CRL2    -0.180000       12.0110           0
      2403 MEMB     33       CHL1     H11A     HGA2     0.900000E-01   1.00800           0
      2404 MEMB     33       CHL1     H11B     HGA2     0.900000E-01   1.00800           0
      2405 MEMB     33       CHL1     C9       CRL1    -0.900000E-01   12.0110           0
      2406 MEMB     33       CHL1     H9       HGA1     0.900000E-01   1.00800           0
      2407 MEMB     33       CHL1     C10      CRL1      0.00000       12.0110           0
      2408 MEMB     33       CHL1     C19      CTL3    -0.270000       12.0110           0
      2409 MEMB     33       CHL1     H19A     HAL3     0.900000E-01   1.00800           0
      2410 MEMB     33       CHL1     H19B     HAL3     0.900000E-01   1.00800           0
      2411 MEMB     33       CHL1     H19C     HAL3     0.900000E-01   1.00800           0
      2412 MEMB     33       CHL1     C1       CRL2    -0.180000       12.0110           0
      2413 MEMB     33       CHL1     H1A      HGA2     0.900000E-01   1.00800           0
      2414 MEMB     33       CHL1     H1B      HGA2     0.900000E-01   1.00800           0
      2415 MEMB     33       CHL1     C2       CRL2    -0.180000       12.0110           0
      2416 MEMB     33       CHL1     H2A      HGA2     0.900000E-01   1.00800           0
      2417 MEMB     33       CHL1     H2B      HGA2     0.900000E-01   1.00800           0
      2418 MEMB     33       CHL1     C20      CTL1    -0.900000E-01   12.0110           0
      2419 MEMB     33       CHL1     H20      HAL1     0.900000E-01   1.00800           0
      2420 MEMB     33       CHL1     C21      CTL3    -0.270000       12.0110           0
      2421 MEMB     33       CHL1     H21A     HAL3     0.900000E-01   1.00800           0
      2422 MEMB     33       CHL1     H21B     HAL3     0.900000E-01   1.00800           0
      2423 MEMB     33       CHL1     H21C     HAL3     0.900000E-01   1.00800           0
      2424 MEMB     33       CHL1     C22      CTL2    -0.180000       12.0110           0
      2425 MEMB     33       CHL1     H22A     HAL2     0.900000E-01   1.00800           0
      2426 MEMB     33       CHL1     H22B     HAL2     0.900000E-01   1.00800           0
      2427 MEMB     33       CHL1     C23      CTL2    -0.180000       12.0110           0
      2428 MEMB     33       CHL1     H23A     HAL2     0.900000E-01   1.00800           0
      2429 MEMB     33       CHL1     H23B     HAL2     0.900000E-01   1.00800           0
      2430 MEMB     33       CHL1     C24      CTL2    -0.180000       12.0110           0
      2431 MEMB     33       CHL1     H24A     HAL2     0.900000E-01   1.00800           0
      2432 MEMB     33       CHL1     H24B     HAL2     0.900000E-01   1.00800           0
      2433 MEMB     33       CHL1     C25      CTL1    -0.900000E-01   12.0110           0
      2434 MEMB     33       CHL1     H25      HAL1     0.900000E-01   1.00800           0
      2435 MEMB     33       CHL1     C26      CTL3    -0.270000       12.0110           0
      2436 MEMB     33       CHL1     H26A     HAL3     0.900000E-01   1.00800           0
      2437 MEMB     33       CHL1     H26B     HAL3     0.900000E-01   1.00800           0
      2438 MEMB     33       CHL1     H26C     HAL3     0.900000E-01   1.00800           0
      2439 MEMB     33       CHL1     C27      CTL3    -0.270000       12.0110           0
      2440 MEMB     33       CHL1     H27A     HAL3     0.900000E-01   1.00800           0
      2441 MEMB     33       CHL1     H27B     HAL3     0.900000E-01   1.00800           0
      2442 MEMB     33       CHL1     H27C     HAL3     0.900000E-01   1.00800           0
      2443 MEMB     34       CHL1     C3       CRL1     0.140000       12.0110           0
      2444 MEMB     34       CHL1     H3       HGA1     0.900000E-01   1.00800           0
      2445 MEMB     34       CHL1     O3       OHL     -0.660000       15.9994           0
      2446 MEMB     34       CHL1     H3'      HOL      0.430000       1.00800           0
      2447 MEMB     34       CHL1     C4       CRL2    -0.180000       12.0110           0
      2448 MEMB     34       CHL1     H4A      HGA2     0.900000E-01   1.00800           0
      2449 MEMB     34       CHL1     H4B      HGA2     0.900000E-01   1.00800           0
      2450 MEMB     34       CHL1     C5       CEL1      0.00000       12.0110           0
      2451 MEMB     34       CHL1     C6       CEL1    -0.150000       12.0110           0
      2452 MEMB     34       CHL1     H6       HEL1     0.150000       1.00800           0
      2453 MEMB     34       CHL1     C7       CRL2    -0.180000       12.0110           0
      2454 MEMB     34       CHL1     H7A      HGA2     0.900000E-01   1.00800           0
      2455 MEMB     34       CHL1     H7B      HGA2     0.900000E-01   1.00800           0
      2456 MEMB     34       CHL1     C8       CRL1    -0.900000E-01   12.0110           0
      2457 MEMB     34       CHL1     H8       HGA1     0.900000E-01   1.00800           0
      2458 MEMB     34       CHL1     C14      CRL1    -0.900000E-01   12.0110           0
      2459 MEMB     34       CHL1     H14      HGA1     0.900000E-01   1.00800           0
      2460 MEMB     34       CHL1     C15      CRL2    -0.180000       12.0110           0
      2461 MEMB     34       CHL1     H15A     HGA2     0.900000E-01   1.00800           0
      2462 MEMB     34       CHL1     H15B     HGA2     0.900000E-01   1.00800           0
      2463 MEMB     34       CHL1     C16      CRL2    -0.180000       12.0110           0
      2464 MEMB     34       CHL1     H16A     HGA2     0.900000E-01   1.00800           0
      2465 MEMB     34       CHL1     H16B     HGA2     0.900000E-01   1.00800           0
      2466 MEMB     34       CHL1     C17      CRL1    -0.900000E-01   12.0110           0
      2467 MEMB     34       CHL1     H17      HGA1     0.900000E-01   1.00800           0
      2468 MEMB     34       CHL1     C13      CRL1      0.00000       12.0110           0
      2469 MEMB     34       CHL1     C18      CTL3    -0.270000       12.0110           0
      2470 MEMB     34       CHL1     H18A     HAL3     0.900000E-01   1.00800           0
      2471 MEMB     34       CHL1     H18B     HAL3     0.900000E-01   1.00800           0
      2472 MEMB     34       CHL1     H18C     HAL3     0.900000E-01   1.00800           0
      2473 MEMB     34       CHL1     C12      CRL2    -0.180000       12.0110           0
      2474 MEMB     34       CHL1     H12A     HGA2     0.900000E-01   1.00800           0
      2475 MEMB     34       CHL1     H12B     HGA2     0.900000E-01   1.00800           0
      2476 MEMB     34       CHL1     C11      CRL2    -0.180000       12.0110           0
      2477 MEMB     34       CHL1     H11A     HGA2     0.900000E-01   1.00800           0
      2478 MEMB     34       CHL1     H11B     HGA2     0.900000E-01   1.00800           0
      2479 MEMB     34       CHL1     C9       CRL1    -0.900000E-01   12.0110           0
      2480 MEMB     34       CHL1     H9       HGA1     0.900000E-01   1.00800           0
      2481 MEMB     34       CHL1     C10      CRL1      0.00000       12.0110           0
      2482 MEMB     34       CHL1     C19      CTL3    -0.270000       12.0110           0
      2483 MEMB     34       CHL1     H19A     HAL3     0.900000E-01   1.00800           0
      2484 MEMB     34       CHL1     H19B     HAL3     0.900000E-01   1.00800           0
      2485 MEMB     34       CHL1     H19C     HAL3     0.900000E-01   1.00800           0
      2486 MEMB     34       CHL1     C1       CRL2    -0.180000       12.0110           0
      2487 MEMB     34       CHL1     H1A      HGA2     0.900000E-01   1.00800           0
      2488 MEMB     34       CHL1     H1B      HGA2     0.900000E-01   1.00800           0
      2489 MEMB     34       CHL1     C2       CRL2    -0.180000       12.0110           0
      2490 MEMB     34       CHL1     H2A      HGA2     0.900000E-01   1.00800           0
      2491 MEMB     34       CHL1     H2B      HGA2     0.900000E-01   1.00800           0
      2492 MEMB     34       CHL1     C20      CTL1    -0.900000E-01   12.0110           0
      2493 MEMB     34       CHL1     H20      HAL1     0.900000E-01   1.00800           0
      2494 MEMB     34       CHL1     C21      CTL3    -0.270000       12.0110           0
      2495 MEMB     34       CHL1     H21A     HAL3     0.900000E-01   1.00800           0
      2496 MEMB     34       CHL1     H21B     HAL3     0.900000E-01   1.00800           0
      2497 MEMB     34       CHL1     H21C     HAL3     0.900000E-01   1.00800           0
      2498 MEMB     34       CHL1     C22      CTL2    -0.180000       12.0110           0
      2499 MEMB     34       CHL1     H22A     HAL2     0.900000E-01   1.00800           0
      2500 MEMB     34       CHL1     H22B     HAL2     0.900000E-01   1.00800           0
      2501 MEMB     34       CHL1     C23      CTL2    -0.180000       12.0110           0
      2502 MEMB     34       CHL1     H23A     HAL2     0.900000E-01   1.00800           0
      2503 MEMB     34       CHL1     H23B     HAL2     0.900000E-01   1.00800           0
      2504 MEMB     34       CHL1     C24      CTL2    -0.180000       12.0110           0
      2505 MEMB     34       CHL1     H24A     HAL2     0.900000E-01   1.00800           0
      2506 MEMB     34       CHL1     H24B     HAL2     0.900000E-01   1.00800           0
      2507 MEMB     34       CHL1     C25      CTL1    -0.900000E-01   12.0110           0
      2508 MEMB     34       CHL1     H25      HAL1     0.900000E-01   1.00800           0
      2509 MEMB     34       CHL1     C26      CTL3    -0.270000       12.0110           0
      2510 MEMB     34       CHL1     H26A     HAL3     0.900000E-01   1.00800           0
      2511 MEMB     34       CHL1     H26B     HAL3     0.900000E-01   1.00800           0
      2512 MEMB     34       CHL1     H26C     HAL3     0.900000E-01   1.00800           0
      2513 MEMB     34       CHL1     C27      CTL3    -0.270000       12.0110           0
      2514 MEMB     34       CHL1     H27A     HAL3     0.900000E-01   1.00800           0
      2515 MEMB     34       CHL1     H27B     HAL3     0.900000E-01   1.00800           0
      2516 MEMB     34       CHL1     H27C     HAL3     0.900000E-01   1.00800           0
      2517 MEMB     35       CHL1     C3       CRL1     0.140000       12.0110           0
      2518 MEMB     35       CHL1     H3       HGA1     0.900000E-01   1.00800           0
      2519 MEMB     35       CHL1     O3       OHL     -0.660000       15.9994           0
      2520 MEMB     35       CHL1     H3'      HOL      0.430000       1.00800           0
      2521 MEMB     35       CHL1     C4       CRL2    -0.180000       12.0110           0
      2522 MEMB     35       CHL1     H4A      HGA2     0.900000E-01   1.00800           0
      2523 MEMB     35       CHL1     H4B      HGA2     0.900000E-01   1.00800           0
      2524 MEMB     35       CHL1     C5       CEL1      0.00000       12.0110           0
      2525 MEMB     35       CHL1     C6       CEL1    -0.150000       12.0110           0
      2526 MEMB     35       CHL1     H6       HEL1     0.150000       1.00800           0
      2527 MEMB     35       CHL1     C7       CRL2    -0.180000       12.0110           0
      2528 MEMB     35       CHL1     H7A      HGA2     0.900000E-01   1.00800           0
      2529 MEMB     35       CHL1     H7B      HGA2     0.900000E-01   1.00800           0
      2530 MEMB     35       CHL1     C8       CRL1    -0.900000E-01   12.0110           0
      2531 MEMB     35       CHL1     H8       HGA1     0.900000E-01   1.00800           0
      2532 MEMB     35       CHL1     C14      CRL1    -0.900000E-01   12.0110           0
      2533 MEMB     35       CHL1     H14      HGA1     0.900000E-01   1.00800           0
      2534 MEMB     35       CHL1     C15      CRL2    -0.180000       12.0110           0
      2535 MEMB     35       CHL1     H15A     HGA2     0.900000E-01   1.00800           0
      2536 MEMB     35       CHL1     H15B     HGA2     0.900000E-01   1.00800           0
      2537 MEMB     35       CHL1     C16      CRL2    -0.180000       12.0110           0
      2538 MEMB     35       CHL1     H16A     HGA2     0.900000E-01   1.00800           0
      2539 MEMB     35       CHL1     H16B     HGA2     0.900000E-01   1.00800           0
      2540 MEMB     35       CHL1     C17      CRL1    -0.900000E-01   12.0110           0
      2541 MEMB     35       CHL1     H17      HGA1     0.900000E-01   1.00800           0
      2542 MEMB     35       CHL1     C13      CRL1      0.00000       12.0110           0
      2543 MEMB     35       CHL1     C18      CTL3    -0.270000       12.0110           0
      2544 MEMB     35       CHL1     H18A     HAL3     0.900000E-01   1.00800           0
      2545 MEMB     35       CHL1     H18B     HAL3     0.900000E-01   1.00800           0
      2546 MEMB     35       CHL1     H18C     HAL3     0.900000E-01   1.00800           0
      2547 MEMB     35       CHL1     C12      CRL2    -0.180000       12.0110           0
      2548 MEMB     35       CHL1     H12A     HGA2     0.900000E-01   1.00800           0
      2549 MEMB     35       CHL1     H12B     HGA2     0.900000E-01   1.00800           0
      2550 MEMB     35       CHL1     C11      CRL2    -0.180000       12.0110           0
      2551 MEMB     35       CHL1     H11A     HGA2     0.900000E-01   1.00800           0
      2552 MEMB     35       CHL1     H11B     HGA2     0.900000E-01   1.00800           0
      2553 MEMB     35       CHL1     C9       CRL1    -0.900000E-01   12.0110           0
      2554 MEMB     35       CHL1     H9       HGA1     0.900000E-01   1.00800           0
      2555 MEMB     35       CHL1     C10      CRL1      0.00000       12.0110           0
      2556 MEMB     35       CHL1     C19      CTL3    -0.270000       12.0110           0
      2557 MEMB     35       CHL1     H19A     HAL3     0.900000E-01   1.00800           0
      2558 MEMB     35       CHL1     H19B     HAL3     0.900000E-01   1.00800           0
      2559 MEMB     35       CHL1     H19C     HAL3     0.900000E-01   1.00800           0
      2560 MEMB     35       CHL1     C1       CRL2    -0.180000       12.0110           0
      2561 MEMB     35       CHL1     H1A      HGA2     0.900000E-01   1.00800           0
      2562 MEMB     35       CHL1     H1B      HGA2     0.900000E-01   1.00800           0
      2563 MEMB     35       CHL1     C2       CRL2    -0.180000       12.0110           0
      2564 MEMB     35       CHL1     H2A      HGA2     0.900000E-01   1.00800           0
      2565 MEMB     35       CHL1     H2B      HGA2     0.900000E-01   1.00800           0
      2566 MEMB     35       CHL1     C20      CTL1    -0.900000E-01   12.0110           0
      2567 MEMB     35       CHL1     H20      HAL1     0.900000E-01   1.00800           0
      2568 MEMB     35       CHL1     C21      CTL3    -0.270000       12.0110           0
      2569 MEMB     35       CHL1     H21A     HAL3     0.900000E-01   1.00800           0
      2570 MEMB     35       CHL1     H21B     HAL3     0.900000E-01   1.00800           0
      2571 MEMB     35       CHL1     H21C     HAL3     0.900000E-01   1.00800           0
      2572 MEMB     35       CHL1     C22      CTL2    -0.180000       12.0110           0
      2573 MEMB     35       CHL1     H22A     HAL2     0.900000E-01   1.00800           0
      2574 MEMB     35       CHL1     H22B     HAL2     0.900000E-01   1.00800           0
      2575 MEMB     35       CHL1     C23      CTL2    -0.180000       12.0110           0
      2576 MEMB     35       CHL1     H23A     HAL2     0.900000E-01   1.00800           0
      2577 MEMB     35       CHL1     H23B     HAL2     0.900000E-01   1.00800           0
      2578 MEMB     35       CHL1     C24      CTL2    -0.180000       12.0110           0
      2579 MEMB     35       CHL1     H24A     HAL2     0.900000E-01   1.00800           0
      2580 MEMB     35       CHL1     H24B     HAL2     0.900000E-01   1.00800           0
      2581 MEMB     35       CHL1     C25      CTL1    -0.900000E-01   12.0110           0
      2582 MEMB     35       CHL1     H25      HAL1     0.900000E-01   1.00800           0
      2583 MEMB     35       CHL1     C26      CTL3    -0.270000       12.0110           0
      2584 MEMB     35       CHL1     H26A     HAL3     0.900000E-01   1.00800           0
      2585 MEMB     35       CHL1     H26B     HAL3     0.900000E-01   1.00800           0
      2586 MEMB     35       CHL1     H26C     HAL3     0.900000E-01   1.00800           0
      2587 MEMB     35       CHL1     C27      CTL3    -0.270000       12.0110           0
      2588 MEMB     35       CHL1     H27A     HAL3     0.900000E-01   1.00800           0
      2589 MEMB     35       CHL1     H27B     HAL3     0.900000E-01   1.00800           0
      2590 MEMB     35       CHL1     H27C     HAL3     0.900000E-01   1.00800           0
      2591 MEMB     36       CHL1     C3       CRL1     0.140000       12.0110           0
      2592 MEMB     36       CHL1     H3       HGA1     0.900000E-01   1.00800           0
      2593 MEMB     36       CHL1     O3       OHL     -0.660000       15.9994           0
      2594 MEMB     36       CHL1     H3'      HOL      0.430000       1.00800           0
      2595 MEMB     36       CHL1     C4       CRL2    -0.180000       12.0110           0
      2596 MEMB     36       CHL1     H4A      HGA2     0.900000E-01   1.00800           0
      2597 MEMB     36       CHL1     H4B      HGA2     0.900000E-01   1.00800           0
      2598 MEMB     36       CHL1     C5       CEL1      0.00000       12.0110           0
      2599 MEMB     36       CHL1     C6       CEL1    -0.150000       12.0110           0
      2600 MEMB     36       CHL1     H6       HEL1     0.150000       1.00800           0
      2601 MEMB     36       CHL1     C7       CRL2    -0.180000       12.0110           0
      2602 MEMB     36       CHL1     H7A      HGA2     0.900000E-01   1.00800           0
      2603 MEMB     36       CHL1     H7B      HGA2     0.900000E-01   1.00800           0
      2604 MEMB     36       CHL1     C8       CRL1    -0.900000E-01   12.0110           0
      2605 MEMB     36       CHL1     H8       HGA1     0.900000E-01   1.00800           0
      2606 MEMB     36       CHL1     C14      CRL1    -0.900000E-01   12.0110           0
      2607 MEMB     36       CHL1     H14      HGA1     0.900000E-01   1.00800           0
      2608 MEMB     36       CHL1     C15      CRL2    -0.180000       12.0110           0
      2609 MEMB     36       CHL1     H15A     HGA2     0.900000E-01   1.00800           0
      2610 MEMB     36       CHL1     H15B     HGA2     0.900000E-01   1.00800           0
      2611 MEMB     36       CHL1     C16      CRL2    -0.180000       12.0110           0
      2612 MEMB     36       CHL1     H16A     HGA2     0.900000E-01   1.00800           0
      2613 MEMB     36       CHL1     H16B     HGA2     0.900000E-01   1.00800           0
      2614 MEMB     36       CHL1     C17      CRL1    -0.900000E-01   12.0110           0
      2615 MEMB     36       CHL1     H17      HGA1     0.900000E-01   1.00800           0
      2616 MEMB     36       CHL1     C13      CRL1      0.00000       12.0110           0
      2617 MEMB     36       CHL1     C18      CTL3    -0.270000       12.0110           0
      2618 MEMB     36       CHL1     H18A     HAL3     0.900000E-01   1.00800           0
      2619 MEMB     36       CHL1     H18B     HAL3     0.900000E-01   1.00800           0
      2620 MEMB     36       CHL1     H18C     HAL3     0.900000E-01   1.00800           0
      2621 MEMB     36       CHL1     C12      CRL2    -0.180000       12.0110           0
      2622 MEMB     36       CHL1     H12A     HGA2     0.900000E-01   1.00800           0
      2623 MEMB     36       CHL1     H12B     HGA2     0.900000E-01   1.00800           0
      2624 MEMB     36       CHL1     C11      CRL2    -0.180000       12.0110           0
      2625 MEMB     36       CHL1     H11A     HGA2     0.900000E-01   1.00800           0
      2626 MEMB     36       CHL1     H11B     HGA2     0.900000E-01   1.00800           0
      2627 MEMB     36       CHL1     C9       CRL1    -0.900000E-01   12.0110           0
      2628 MEMB     36       CHL1     H9       HGA1     0.900000E-01   1.00800           0
      2629 MEMB     36       CHL1     C10      CRL1      0.00000       12.0110           0
      2630 MEMB     36       CHL1     C19      CTL3    -0.270000       12.0110           0
      2631 MEMB     36       CHL1     H19A     HAL3     0.900000E-01   1.00800           0
      2632 MEMB     36       CHL1     H19B     HAL3     0.900000E-01   1.00800           0
      2633 MEMB     36       CHL1     H19C     HAL3     0.900000E-01   1.00800           0
      2634 MEMB     36       CHL1     C1       CRL2    -0.180000       12.0110           0
      2635 MEMB     36       CHL1     H1A      HGA2     0.900000E-01   1.00800           0
      2636 MEMB     36       CHL1     H1B      HGA2     0.900000E-01   1.00800           0
      2637 MEMB     36       CHL1     C2       CRL2    -0.180000       12.0110           0
      2638 MEMB     36       CHL1     H2A      HGA2     0.900000E-01   1.00800           0
      2639 MEMB     36       CHL1     H2B      HGA2     0.900000E-01   1.00800           0
      2640 MEMB     36       CHL1     C20      CTL1    -0.900000E-01   12.0110           0
      2641 MEMB     36       CHL1     H20      HAL1     0.900000E-01   1.00800           0
      2642 MEMB     36       CHL1     C21      CTL3    -0.270000       12.0110           0
      2643 MEMB     36       CHL1     H21A     HAL3     0.900000E-01   1.00800           0
      2644 MEMB     36       CHL1     H21B     HAL3     0.900000E-01   1.00800           0
      2645 MEMB     36       CHL1     H21C     HAL3     0.900000E-01   1.00800           0
      2646 MEMB     36       CHL1     C22      CTL2    -0.180000       12.0110           0
      2647 MEMB     36       CHL1     H22A     HAL2     0.900000E-01   1.00800           0
      2648 MEMB     36       CHL1     H22B     HAL2     0.900000E-01   1.00800           0
      2649 MEMB     36       CHL1     C23      CTL2    -0.180000       12.0110           0
      2650 MEMB     36       CHL1     H23A     HAL2     0.900000E-01   1.00800           0
      2651 MEMB     36       CHL1     H23B     HAL2     0.900000E-01   1.00800           0
      2652 MEMB     36       CHL1     C24      CTL2    -0.180000       12.0110           0
      2653 MEMB     36       CHL1     H24A     HAL2     0.900000E-01   1.00800           0
      2654 MEMB     36       CHL1     H24B     HAL2     0.900000E-01   1.00800           0
      2655 MEMB     36       CHL1     C25      CTL1    -0.900000E-01   12.0110           0
      2656 MEMB     36       CHL1     H25      HAL1     0.900000E-01   1.00800           0
      2657 MEMB     36       CHL1     C26      CTL3    -0.270000       12.0110           0
      2658 MEMB     36       CHL1     H26A     HAL3     0.900000E-01   1.00800           0
      2659 MEMB     36       CHL1     H26B     HAL3     0.900000E-01   1.00800           0
      2660 MEMB     36       CHL1     H26C     HAL3     0.900000E-01   1.00800           0
      2661 MEMB     36       CHL1     C27      CTL3    -0.270000       12.0110           0
      2662 MEMB     36       CHL1     H27A     HAL3     0.900000E-01   1.00800           0
      2663 MEMB     36       CHL1     H27B     HAL3     0.900000E-01   1.00800           0
      2664 MEMB     36       CHL1     H27C     HAL3     0.900000E-01   1.00800           0
      2665 MEMB     37       CHL1     C3       CRL1     0.140000       12.0110           0
      2666 MEMB     37       CHL1     H3       HGA1     0.900000E-01   1.00800           0
      2667 MEMB     37       CHL1     O3       OHL     -0.660000       15.9994           0
      2668 MEMB     37       CHL1     H3'      HOL      0.430000       1.00800           0
      2669 MEMB     37       CHL1     C4       CRL2    -0.180000       12.0110           0
      2670 MEMB     37       CHL1     H4A      HGA2     0.900000E-01   1.00800           0
      2671 MEMB     37       CHL1     H4B      HGA2     0.900000E-01   1.00800           0
      2672 MEMB     37       CHL1     C5       CEL1      0.00000       12.0110           0
      2673 MEMB     37       CHL1     C6       CEL1    -0.150000       12.0110           0
      2674 MEMB     37       CHL1     H6       HEL1     0.150000       1.00800           0
      2675 MEMB     37       CHL1     C7       CRL2    -0.180000       12.0110           0
      2676 MEMB     37       CHL1     H7A      HGA2     0.900000E-01   1.00800           0
      2677 MEMB     37       CHL1     H7B      HGA2     0.900000E-01   1.00800           0
      2678 MEMB     37       CHL1     C8       CRL1    -0.900000E-01   12.0110           0
      2679 MEMB     37       CHL1     H8       HGA1     0.900000E-01   1.00800           0
      2680 MEMB     37       CHL1     C14      CRL1    -0.900000E-01   12.0110           0
      2681 MEMB     37       CHL1     H14      HGA1     0.900000E-01   1.00800           0
      2682 MEMB     37       CHL1     C15      CRL2    -0.180000       12.0110           0
      2683 MEMB     37       CHL1     H15A     HGA2     0.900000E-01   1.00800           0
      2684 MEMB     37       CHL1     H15B     HGA2     0.900000E-01   1.00800           0
      2685 MEMB     37       CHL1     C16      CRL2    -0.180000       12.0110           0
      2686 MEMB     37       CHL1     H16A     HGA2     0.900000E-01   1.00800           0
      2687 MEMB     37       CHL1     H16B     HGA2     0.900000E-01   1.00800           0
      2688 MEMB     37       CHL1     C17      CRL1    -0.900000E-01   12.0110           0
      2689 MEMB     37       CHL1     H17      HGA1     0.900000E-01   1.00800           0
      2690 MEMB     37       CHL1     C13      CRL1      0.00000       12.0110           0
      2691 MEMB     37       CHL1     C18      CTL3    -0.270000       12.0110           0
      2692 MEMB     37       CHL1     H18A     HAL3     0.900000E-01   1.00800           0
      2693 MEMB     37       CHL1     H18B     HAL3     0.900000E-01   1.00800           0
      2694 MEMB     37       CHL1     H18C     HAL3     0.900000E-01   1.00800           0
      2695 MEMB     37       CHL1     C12      CRL2    -0.180000       12.0110           0
      2696 MEMB     37       CHL1     H12A     HGA2     0.900000E-01   1.00800           0
      2697 MEMB     37       CHL1     H12B     HGA2     0.900000E-01   1.00800           0
      2698 MEMB     37       CHL1     C11      CRL2    -0.180000       12.0110           0
      2699 MEMB     37       CHL1     H11A     HGA2     0.900000E-01   1.00800           0
      2700 MEMB     37       CHL1     H11B     HGA2     0.900000E-01   1.00800           0
      2701 MEMB     37       CHL1     C9       CRL1    -0.900000E-01   12.0110           0
      2702 MEMB     37       CHL1     H9       HGA1     0.900000E-01   1.00800           0
      2703 MEMB     37       CHL1     C10      CRL1      0.00000       12.0110           0
      2704 MEMB     37       CHL1     C19      CTL3    -0.270000       12.0110           0
      2705 MEMB     37       CHL1     H19A     HAL3     0.900000E-01   1.00800           0
      2706 MEMB     37       CHL1     H19B     HAL3     0.900000E-01   1.00800           0
      2707 MEMB     37       CHL1     H19C     HAL3     0.900000E-01   1.00800           0
      2708 MEMB     37       CHL1     C1       CRL2    -0.180000       12.0110           0
      2709 MEMB     37       CHL1     H1A      HGA2     0.900000E-01   1.00800           0
      2710 MEMB     37       CHL1     H1B      HGA2     0.900000E-01   1.00800           0
      2711 MEMB     37       CHL1     C2       CRL2    -0.180000       12.0110           0
      2712 MEMB     37       CHL1     H2A      HGA2     0.900000E-01   1.00800           0
      2713 MEMB     37       CHL1     H2B      HGA2     0.900000E-01   1.00800           0
      2714 MEMB     37       CHL1     C20      CTL1    -0.900000E-01   12.0110           0
      2715 MEMB     37       CHL1     H20      HAL1     0.900000E-01   1.00800           0
      2716 MEMB     37       CHL1     C21      CTL3    -0.270000       12.0110           0
      2717 MEMB     37       CHL1     H21A     HAL3     0.900000E-01   1.00800           0
      2718 MEMB     37       CHL1     H21B     HAL3     0.900000E-01   1.00800           0
      2719 MEMB     37       CHL1     H21C     HAL3     0.900000E-01   1.00800           0
      2720 MEMB     37       CHL1     C22      CTL2    -0.180000       12.0110           0
      2721 MEMB     37       CHL1     H22A     HAL2     0.900000E-01   1.00800           0
      2722 MEMB     37       CHL1     H22B     HAL2     0.900000E-01   1.00800           0
      2723 MEMB     37       CHL1     C23      CTL2    -0.180000       12.0110           0
      2724 MEMB     37       CHL1     H23A     HAL2     0.900000E-01   1.00800           0
      2725 MEMB     37       CHL1     H23B     HAL2     0.900000E-01   1.00800           0
      2726 MEMB     37       CHL1     C24      CTL2    -0.180000       12.0110           0
      2727 MEMB     37       CHL1     H24A     HAL2     0.900000E-01   1.00800           0
      2728 MEMB     37       CHL1     H24B     HAL2     0.900000E-01   1.00800           0
      2729 MEMB     37       CHL1     C25      CTL1    -0.900000E-01   12.0110           0
      2730 MEMB     37       CHL1     H25      HAL1     0.900000E-01   1.00800           0
      2731 MEMB     37       CHL1     C26      CTL3    -0.270000       12.0110           0
      2732 MEMB     37       CHL1     H26A     HAL3     0.900000E-01   1.00800           0
      2733 MEMB     37       CHL1     H26B     HAL3     0.900000E-01   1.00800           0
      2734 MEMB     37       CHL1     H26C     HAL3     0.900000E-01   1.00800           0
      2735 MEMB     37       CHL1     C27      CTL3    -0.270000       12.0110           0
      2736 MEMB     37       CHL1     H27A     HAL3     0.900000E-01   1.00800           0
      2737 MEMB     37       CHL1     H27B     HAL3     0.900000E-01   1.00800           0
      2738 MEMB     37       CHL1     H27C     HAL3     0.900000E-01   1.00800           0
      2739 MEMB     38       CHL1     C3       CRL1     0.140000       12.0110           0
      2740 MEMB     38       CHL1     H3       HGA1     0.900000E-01   1.00800           0
      2741 MEMB     38       CHL1     O3       OHL     -0.660000       15.9994           0
      2742 MEMB     38       CHL1     H3'      HOL      0.430000       1.00800           0
      2743 MEMB     38       CHL1     C4       CRL2    -0.180000       12.0110           0
      2744 MEMB     38       CHL1     H4A      HGA2     0.900000E-01   1.00800           0
      2745 MEMB     38       CHL1     H4B      HGA2     0.900000E-01   1.00800           0
      2746 MEMB     38       CHL1     C5       CEL1      0.00000       12.0110           0
      2747 MEMB     38       CHL1     C6       CEL1    -0.150000       12.0110           0
      2748 MEMB     38       CHL1     H6       HEL1     0.150000       1.00800           0
      2749 MEMB     38       CHL1     C7       CRL2    -0.180000       12.0110           0
      2750 MEMB     38       CHL1     H7A      HGA2     0.900000E-01   1.00800           0
      2751 MEMB     38       CHL1     H7B      HGA2     0.900000E-01   1.00800           0
      2752 MEMB     38       CHL1     C8       CRL1    -0.900000E-01   12.0110           0
      2753 MEMB     38       CHL1     H8       HGA1     0.900000E-01   1.00800           0
      2754 MEMB     38       CHL1     C14      CRL1    -0.900000E-01   12.0110           0
      2755 MEMB     38       CHL1     H14      HGA1     0.900000E-01   1.00800           0
      2756 MEMB     38       CHL1     C15      CRL2    -0.180000       12.0110           0
      2757 MEMB     38       CHL1     H15A     HGA2     0.900000E-01   1.00800           0
      2758 MEMB     38       CHL1     H15B     HGA2     0.900000E-01   1.00800           0
      2759 MEMB     38       CHL1     C16      CRL2    -0.180000       12.0110           0
      2760 MEMB     38       CHL1     H16A     HGA2     0.900000E-01   1.00800           0
      2761 MEMB     38       CHL1     H16B     HGA2     0.900000E-01   1.00800           0
      2762 MEMB     38       CHL1     C17      CRL1    -0.900000E-01   12.0110           0
      2763 MEMB     38       CHL1     H17      HGA1     0.900000E-01   1.00800           0
      2764 MEMB     38       CHL1     C13      CRL1      0.00000       12.0110           0
      2765 MEMB     38       CHL1     C18      CTL3    -0.270000       12.0110           0
      2766 MEMB     38       CHL1     H18A     HAL3     0.900000E-01   1.00800           0
      2767 MEMB     38       CHL1     H18B     HAL3     0.900000E-01   1.00800           0
      2768 MEMB     38       CHL1     H18C     HAL3     0.900000E-01   1.00800           0
      2769 MEMB     38       CHL1     C12      CRL2    -0.180000       12.0110           0
      2770 MEMB     38       CHL1     H12A     HGA2     0.900000E-01   1.00800           0
      2771 MEMB     38       CHL1     H12B     HGA2     0.900000E-01   1.00800           0
      2772 MEMB     38       CHL1     C11      CRL2    -0.180000       12.0110           0
      2773 MEMB     38       CHL1     H11A     HGA2     0.900000E-01   1.00800           0
      2774 MEMB     38       CHL1     H11B     HGA2     0.900000E-01   1.00800           0
      2775 MEMB     38       CHL1     C9       CRL1    -0.900000E-01   12.0110           0
      2776 MEMB     38       CHL1     H9       HGA1     0.900000E-01   1.00800           0
      2777 MEMB     38       CHL1     C10      CRL1      0.00000       12.0110           0
      2778 MEMB     38       CHL1     C19      CTL3    -0.270000       12.0110           0
      2779 MEMB     38       CHL1     H19A     HAL3     0.900000E-01   1.00800           0
      2780 MEMB     38       CHL1     H19B     HAL3     0.900000E-01   1.00800           0
      2781 MEMB     38       CHL1     H19C     HAL3     0.900000E-01   1.00800           0
      2782 MEMB     38       CHL1     C1       CRL2    -0.180000       12.0110           0
      2783 MEMB     38       CHL1     H1A      HGA2     0.900000E-01   1.00800           0
      2784 MEMB     38       CHL1     H1B      HGA2     0.900000E-01   1.00800           0
      2785 MEMB     38       CHL1     C2       CRL2    -0.180000       12.0110           0
      2786 MEMB     38       CHL1     H2A      HGA2     0.900000E-01   1.00800           0
      2787 MEMB     38       CHL1     H2B      HGA2     0.900000E-01   1.00800           0
      2788 MEMB     38       CHL1     C20      CTL1    -0.900000E-01   12.0110           0
      2789 MEMB     38       CHL1     H20      HAL1     0.900000E-01   1.00800           0
      2790 MEMB     38       CHL1     C21      CTL3    -0.270000       12.0110           0
      2791 MEMB     38       CHL1     H21A     HAL3     0.900000E-01   1.00800           0
      2792 MEMB     38       CHL1     H21B     HAL3     0.900000E-01   1.00800           0
      2793 MEMB     38       CHL1     H21C     HAL3     0.900000E-01   1.00800           0
      2794 MEMB     38       CHL1     C22      CTL2    -0.180000       12.0110           0
      2795 MEMB     38       CHL1     H22A     HAL2     0.900000E-01   1.00800           0
      2796 MEMB     38       CHL1     H22B     HAL2     0.900000E-01   1.00800           0
      2797 MEMB     38       CHL1     C23      CTL2    -0.180000       12.0110           0
      2798 MEMB     38       CHL1     H23A     HAL2     0.900000E-01   1.00800           0
      2799 MEMB     38       CHL1     H23B     HAL2     0.900000E-01   1.00800           0
      2800 MEMB     38       CHL1     C24      CTL2    -0.180000       12.0110           0
      2801 MEMB     38       CHL1     H24A     HAL2     0.900000E-01   1.00800           0
      2802 MEMB     38       CHL1     H24B     HAL2     0.900000E-01   1.00800           0
      2803 MEMB     38       CHL1     C25      CTL1    -0.900000E-01   12.0110           0
      2804 MEMB     38       CHL1     H25      HAL1     0.900000E-01   1.00800           0
      2805 MEMB     38       CHL1     C26      CTL3    -0.270000       12.0110           0
      2806 MEMB     38       CHL1     H26A     HAL3     0.900000E-01   1.00800           0
      2807 MEMB     38       CHL1     H26B     HAL3     0.900000E-01   1.00800           0
      2808 MEMB     38       CHL1     H26C     HAL3     0.900000E-01   1.00800           0
      2809 MEMB     38       CHL1     C27      CTL3    -0.270000       12.0110           0
      2810 MEMB     38       CHL1     H27A     HAL3     0.900000E-01   1.00800           0
      2811 MEMB     38       CHL1     H27B     HAL3     0.900000E-01   1.00800           0
      2812 MEMB     38       CHL1     H27C     HAL3     0.900000E-01   1.00800           0
      2813 MEMB     39       POPC     N        NTL     -0.600000       14.0070           0
      2814 MEMB     39       POPC     C12      CTL2    -0.100000       12.0110           0
      2815 MEMB     39       POPC     H12A     HL       0.250000       1.00800           0
      2816 MEMB     39       POPC     H12B     HL       0.250000       1.00800           0
      2817 MEMB     39       POPC     C13      CTL5    -0.350000       12.0110           0
      2818 MEMB     39       POPC     H13A     HL       0.250000       1.00800           0
      2819 MEMB     39       POPC     H13B     HL       0.250000       1.00800           0
      2820 MEMB     39       POPC     H13C     HL       0.250000       1.00800           0
      2821 MEMB     39       POPC     C14      CTL5    -0.350000       12.0110           0
      2822 MEMB     39       POPC     H14A     HL       0.250000       1.00800           0
      2823 MEMB     39       POPC     H14B     HL       0.250000       1.00800           0
      2824 MEMB     39       POPC     H14C     HL       0.250000       1.00800           0
      2825 MEMB     39       POPC     C15      CTL5    -0.350000       12.0110           0
      2826 MEMB     39       POPC     H15A     HL       0.250000       1.00800           0
      2827 MEMB     39       POPC     H15B     HL       0.250000       1.00800           0
      2828 MEMB     39       POPC     H15C     HL       0.250000       1.00800           0
      2829 MEMB     39       POPC     C11      CTL2    -0.800000E-01   12.0110           0
      2830 MEMB     39       POPC     H11A     HAL2     0.900000E-01   1.00800           0
      2831 MEMB     39       POPC     H11B     HAL2     0.900000E-01   1.00800           0
      2832 MEMB     39       POPC     P        PL        1.50000       30.9740           0
      2833 MEMB     39       POPC     O13      O2L     -0.780000       15.9994           0
      2834 MEMB     39       POPC     O14      O2L     -0.780000       15.9994           0
      2835 MEMB     39       POPC     O12      OSLP    -0.570000       15.9994           0
      2836 MEMB     39       POPC     O11      OSLP    -0.570000       15.9994           0
      2837 MEMB     39       POPC     C1       CTL2    -0.800000E-01   12.0110           0
      2838 MEMB     39       POPC     HA       HAL2     0.900000E-01   1.00800           0
      2839 MEMB     39       POPC     HB       HAL2     0.900000E-01   1.00800           0
      2840 MEMB     39       POPC     C2       CTL1     0.170000       12.0110           0
      2841 MEMB     39       POPC     HS       HAL1     0.900000E-01   1.00800           0
      2842 MEMB     39       POPC     O21      OSL     -0.490000       15.9994           0
      2843 MEMB     39       POPC     C21      CL       0.900000       12.0110           0
      2844 MEMB     39       POPC     O22      OBL     -0.630000       15.9994           0
      2845 MEMB     39       POPC     C22      CTL2    -0.220000       12.0110           0
      2846 MEMB     39       POPC     H2R      HAL2     0.900000E-01   1.00800           0
      2847 MEMB     39       POPC     H2S      HAL2     0.900000E-01   1.00800           0
      2848 MEMB     39       POPC     C3       CTL2     0.800000E-01   12.0110           0
      2849 MEMB     39       POPC     HX       HAL2     0.900000E-01   1.00800           0
      2850 MEMB     39       POPC     HY       HAL2     0.900000E-01   1.00800           0
      2851 MEMB     39       POPC     O31      OSL     -0.490000       15.9994           0
      2852 MEMB     39       POPC     C31      CL       0.900000       12.0110           0
      2853 MEMB     39       POPC     O32      OBL     -0.630000       15.9994           0
      2854 MEMB     39       POPC     C32      CTL2    -0.220000       12.0110           0
      2855 MEMB     39       POPC     H2X      HAL2     0.900000E-01   1.00800           0
      2856 MEMB     39       POPC     H2Y      HAL2     0.900000E-01   1.00800           0
      2857 MEMB     39       POPC     C23      CTL2    -0.180000       12.0110           0
      2858 MEMB     39       POPC     H3R      HAL2     0.900000E-01   1.00800           0
      2859 MEMB     39       POPC     H3S      HAL2     0.900000E-01   1.00800           0
      2860 MEMB     39       POPC     C24      CTL2    -0.180000       12.0110           0
      2861 MEMB     39       POPC     H4R      HAL2     0.900000E-01   1.00800           0
      2862 MEMB     39       POPC     H4S      HAL2     0.900000E-01   1.00800           0
      2863 MEMB     39       POPC     C25      CTL2    -0.180000       12.0110           0
      2864 MEMB     39       POPC     H5R      HAL2     0.900000E-01   1.00800           0
      2865 MEMB     39       POPC     H5S      HAL2     0.900000E-01   1.00800           0
      2866 MEMB     39       POPC     C26      CTL2    -0.180000       12.0110           0
      2867 MEMB     39       POPC     H6R      HAL2     0.900000E-01   1.00800           0
      2868 MEMB     39       POPC     H6S      HAL2     0.900000E-01   1.00800           0
      2869 MEMB     39       POPC     C27      CTL2    -0.180000       12.0110           0
      2870 MEMB     39       POPC     H7R      HAL2     0.900000E-01   1.00800           0
      2871 MEMB     39       POPC     H7S      HAL2     0.900000E-01   1.00800           0
      2872 MEMB     39       POPC     C28      CTL2    -0.180000       12.0110           0
      2873 MEMB     39       POPC     H8R      HAL2     0.900000E-01   1.00800           0
      2874 MEMB     39       POPC     H8S      HAL2     0.900000E-01   1.00800           0
      2875 MEMB     39       POPC     C29      CEL1    -0.150000       12.0110           0
      2876 MEMB     39       POPC     H91      HEL1     0.150000       1.00800           0
      2877 MEMB     39       POPC     C210     CEL1    -0.150000       12.0110           0
      2878 MEMB     39       POPC     H101     HEL1     0.150000       1.00800           0
      2879 MEMB     39       POPC     C211     CTL2    -0.180000       12.0110           0
      2880 MEMB     39       POPC     H11R     HAL2     0.900000E-01   1.00800           0
      2881 MEMB     39       POPC     H11S     HAL2     0.900000E-01   1.00800           0
      2882 MEMB     39       POPC     C212     CTL2    -0.180000       12.0110           0
      2883 MEMB     39       POPC     H12R     HAL2     0.900000E-01   1.00800           0
      2884 MEMB     39       POPC     H12S     HAL2     0.900000E-01   1.00800           0
      2885 MEMB     39       POPC     C213     CTL2    -0.180000       12.0110           0
      2886 MEMB     39       POPC     H13R     HAL2     0.900000E-01   1.00800           0
      2887 MEMB     39       POPC     H13S     HAL2     0.900000E-01   1.00800           0
      2888 MEMB     39       POPC     C214     CTL2    -0.180000       12.0110           0
      2889 MEMB     39       POPC     H14R     HAL2     0.900000E-01   1.00800           0
      2890 MEMB     39       POPC     H14S     HAL2     0.900000E-01   1.00800           0
      2891 MEMB     39       POPC     C215     CTL2    -0.180000       12.0110           0
      2892 MEMB     39       POPC     H15R     HAL2     0.900000E-01   1.00800           0
      2893 MEMB     39       POPC     H15S     HAL2     0.900000E-01   1.00800           0
      2894 MEMB     39       POPC     C216     CTL2    -0.180000       12.0110           0
      2895 MEMB     39       POPC     H16R     HAL2     0.900000E-01   1.00800           0
      2896 MEMB     39       POPC     H16S     HAL2     0.900000E-01   1.00800           0
      2897 MEMB     39       POPC     C217     CTL2    -0.180000       12.0110           0
      2898 MEMB     39       POPC     H17R     HAL2     0.900000E-01   1.00800           0
      2899 MEMB     39       POPC     H17S     HAL2     0.900000E-01   1.00800           0
      2900 MEMB     39       POPC     C218     CTL3    -0.270000       12.0110           0
      2901 MEMB     39       POPC     H18R     HAL3     0.900000E-01   1.00800           0
      2902 MEMB     39       POPC     H18S     HAL3     0.900000E-01   1.00800           0
      2903 MEMB     39       POPC     H18T     HAL3     0.900000E-01   1.00800           0
      2904 MEMB     39       POPC     C33      CTL2    -0.180000       12.0110           0
      2905 MEMB     39       POPC     H3X      HAL2     0.900000E-01   1.00800           0
      2906 MEMB     39       POPC     H3Y      HAL2     0.900000E-01   1.00800           0
      2907 MEMB     39       POPC     C34      CTL2    -0.180000       12.0110           0
      2908 MEMB     39       POPC     H4X      HAL2     0.900000E-01   1.00800           0
      2909 MEMB     39       POPC     H4Y      HAL2     0.900000E-01   1.00800           0
      2910 MEMB     39       POPC     C35      CTL2    -0.180000       12.0110           0
      2911 MEMB     39       POPC     H5X      HAL2     0.900000E-01   1.00800           0
      2912 MEMB     39       POPC     H5Y      HAL2     0.900000E-01   1.00800           0
      2913 MEMB     39       POPC     C36      CTL2    -0.180000       12.0110           0
      2914 MEMB     39       POPC     H6X      HAL2     0.900000E-01   1.00800           0
      2915 MEMB     39       POPC     H6Y      HAL2     0.900000E-01   1.00800           0
      2916 MEMB     39       POPC     C37      CTL2    -0.180000       12.0110           0
      2917 MEMB     39       POPC     H7X      HAL2     0.900000E-01   1.00800           0
      2918 MEMB     39       POPC     H7Y      HAL2     0.900000E-01   1.00800           0
      2919 MEMB     39       POPC     C38      CTL2    -0.180000       12.0110           0
      2920 MEMB     39       POPC     H8X      HAL2     0.900000E-01   1.00800           0
      2921 MEMB     39       POPC     H8Y      HAL2     0.900000E-01   1.00800           0
      2922 MEMB     39       POPC     C39      CTL2    -0.180000       12.0110           0
      2923 MEMB     39       POPC     H9X      HAL2     0.900000E-01   1.00800           0
      2924 MEMB     39       POPC     H9Y      HAL2     0.900000E-01   1.00800           0
      2925 MEMB     39       POPC     C310     CTL2    -0.180000       12.0110           0
      2926 MEMB     39       POPC     H10X     HAL2     0.900000E-01   1.00800           0
      2927 MEMB     39       POPC     H10Y     HAL2     0.900000E-01   1.00800           0
      2928 MEMB     39       POPC     C311     CTL2    -0.180000       12.0110           0
      2929 MEMB     39       POPC     H11X     HAL2     0.900000E-01   1.00800           0
      2930 MEMB     39       POPC     H11Y     HAL2     0.900000E-01   1.00800           0
      2931 MEMB     39       POPC     C312     CTL2    -0.180000       12.0110           0
      2932 MEMB     39       POPC     H12X     HAL2     0.900000E-01   1.00800           0
      2933 MEMB     39       POPC     H12Y     HAL2     0.900000E-01   1.00800           0
      2934 MEMB     39       POPC     C313     CTL2    -0.180000       12.0110           0
      2935 MEMB     39       POPC     H13X     HAL2     0.900000E-01   1.00800           0
      2936 MEMB     39       POPC     H13Y     HAL2     0.900000E-01   1.00800           0
      2937 MEMB     39       POPC     C314     CTL2    -0.180000       12.0110           0
      2938 MEMB     39       POPC     H14X     HAL2     0.900000E-01   1.00800           0
      2939 MEMB     39       POPC     H14Y     HAL2     0.900000E-01   1.00800           0
      2940 MEMB     39       POPC     C315     CTL2    -0.180000       12.0110           0
      2941 MEMB     39       POPC     H15X     HAL2     0.900000E-01   1.00800           0
      2942 MEMB     39       POPC     H15Y     HAL2     0.900000E-01   1.00800           0
      2943 MEMB     39       POPC     C316     CTL3    -0.270000       12.0110           0
      2944 MEMB     39       POPC     H16X     HAL3     0.900000E-01   1.00800           0
      2945 MEMB     39       POPC     H16Y     HAL3     0.900000E-01   1.00800           0
      2946 MEMB     39       POPC     H16Z     HAL3     0.900000E-01   1.00800           0
      2947 MEMB     40       POPC     N        NTL     -0.600000       14.0070           0
      2948 MEMB     40       POPC     C12      CTL2    -0.100000       12.0110           0
      2949 MEMB     40       POPC     H12A     HL       0.250000       1.00800           0
      2950 MEMB     40       POPC     H12B     HL       0.250000       1.00800           0
      2951 MEMB     40       POPC     C13      CTL5    -0.350000       12.0110           0
      2952 MEMB     40       POPC     H13A     HL       0.250000       1.00800           0
      2953 MEMB     40       POPC     H13B     HL       0.250000       1.00800           0
      2954 MEMB     40       POPC     H13C     HL       0.250000       1.00800           0
      2955 MEMB     40       POPC     C14      CTL5    -0.350000       12.0110           0
      2956 MEMB     40       POPC     H14A     HL       0.250000       1.00800           0
      2957 MEMB     40       POPC     H14B     HL       0.250000       1.00800           0
      2958 MEMB     40       POPC     H14C     HL       0.250000       1.00800           0
      2959 MEMB     40       POPC     C15      CTL5    -0.350000       12.0110           0
      2960 MEMB     40       POPC     H15A     HL       0.250000       1.00800           0
      2961 MEMB     40       POPC     H15B     HL       0.250000       1.00800           0
      2962 MEMB     40       POPC     H15C     HL       0.250000       1.00800           0
      2963 MEMB     40       POPC     C11      CTL2    -0.800000E-01   12.0110           0
      2964 MEMB     40       POPC     H11A     HAL2     0.900000E-01   1.00800           0
      2965 MEMB     40       POPC     H11B     HAL2     0.900000E-01   1.00800           0
      2966 MEMB     40       POPC     P        PL        1.50000       30.9740           0
      2967 MEMB     40       POPC     O13      O2L     -0.780000       15.9994           0
      2968 MEMB     40       POPC     O14      O2L     -0.780000       15.9994           0
      2969 MEMB     40       POPC     O12      OSLP    -0.570000       15.9994           0
      2970 MEMB     40       POPC     O11      OSLP    -0.570000       15.9994           0
      2971 MEMB     40       POPC     C1       CTL2    -0.800000E-01   12.0110           0
      2972 MEMB     40       POPC     HA       HAL2     0.900000E-01   1.00800           0
      2973 MEMB     40       POPC     HB       HAL2     0.900000E-01   1.00800           0
      2974 MEMB     40       POPC     C2       CTL1     0.170000       12.0110           0
      2975 MEMB     40       POPC     HS       HAL1     0.900000E-01   1.00800           0
      2976 MEMB     40       POPC     O21      OSL     -0.490000       15.9994           0
      2977 MEMB     40       POPC     C21      CL       0.900000       12.0110           0
      2978 MEMB     40       POPC     O22      OBL     -0.630000       15.9994           0
      2979 MEMB     40       POPC     C22      CTL2    -0.220000       12.0110           0
      2980 MEMB     40       POPC     H2R      HAL2     0.900000E-01   1.00800           0
      2981 MEMB     40       POPC     H2S      HAL2     0.900000E-01   1.00800           0
      2982 MEMB     40       POPC     C3       CTL2     0.800000E-01   12.0110           0
      2983 MEMB     40       POPC     HX       HAL2     0.900000E-01   1.00800           0
      2984 MEMB     40       POPC     HY       HAL2     0.900000E-01   1.00800           0
      2985 MEMB     40       POPC     O31      OSL     -0.490000       15.9994           0
      2986 MEMB     40       POPC     C31      CL       0.900000       12.0110           0
      2987 MEMB     40       POPC     O32      OBL     -0.630000       15.9994           0
      2988 MEMB     40       POPC     C32      CTL2    -0.220000       12.0110           0
      2989 MEMB     40       POPC     H2X      HAL2     0.900000E-01   1.00800           0
      2990 MEMB     40       POPC     H2Y      HAL2     0.900000E-01   1.00800           0
      2991 MEMB     40       POPC     C23      CTL2    -0.180000       12.0110           0
      2992 MEMB     40       POPC     H3R      HAL2     0.900000E-01   1.00800           0
      2993 MEMB     40       POPC     H3S      HAL2     0.900000E-01   1.00800           0
      2994 MEMB     40       POPC     C24      CTL2    -0.180000       12.0110           0
      2995 MEMB     40       POPC     H4R      HAL2     0.900000E-01   1.00800           0
      2996 MEMB     40       POPC     H4S      HAL2     0.900000E-01   1.00800           0
      2997 MEMB     40       POPC     C25      CTL2    -0.180000       12.0110           0
      2998 MEMB     40       POPC     H5R      HAL2     0.900000E-01   1.00800           0
      2999 MEMB     40       POPC     H5S      HAL2     0.900000E-01   1.00800           0
      3000 MEMB     40       POPC     C26      CTL2    -0.180000       12.0110           0
      3001 MEMB     40       POPC     H6R      HAL2     0.900000E-01   1.00800           0
      3002 MEMB     40       POPC     H6S      HAL2     0.900000E-01   1.00800           0
      3003 MEMB     40       POPC     C27      CTL2    -0.180000       12.0110           0
      3004 MEMB     40       POPC     H7R      HAL2     0.900000E-01   1.00800           0
      3005 MEMB     40       POPC     H7S      HAL2     0.900000E-01   1.00800           0
      3006 MEMB     40       POPC     C28      CTL2    -0.180000       12.0110           0
      3007 MEMB     40       POPC     H8R      HAL2     0.900000E-01   1.00800           0
      3008 MEMB     40       POPC     H8S      HAL2     0.900000E-01   1.00800           0
      3009 MEMB     40       POPC     C29      CEL1    -0.150000       12.0110           0
      3010 MEMB     40       POPC     H91      HEL1     0.150000       1.00800           0
      3011 MEMB     40       POPC     C210     CEL1    -0.150000       12.0110           0
      3012 MEMB     40       POPC     H101     HEL1     0.150000       1.00800           0
      3013 MEMB     40       POPC     C211     CTL2    -0.180000       12.0110           0
      3014 MEMB     40       POPC     H11R     HAL2     0.900000E-01   1.00800           0
      3015 MEMB     40       POPC     H11S     HAL2     0.900000E-01   1.00800           0
      3016 MEMB     40       POPC     C212     CTL2    -0.180000       12.0110           0
      3017 MEMB     40       POPC     H12R     HAL2     0.900000E-01   1.00800           0
      3018 MEMB     40       POPC     H12S     HAL2     0.900000E-01   1.00800           0
      3019 MEMB     40       POPC     C213     CTL2    -0.180000       12.0110           0
      3020 MEMB     40       POPC     H13R     HAL2     0.900000E-01   1.00800           0
      3021 MEMB     40       POPC     H13S     HAL2     0.900000E-01   1.00800           0
      3022 MEMB     40       POPC     C214     CTL2    -0.180000       12.0110           0
      3023 MEMB     40       POPC     H14R     HAL2     0.900000E-01   1.00800           0
      3024 MEMB     40       POPC     H14S     HAL2     0.900000E-01   1.00800           0
      3025 MEMB     40       POPC     C215     CTL2    -0.180000       12.0110           0
      3026 MEMB     40       POPC     H15R     HAL2     0.900000E-01   1.00800           0
      3027 MEMB     40       POPC     H15S     HAL2     0.900000E-01   1.00800           0
      3028 MEMB     40       POPC     C216     CTL2    -0.180000       12.0110           0
      3029 MEMB     40       POPC     H16R     HAL2     0.900000E-01   1.00800           0
      3030 MEMB     40       POPC     H16S     HAL2     0.900000E-01   1.00800           0
      3031 MEMB     40       POPC     C217     CTL2    -0.180000       12.0110           0
      3032 MEMB     40       POPC     H17R     HAL2     0.900000E-01   1.00800           0
      3033 MEMB     40       POPC     H17S     HAL2     0.900000E-01   1.00800           0
      3034 MEMB     40       POPC     C218     CTL3    -0.270000       12.0110           0
      3035 MEMB     40       POPC     H18R     HAL3     0.900000E-01   1.00800           0
      3036 MEMB     40       POPC     H18S     HAL3     0.900000E-01   1.00800           0
      3037 MEMB     40       POPC     H18T     HAL3     0.900000E-01   1.00800           0
      3038 MEMB     40       POPC     C33      CTL2    -0.180000       12.0110           0
      3039 MEMB     40       POPC     H3X      HAL2     0.900000E-01   1.00800           0
      3040 MEMB     40       POPC     H3Y      HAL2     0.900000E-01   1.00800           0
      3041 MEMB     40       POPC     C34      CTL2    -0.180000       12.0110           0
      3042 MEMB     40       POPC     H4X      HAL2     0.900000E-01   1.00800           0
      3043 MEMB     40       POPC     H4Y      HAL2     0.900000E-01   1.00800           0
      3044 MEMB     40       POPC     C35      CTL2    -0.180000       12.0110           0
      3045 MEMB     40       POPC     H5X      HAL2     0.900000E-01   1.00800           0
      3046 MEMB     40       POPC     H5Y      HAL2     0.900000E-01   1.00800           0
      3047 MEMB     40       POPC     C36      CTL2    -0.180000       12.0110           0
      3048 MEMB     40       POPC     H6X      HAL2     0.900000E-01   1.00800           0
      3049 MEMB     40       POPC     H6Y      HAL2     0.900000E-01   1.00800           0
      3050 MEMB     40       POPC     C37      CTL2    -0.180000       12.0110           0
      3051 MEMB     40       POPC     H7X      HAL2     0.900000E-01   1.00800           0
      3052 MEMB     40       POPC     H7Y      HAL2     0.900000E-01   1.00800           0
      3053 MEMB     40       POPC     C38      CTL2    -0.180000       12.0110           0
      3054 MEMB     40       POPC     H8X      HAL2     0.900000E-01   1.00800           0
      3055 MEMB     40       POPC     H8Y      HAL2     0.900000E-01   1.00800           0
      3056 MEMB     40       POPC     C39      CTL2    -0.180000       12.0110           0
      3057 MEMB     40       POPC     H9X      HAL2     0.900000E-01   1.00800           0
      3058 MEMB     40       POPC     H9Y      HAL2     0.900000E-01   1.00800           0
      3059 MEMB     40       POPC     C310     CTL2    -0.180000       12.0110           0
      3060 MEMB     40       POPC     H10X     HAL2     0.900000E-01   1.00800           0
      3061 MEMB     40       POPC     H10Y     HAL2     0.900000E-01   1.00800           0
      3062 MEMB     40       POPC     C311     CTL2    -0.180000       12.0110           0
      3063 MEMB     40       POPC     H11X     HAL2     0.900000E-01   1.00800           0
      3064 MEMB     40       POPC     H11Y     HAL2     0.900000E-01   1.00800           0
      3065 MEMB     40       POPC     C312     CTL2    -0.180000       12.0110           0
      3066 MEMB     40       POPC     H12X     HAL2     0.900000E-01   1.00800           0
      3067 MEMB     40       POPC     H12Y     HAL2     0.900000E-01   1.00800           0
      3068 MEMB     40       POPC     C313     CTL2    -0.180000       12.0110           0
      3069 MEMB     40       POPC     H13X     HAL2     0.900000E-01   1.00800           0
      3070 MEMB     40       POPC     H13Y     HAL2     0.900000E-01   1.00800           0
      3071 MEMB     40       POPC     C314     CTL2    -0.180000       12.0110           0
      3072 MEMB     40       POPC     H14X     HAL2     0.900000E-01   1.00800           0
      3073 MEMB     40       POPC     H14Y     HAL2     0.900000E-01   1.00800           0
      3074 MEMB     40       POPC     C315     CTL2    -0.180000       12.0110           0
      3075 MEMB     40       POPC     H15X     HAL2     0.900000E-01   1.00800           0
      3076 MEMB     40       POPC     H15Y     HAL2     0.900000E-01   1.00800           0
      3077 MEMB     40       POPC     C316     CTL3    -0.270000       12.0110           0
      3078 MEMB     40       POPC     H16X     HAL3     0.900000E-01   1.00800           0
      3079 MEMB     40       POPC     H16Y     HAL3     0.900000E-01   1.00800           0
      3080 MEMB     40       POPC     H16Z     HAL3     0.900000E-01   1.00800           0
      3081 MEMB     41       POPC     N        NTL     -0.600000       14.0070           0
      3082 MEMB     41       POPC     C12      CTL2    -0.100000       12.0110           0
      3083 MEMB     41       POPC     H12A     HL       0.250000       1.00800           0
      3084 MEMB     41       POPC     H12B     HL       0.250000       1.00800           0
      3085 MEMB     41       POPC     C13      CTL5    -0.350000       12.0110           0
      3086 MEMB     41       POPC     H13A     HL       0.250000       1.00800           0
      3087 MEMB     41       POPC     H13B     HL       0.250000       1.00800           0
      3088 MEMB     41       POPC     H13C     HL       0.250000       1.00800           0
      3089 MEMB     41       POPC     C14      CTL5    -0.350000       12.0110           0
      3090 MEMB     41       POPC     H14A     HL       0.250000       1.00800           0
      3091 MEMB     41       POPC     H14B     HL       0.250000       1.00800           0
      3092 MEMB     41       POPC     H14C     HL       0.250000       1.00800           0
      3093 MEMB     41       POPC     C15      CTL5    -0.350000       12.0110           0
      3094 MEMB     41       POPC     H15A     HL       0.250000       1.00800           0
      3095 MEMB     41       POPC     H15B     HL       0.250000       1.00800           0
      3096 MEMB     41       POPC     H15C     HL       0.250000       1.00800           0
      3097 MEMB     41       POPC     C11      CTL2    -0.800000E-01   12.0110           0
      3098 MEMB     41       POPC     H11A     HAL2     0.900000E-01   1.00800           0
      3099 MEMB     41       POPC     H11B     HAL2     0.900000E-01   1.00800           0
      3100 MEMB     41       POPC     P        PL        1.50000       30.9740           0
      3101 MEMB     41       POPC     O13      O2L     -0.780000       15.9994           0
      3102 MEMB     41       POPC     O14      O2L     -0.780000       15.9994           0
      3103 MEMB     41       POPC     O12      OSLP    -0.570000       15.9994           0
      3104 MEMB     41       POPC     O11      OSLP    -0.570000       15.9994           0
      3105 MEMB     41       POPC     C1       CTL2    -0.800000E-01   12.0110           0
      3106 MEMB     41       POPC     HA       HAL2     0.900000E-01   1.00800           0
      3107 MEMB     41       POPC     HB       HAL2     0.900000E-01   1.00800           0
      3108 MEMB     41       POPC     C2       CTL1     0.170000       12.0110           0
      3109 MEMB     41       POPC     HS       HAL1     0.900000E-01   1.00800           0
      3110 MEMB     41       POPC     O21      OSL     -0.490000       15.9994           0
      3111 MEMB     41       POPC     C21      CL       0.900000       12.0110           0
      3112 MEMB     41       POPC     O22      OBL     -0.630000       15.9994           0
      3113 MEMB     41       POPC     C22      CTL2    -0.220000       12.0110           0
      3114 MEMB     41       POPC     H2R      HAL2     0.900000E-01   1.00800           0
      3115 MEMB     41       POPC     H2S      HAL2     0.900000E-01   1.00800           0
      3116 MEMB     41       POPC     C3       CTL2     0.800000E-01   12.0110           0
      3117 MEMB     41       POPC     HX       HAL2     0.900000E-01   1.00800           0
      3118 MEMB     41       POPC     HY       HAL2     0.900000E-01   1.00800           0
      3119 MEMB     41       POPC     O31      OSL     -0.490000       15.9994           0
      3120 MEMB     41       POPC     C31      CL       0.900000       12.0110           0
      3121 MEMB     41       POPC     O32      OBL     -0.630000       15.9994           0
      3122 MEMB     41       POPC     C32      CTL2    -0.220000       12.0110           0
      3123 MEMB     41       POPC     H2X      HAL2     0.900000E-01   1.00800           0
      3124 MEMB     41       POPC     H2Y      HAL2     0.900000E-01   1.00800           0
      3125 MEMB     41       POPC     C23      CTL2    -0.180000       12.0110           0
      3126 MEMB     41       POPC     H3R      HAL2     0.900000E-01   1.00800           0
      3127 MEMB     41       POPC     H3S      HAL2     0.900000E-01   1.00800           0
      3128 MEMB     41       POPC     C24      CTL2    -0.180000       12.0110           0
      3129 MEMB     41       POPC     H4R      HAL2     0.900000E-01   1.00800           0
      3130 MEMB     41       POPC     H4S      HAL2     0.900000E-01   1.00800           0
      3131 MEMB     41       POPC     C25      CTL2    -0.180000       12.0110           0
      3132 MEMB     41       POPC     H5R      HAL2     0.900000E-01   1.00800           0
      3133 MEMB     41       POPC     H5S      HAL2     0.900000E-01   1.00800           0
      3134 MEMB     41       POPC     C26      CTL2    -0.180000       12.0110           0
      3135 MEMB     41       POPC     H6R      HAL2     0.900000E-01   1.00800           0
      3136 MEMB     41       POPC     H6S      HAL2     0.900000E-01   1.00800           0
      3137 MEMB     41       POPC     C27      CTL2    -0.180000       12.0110           0
      3138 MEMB     41       POPC     H7R      HAL2     0.900000E-01   1.00800           0
      3139 MEMB     41       POPC     H7S      HAL2     0.900000E-01   1.00800           0
      3140 MEMB     41       POPC     C28      CTL2    -0.180000       12.0110           0
      3141 MEMB     41       POPC     H8R      HAL2     0.900000E-01   1.00800           0
      3142 MEMB     41       POPC     H8S      HAL2     0.900000E-01   1.00800           0
      3143 MEMB     41       POPC     C29      CEL1    -0.150000       12.0110           0
      3144 MEMB     41       POPC     H91      HEL1     0.150000       1.00800           0
      3145 MEMB     41       POPC     C210     CEL1    -0.150000       12.0110           0
      3146 MEMB     41       POPC     H101     HEL1     0.150000       1.00800           0
      3147 MEMB     41       POPC     C211     CTL2    -0.180000       12.0110           0
      3148 MEMB     41       POPC     H11R     HAL2     0.900000E-01   1.00800           0
      3149 MEMB     41       POPC     H11S     HAL2     0.900000E-01   1.00800           0
      3150 MEMB     41       POPC     C212     CTL2    -0.180000       12.0110           0
      3151 MEMB     41       POPC     H12R     HAL2     0.900000E-01   1.00800           0
      3152 MEMB     41       POPC     H12S     HAL2     0.900000E-01   1.00800           0
      3153 MEMB     41       POPC     C213     CTL2    -0.180000       12.0110           0
      3154 MEMB     41       POPC     H13R     HAL2     0.900000E-01   1.00800           0
      3155 MEMB     41       POPC     H13S     HAL2     0.900000E-01   1.00800           0
      3156 MEMB     41       POPC     C214     CTL2    -0.180000       12.0110           0
      3157 MEMB     41       POPC     H14R     HAL2     0.900000E-01   1.00800           0
      3158 MEMB     41       POPC     H14S     HAL2     0.900000E-01   1.00800           0
      3159 MEMB     41       POPC     C215     CTL2    -0.180000       12.0110           0
      3160 MEMB     41       POPC     H15R     HAL2     0.900000E-01   1.00800           0
      3161 MEMB     41       POPC     H15S     HAL2     0.900000E-01   1.00800           0
      3162 MEMB     41       POPC     C216     CTL2    -0.180000       12.0110           0
      3163 MEMB     41       POPC     H16R     HAL2     0.900000E-01   1.00800           0
      3164 MEMB     41       POPC     H16S     HAL2     0.900000E-01   1.00800           0
      3165 MEMB     41       POPC     C217     CTL2    -0.180000       12.0110           0
      3166 MEMB     41       POPC     H17R     HAL2     0.900000E-01   1.00800           0
      3167 MEMB     41       POPC     H17S     HAL2     0.900000E-01   1.00800           0
      3168 MEMB     41       POPC     C218     CTL3    -0.270000       12.0110           0
      3169 MEMB     41       POPC     H18R     HAL3     0.900000E-01   1.00800           0
      3170 MEMB     41       POPC     H18S     HAL3     0.900000E-01   1.00800           0
      3171 MEMB     41       POPC     H18T     HAL3     0.900000E-01   1.00800           0
      3172 MEMB     41       POPC     C33      CTL2    -0.180000       12.0110           0
      3173 MEMB     41       POPC     H3X      HAL2     0.900000E-01   1.00800           0
      3174 MEMB     41       POPC     H3Y      HAL2     0.900000E-01   1.00800           0
      3175 MEMB     41       POPC     C34      CTL2    -0.180000       12.0110           0
      3176 MEMB     41       POPC     H4X      HAL2     0.900000E-01   1.00800           0
      3177 MEMB     41       POPC     H4Y      HAL2     0.900000E-01   1.00800           0
      3178 MEMB     41       POPC     C35      CTL2    -0.180000       12.0110           0
      3179 MEMB     41       POPC     H5X      HAL2     0.900000E-01   1.00800           0
      3180 MEMB     41       POPC     H5Y      HAL2     0.900000E-01   1.00800           0
      3181 MEMB     41       POPC     C36      CTL2    -0.180000       12.0110           0
      3182 MEMB     41       POPC     H6X      HAL2     0.900000E-01   1.00800           0
      3183 MEMB     41       POPC     H6Y      HAL2     0.900000E-01   1.00800           0
      3184 MEMB     41       POPC     C37      CTL2    -0.180000       12.0110           0
      3185 MEMB     41       POPC     H7X      HAL2     0.900000E-01   1.00800           0
      3186 MEMB     41       POPC     H7Y      HAL2     0.900000E-01   1.00800           0
      3187 MEMB     41       POPC     C38      CTL2    -0.180000       12.0110           0
      3188 MEMB     41       POPC     H8X      HAL2     0.900000E-01   1.00800           0
      3189 MEMB     41       POPC     H8Y      HAL2     0.900000E-01   1.00800           0
      3190 MEMB     41       POPC     C39      CTL2    -0.180000       12.0110           0
      3191 MEMB     41       POPC     H9X      HAL2     0.900000E-01   1.00800           0
      3192 MEMB     41       POPC     H9Y      HAL2     0.900000E-01   1.00800           0
      3193 MEMB     41       POPC     C310     CTL2    -0.180000       12.0110           0
      3194 MEMB     41       POPC     H10X     HAL2     0.900000E-01   1.00800           0
      3195 MEMB     41       POPC     H10Y     HAL2     0.900000E-01   1.00800           0
      3196 MEMB     41       POPC     C311     CTL2    -0.180000       12.0110           0
      3197 MEMB     41       POPC     H11X     HAL2     0.900000E-01   1.00800           0
      3198 MEMB     41       POPC     H11Y     HAL2     0.900000E-01   1.00800           0
      3199 MEMB     41       POPC     C312     CTL2    -0.180000       12.0110           0
      3200 MEMB     41       POPC     H12X     HAL2     0.900000E-01   1.00800           0
      3201 MEMB     41       POPC     H12Y     HAL2     0.900000E-01   1.00800           0
      3202 MEMB     41       POPC     C313     CTL2    -0.180000       12.0110           0
      3203 MEMB     41       POPC     H13X     HAL2     0.900000E-01   1.00800           0
      3204 MEMB     41       POPC     H13Y     HAL2     0.900000E-01   1.00800           0
      3205 MEMB     41       POPC     C314     CTL2    -0.180000       12.0110           0
      3206 MEMB     41       POPC     H14X     HAL2     0.900000E-01   1.00800           0
      3207 MEMB     41       POPC     H14Y     HAL2     0.900000E-01   1.00800           0
      3208 MEMB     41       POPC     C315     CTL2    -0.180000       12.0110           0
      3209 MEMB     41       POPC     H15X     HAL2     0.900000E-01   1.00800           0
      3210 MEMB     41       POPC     H15Y     HAL2     0.900000E-01   1.00800           0
      3211 MEMB     41       POPC     C316     CTL3    -0.270000       12.0110           0
      3212 MEMB     41       POPC     H16X     HAL3     0.900000E-01   1.00800           0
      3213 MEMB     41       POPC     H16Y     HAL3     0.900000E-01   1.00800           0
      3214 MEMB     41       POPC     H16Z     HAL3     0.900000E-01   1.00800           0
      3215 MEMB     42       POPC     N        NTL     -0.600000       14.0070           0
      3216 MEMB     42       POPC     C12      CTL2    -0.100000       12.0110           0
      3217 MEMB     42       POPC     H12A     HL       0.250000       1.00800           0
      3218 MEMB     42       POPC     H12B     HL       0.250000       1.00800           0
      3219 MEMB     42       POPC     C13      CTL5    -0.350000       12.0110           0
      3220 MEMB     42       POPC     H13A     HL       0.250000       1.00800           0
      3221 MEMB     42       POPC     H13B     HL       0.250000       1.00800           0
      3222 MEMB     42       POPC     H13C     HL       0.250000       1.00800           0
      3223 MEMB     42       POPC     C14      CTL5    -0.350000       12.0110           0
      3224 MEMB     42       POPC     H14A     HL       0.250000       1.00800           0
      3225 MEMB     42       POPC     H14B     HL       0.250000       1.00800           0
      3226 MEMB     42       POPC     H14C     HL       0.250000       1.00800           0
      3227 MEMB     42       POPC     C15      CTL5    -0.350000       12.0110           0
      3228 MEMB     42       POPC     H15A     HL       0.250000       1.00800           0
      3229 MEMB     42       POPC     H15B     HL       0.250000       1.00800           0
      3230 MEMB     42       POPC     H15C     HL       0.250000       1.00800           0
      3231 MEMB     42       POPC     C11      CTL2    -0.800000E-01   12.0110           0
      3232 MEMB     42       POPC     H11A     HAL2     0.900000E-01   1.00800           0
      3233 MEMB     42       POPC     H11B     HAL2     0.900000E-01   1.00800           0
      3234 MEMB     42       POPC     P        PL        1.50000       30.9740           0
      3235 MEMB     42       POPC     O13      O2L     -0.780000       15.9994           0
      3236 MEMB     42       POPC     O14      O2L     -0.780000       15.9994           0
      3237 MEMB     42       POPC     O12      OSLP    -0.570000       15.9994           0
      3238 MEMB     42       POPC     O11      OSLP    -0.570000       15.9994           0
      3239 MEMB     42       POPC     C1       CTL2    -0.800000E-01   12.0110           0
      3240 MEMB     42       POPC     HA       HAL2     0.900000E-01   1.00800           0
      3241 MEMB     42       POPC     HB       HAL2     0.900000E-01   1.00800           0
      3242 MEMB     42       POPC     C2       CTL1     0.170000       12.0110           0
      3243 MEMB     42       POPC     HS       HAL1     0.900000E-01   1.00800           0
      3244 MEMB     42       POPC     O21      OSL     -0.490000       15.9994           0
      3245 MEMB     42       POPC     C21      CL       0.900000       12.0110           0
      3246 MEMB     42       POPC     O22      OBL     -0.630000       15.9994           0
      3247 MEMB     42       POPC     C22      CTL2    -0.220000       12.0110           0
      3248 MEMB     42       POPC     H2R      HAL2     0.900000E-01   1.00800           0
      3249 MEMB     42       POPC     H2S      HAL2     0.900000E-01   1.00800           0
      3250 MEMB     42       POPC     C3       CTL2     0.800000E-01   12.0110           0
      3251 MEMB     42       POPC     HX       HAL2     0.900000E-01   1.00800           0
      3252 MEMB     42       POPC     HY       HAL2     0.900000E-01   1.00800           0
      3253 MEMB     42       POPC     O31      OSL     -0.490000       15.9994           0
      3254 MEMB     42       POPC     C31      CL       0.900000       12.0110           0
      3255 MEMB     42       POPC     O32      OBL     -0.630000       15.9994           0
      3256 MEMB     42       POPC     C32      CTL2    -0.220000       12.0110           0
      3257 MEMB     42       POPC     H2X      HAL2     0.900000E-01   1.00800           0
      3258 MEMB     42       POPC     H2Y      HAL2     0.900000E-01   1.00800           0
      3259 MEMB     42       POPC     C23      CTL2    -0.180000       12.0110           0
      3260 MEMB     42       POPC     H3R      HAL2     0.900000E-01   1.00800           0
      3261 MEMB     42       POPC     H3S      HAL2     0.900000E-01   1.00800           0
      3262 MEMB     42       POPC     C24      CTL2    -0.180000       12.0110           0
      3263 MEMB     42       POPC     H4R      HAL2     0.900000E-01   1.00800           0
      3264 MEMB     42       POPC     H4S      HAL2     0.900000E-01   1.00800           0
      3265 MEMB     42       POPC     C25      CTL2    -0.180000       12.0110           0
      3266 MEMB     42       POPC     H5R      HAL2     0.900000E-01   1.00800           0
      3267 MEMB     42       POPC     H5S      HAL2     0.900000E-01   1.00800           0
      3268 MEMB     42       POPC     C26      CTL2    -0.180000       12.0110           0
      3269 MEMB     42       POPC     H6R      HAL2     0.900000E-01   1.00800           0
      3270 MEMB     42       POPC     H6S      HAL2     0.900000E-01   1.00800           0
      3271 MEMB     42       POPC     C27      CTL2    -0.180000       12.0110           0
      3272 MEMB     42       POPC     H7R      HAL2     0.900000E-01   1.00800           0
      3273 MEMB     42       POPC     H7S      HAL2     0.900000E-01   1.00800           0
      3274 MEMB     42       POPC     C28      CTL2    -0.180000       12.0110           0
      3275 MEMB     42       POPC     H8R      HAL2     0.900000E-01   1.00800           0
      3276 MEMB     42       POPC     H8S      HAL2     0.900000E-01   1.00800           0
      3277 MEMB     42       POPC     C29      CEL1    -0.150000       12.0110           0
      3278 MEMB     42       POPC     H91      HEL1     0.150000       1.00800           0
      3279 MEMB     42       POPC     C210     CEL1    -0.150000       12.0110           0
      3280 MEMB     42       POPC     H101     HEL1     0.150000       1.00800           0
      3281 MEMB     42       POPC     C211     CTL2    -0.180000       12.0110           0
      3282 MEMB     42       POPC     H11R     HAL2     0.900000E-01   1.00800           0
      3283 MEMB     42       POPC     H11S     HAL2     0.900000E-01   1.00800           0
      3284 MEMB     42       POPC     C212     CTL2    -0.180000       12.0110           0
      3285 MEMB     42       POPC     H12R     HAL2     0.900000E-01   1.00800           0
      3286 MEMB     42       POPC     H12S     HAL2     0.900000E-01   1.00800           0
      3287 MEMB     42       POPC     C213     CTL2    -0.180000       12.0110           0
      3288 MEMB     42       POPC     H13R     HAL2     0.900000E-01   1.00800           0
      3289 MEMB     42       POPC     H13S     HAL2     0.900000E-01   1.00800           0
      3290 MEMB     42       POPC     C214     CTL2    -0.180000       12.0110           0
      3291 MEMB     42       POPC     H14R     HAL2     0.900000E-01   1.00800           0
      3292 MEMB     42       POPC     H14S     HAL2     0.900000E-01   1.00800           0
      3293 MEMB     42       POPC     C215     CTL2    -0.180000       12.0110           0
      3294 MEMB     42       POPC     H15R     HAL2     0.900000E-01   1.00800           0
      3295 MEMB     42       POPC     H15S     HAL2     0.900000E-01   1.00800           0
      3296 MEMB     42       POPC     C216     CTL2    -0.180000       12.0110           0
      3297 MEMB     42       POPC     H16R     HAL2     0.900000E-01   1.00800           0
      3298 MEMB     42       POPC     H16S     HAL2     0.900000E-01   1.00800           0
      3299 MEMB     42       POPC     C217     CTL2    -0.180000       12.0110           0
      3300 MEMB     42       POPC     H17R     HAL2     0.900000E-01   1.00800           0
      3301 MEMB     42       POPC     H17S     HAL2     0.900000E-01   1.00800           0
      3302 MEMB     42       POPC     C218     CTL3    -0.270000       12.0110           0
      3303 MEMB     42       POPC     H18R     HAL3     0.900000E-01   1.00800           0
      3304 MEMB     42       POPC     H18S     HAL3     0.900000E-01   1.00800           0
      3305 MEMB     42       POPC     H18T     HAL3     0.900000E-01   1.00800           0
      3306 MEMB     42       POPC     C33      CTL2    -0.180000       12.0110           0
      3307 MEMB     42       POPC     H3X      HAL2     0.900000E-01   1.00800           0
      3308 MEMB     42       POPC     H3Y      HAL2     0.900000E-01   1.00800           0
      3309 MEMB     42       POPC     C34      CTL2    -0.180000       12.0110           0
      3310 MEMB     42       POPC     H4X      HAL2     0.900000E-01   1.00800           0
      3311 MEMB     42       POPC     H4Y      HAL2     0.900000E-01   1.00800           0
      3312 MEMB     42       POPC     C35      CTL2    -0.180000       12.0110           0
      3313 MEMB     42       POPC     H5X      HAL2     0.900000E-01   1.00800           0
      3314 MEMB     42       POPC     H5Y      HAL2     0.900000E-01   1.00800           0
      3315 MEMB     42       POPC     C36      CTL2    -0.180000       12.0110           0
      3316 MEMB     42       POPC     H6X      HAL2     0.900000E-01   1.00800           0
      3317 MEMB     42       POPC     H6Y      HAL2     0.900000E-01   1.00800           0
      3318 MEMB     42       POPC     C37      CTL2    -0.180000       12.0110           0
      3319 MEMB     42       POPC     H7X      HAL2     0.900000E-01   1.00800           0
      3320 MEMB     42       POPC     H7Y      HAL2     0.900000E-01   1.00800           0
      3321 MEMB     42       POPC     C38      CTL2    -0.180000       12.0110           0
      3322 MEMB     42       POPC     H8X      HAL2     0.900000E-01   1.00800           0
      3323 MEMB     42       POPC     H8Y      HAL2     0.900000E-01   1.00800           0
      3324 MEMB     42       POPC     C39      CTL2    -0.180000       12.0110           0
      3325 MEMB     42       POPC     H9X      HAL2     0.900000E-01   1.00800           0
      3326 MEMB     42       POPC     H9Y      HAL2     0.900000E-01   1.00800           0
      3327 MEMB     42       POPC     C310     CTL2    -0.180000       12.0110           0
      3328 MEMB     42       POPC     H10X     HAL2     0.900000E-01   1.00800           0
      3329 MEMB     42       POPC     H10Y     HAL2     0.900000E-01   1.00800           0
      3330 MEMB     42       POPC     C311     CTL2    -0.180000       12.0110           0
      3331 MEMB     42       POPC     H11X     HAL2     0.900000E-01   1.00800           0
      3332 MEMB     42       POPC     H11Y     HAL2     0.900000E-01   1.00800           0
      3333 MEMB     42       POPC     C312     CTL2    -0.180000       12.0110           0
      3334 MEMB     42       POPC     H12X     HAL2     0.900000E-01   1.00800           0
      3335 MEMB     42       POPC     H12Y     HAL2     0.900000E-01   1.00800           0
      3336 MEMB     42       POPC     C313     CTL2    -0.180000       12.0110           0
      3337 MEMB     42       POPC     H13X     HAL2     0.900000E-01   1.00800           0
      3338 MEMB     42       POPC     H13Y     HAL2     0.900000E-01   1.00800           0
      3339 MEMB     42       POPC     C314     CTL2    -0.180000       12.0110           0
      3340 MEMB     42       POPC     H14X     HAL2     0.900000E-01   1.00800           0
      3341 MEMB     42       POPC     H14Y     HAL2     0.900000E-01   1.00800           0
      3342 MEMB     42       POPC     C315     CTL2    -0.180000       12.0110           0
      3343 MEMB     42       POPC     H15X     HAL2     0.900000E-01   1.00800           0
      3344 MEMB     42       POPC     H15Y     HAL2     0.900000E-01   1.00800           0
      3345 MEMB     42       POPC     C316     CTL3    -0.270000       12.0110           0
      3346 MEMB     42       POPC     H16X     HAL3     0.900000E-01   1.00800           0
      3347 MEMB     42       POPC     H16Y     HAL3     0.900000E-01   1.00800           0
      3348 MEMB     42       POPC     H16Z     HAL3     0.900000E-01   1.00800           0
      3349 MEMB     43       POPC     N        NTL     -0.600000       14.0070           0
      3350 MEMB     43       POPC     C12      CTL2    -0.100000       12.0110           0
      3351 MEMB     43       POPC     H12A     HL       0.250000       1.00800           0
      3352 MEMB     43       POPC     H12B     HL       0.250000       1.00800           0
      3353 MEMB     43       POPC     C13      CTL5    -0.350000       12.0110           0
      3354 MEMB     43       POPC     H13A     HL       0.250000       1.00800           0
      3355 MEMB     43       POPC     H13B     HL       0.250000       1.00800           0
      3356 MEMB     43       POPC     H13C     HL       0.250000       1.00800           0
      3357 MEMB     43       POPC     C14      CTL5    -0.350000       12.0110           0
      3358 MEMB     43       POPC     H14A     HL       0.250000       1.00800           0
      3359 MEMB     43       POPC     H14B     HL       0.250000       1.00800           0
      3360 MEMB     43       POPC     H14C     HL       0.250000       1.00800           0
      3361 MEMB     43       POPC     C15      CTL5    -0.350000       12.0110           0
      3362 MEMB     43       POPC     H15A     HL       0.250000       1.00800           0
      3363 MEMB     43       POPC     H15B     HL       0.250000       1.00800           0
      3364 MEMB     43       POPC     H15C     HL       0.250000       1.00800           0
      3365 MEMB     43       POPC     C11      CTL2    -0.800000E-01   12.0110           0
      3366 MEMB     43       POPC     H11A     HAL2     0.900000E-01   1.00800           0
      3367 MEMB     43       POPC     H11B     HAL2     0.900000E-01   1.00800           0
      3368 MEMB     43       POPC     P        PL        1.50000       30.9740           0
      3369 MEMB     43       POPC     O13      O2L     -0.780000       15.9994           0
      3370 MEMB     43       POPC     O14      O2L     -0.780000       15.9994           0
      3371 MEMB     43       POPC     O12      OSLP    -0.570000       15.9994           0
      3372 MEMB     43       POPC     O11      OSLP    -0.570000       15.9994           0
      3373 MEMB     43       POPC     C1       CTL2    -0.800000E-01   12.0110           0
      3374 MEMB     43       POPC     HA       HAL2     0.900000E-01   1.00800           0
      3375 MEMB     43       POPC     HB       HAL2     0.900000E-01   1.00800           0
      3376 MEMB     43       POPC     C2       CTL1     0.170000       12.0110           0
      3377 MEMB     43       POPC     HS       HAL1     0.900000E-01   1.00800           0
      3378 MEMB     43       POPC     O21      OSL     -0.490000       15.9994           0
      3379 MEMB     43       POPC     C21      CL       0.900000       12.0110           0
      3380 MEMB     43       POPC     O22      OBL     -0.630000       15.9994           0
      3381 MEMB     43       POPC     C22      CTL2    -0.220000       12.0110           0
      3382 MEMB     43       POPC     H2R      HAL2     0.900000E-01   1.00800           0
      3383 MEMB     43       POPC     H2S      HAL2     0.900000E-01   1.00800           0
      3384 MEMB     43       POPC     C3       CTL2     0.800000E-01   12.0110           0
      3385 MEMB     43       POPC     HX       HAL2     0.900000E-01   1.00800           0
      3386 MEMB     43       POPC     HY       HAL2     0.900000E-01   1.00800           0
      3387 MEMB     43       POPC     O31      OSL     -0.490000       15.9994           0
      3388 MEMB     43       POPC     C31      CL       0.900000       12.0110           0
      3389 MEMB     43       POPC     O32      OBL     -0.630000       15.9994           0
      3390 MEMB     43       POPC     C32      CTL2    -0.220000       12.0110           0
      3391 MEMB     43       POPC     H2X      HAL2     0.900000E-01   1.00800           0
      3392 MEMB     43       POPC     H2Y      HAL2     0.900000E-01   1.00800           0
      3393 MEMB     43       POPC     C23      CTL2    -0.180000       12.0110           0
      3394 MEMB     43       POPC     H3R      HAL2     0.900000E-01   1.00800           0
      3395 MEMB     43       POPC     H3S      HAL2     0.900000E-01   1.00800           0
      3396 MEMB     43       POPC     C24      CTL2    -0.180000       12.0110           0
      3397 MEMB     43       POPC     H4R      HAL2     0.900000E-01   1.00800           0
      3398 MEMB     43       POPC     H4S      HAL2     0.900000E-01   1.00800           0
      3399 MEMB     43       POPC     C25      CTL2    -0.180000       12.0110           0
      3400 MEMB     43       POPC     H5R      HAL2     0.900000E-01   1.00800           0
      3401 MEMB     43       POPC     H5S      HAL2     0.900000E-01   1.00800           0
      3402 MEMB     43       POPC     C26      CTL2    -0.180000       12.0110           0
      3403 MEMB     43       POPC     H6R      HAL2     0.900000E-01   1.00800           0
      3404 MEMB     43       POPC     H6S      HAL2     0.900000E-01   1.00800           0
      3405 MEMB     43       POPC     C27      CTL2    -0.180000       12.0110           0
      3406 MEMB     43       POPC     H7R      HAL2     0.900000E-01   1.00800           0
      3407 MEMB     43       POPC     H7S      HAL2     0.900000E-01   1.00800           0
      3408 MEMB     43       POPC     C28      CTL2    -0.180000       12.0110           0
      3409 MEMB     43       POPC     H8R      HAL2     0.900000E-01   1.00800           0
      3410 MEMB     43       POPC     H8S      HAL2     0.900000E-01   1.00800           0
      3411 MEMB     43       POPC     C29      CEL1    -0.150000       12.0110           0
      3412 MEMB     43       POPC     H91      HEL1     0.150000       1.00800           0
      3413 MEMB     43       POPC     C210     CEL1    -0.150000       12.0110           0
      3414 MEMB     43       POPC     H101     HEL1     0.150000       1.00800           0
      3415 MEMB     43       POPC     C211     CTL2    -0.180000       12.0110           0
      3416 MEMB     43       POPC     H11R     HAL2     0.900000E-01   1.00800           0
      3417 MEMB     43       POPC     H11S     HAL2     0.900000E-01   1.00800           0
      3418 MEMB     43       POPC     C212     CTL2    -0.180000       12.0110           0
      3419 MEMB     43       POPC     H12R     HAL2     0.900000E-01   1.00800           0
      3420 MEMB     43       POPC     H12S     HAL2     0.900000E-01   1.00800           0
      3421 MEMB     43       POPC     C213     CTL2    -0.180000       12.0110           0
      3422 MEMB     43       POPC     H13R     HAL2     0.900000E-01   1.00800           0
      3423 MEMB     43       POPC     H13S     HAL2     0.900000E-01   1.00800           0
      3424 MEMB     43       POPC     C214     CTL2    -0.180000       12.0110           0
      3425 MEMB     43       POPC     H14R     HAL2     0.900000E-01   1.00800           0
      3426 MEMB     43       POPC     H14S     HAL2     0.900000E-01   1.00800           0
      3427 MEMB     43       POPC     C215     CTL2    -0.180000       12.0110           0
      3428 MEMB     43       POPC     H15R     HAL2     0.900000E-01   1.00800           0
      3429 MEMB     43       POPC     H15S     HAL2     0.900000E-01   1.00800           0
      3430 MEMB     43       POPC     C216     CTL2    -0.180000       12.0110           0
      3431 MEMB     43       POPC     H16R     HAL2     0.900000E-01   1.00800           0
      3432 MEMB     43       POPC     H16S     HAL2     0.900000E-01   1.00800           0
      3433 MEMB     43       POPC     C217     CTL2    -0.180000       12.0110           0
      3434 MEMB     43       POPC     H17R     HAL2     0.900000E-01   1.00800           0
      3435 MEMB     43       POPC     H17S     HAL2     0.900000E-01   1.00800           0
      3436 MEMB     43       POPC     C218     CTL3    -0.270000       12.0110           0
      3437 MEMB     43       POPC     H18R     HAL3     0.900000E-01   1.00800           0
      3438 MEMB     43       POPC     H18S     HAL3     0.900000E-01   1.00800           0
      3439 MEMB     43       POPC     H18T     HAL3     0.900000E-01   1.00800           0
      3440 MEMB     43       POPC     C33      CTL2    -0.180000       12.0110           0
      3441 MEMB     43       POPC     H3X      HAL2     0.900000E-01   1.00800           0
      3442 MEMB     43       POPC     H3Y      HAL2     0.900000E-01   1.00800           0
      3443 MEMB     43       POPC     C34      CTL2    -0.180000       12.0110           0
      3444 MEMB     43       POPC     H4X      HAL2     0.900000E-01   1.00800           0
      3445 MEMB     43       POPC     H4Y      HAL2     0.900000E-01   1.00800           0
      3446 MEMB     43       POPC     C35      CTL2    -0.180000       12.0110           0
      3447 MEMB     43       POPC     H5X      HAL2     0.900000E-01   1.00800           0
      3448 MEMB     43       POPC     H5Y      HAL2     0.900000E-01   1.00800           0
      3449 MEMB     43       POPC     C36      CTL2    -0.180000       12.0110           0
      3450 MEMB     43       POPC     H6X      HAL2     0.900000E-01   1.00800           0
      3451 MEMB     43       POPC     H6Y      HAL2     0.900000E-01   1.00800           0
      3452 MEMB     43       POPC     C37      CTL2    -0.180000       12.0110           0
      3453 MEMB     43       POPC     H7X      HAL2     0.900000E-01   1.00800           0
      3454 MEMB     43       POPC     H7Y      HAL2     0.900000E-01   1.00800           0
      3455 MEMB     43       POPC     C38      CTL2    -0.180000       12.0110           0
      3456 MEMB     43       POPC     H8X      HAL2     0.900000E-01   1.00800           0
      3457 MEMB     43       POPC     H8Y      HAL2     0.900000E-01   1.00800           0
      3458 MEMB     43       POPC     C39      CTL2    -0.180000       12.0110           0
      3459 MEMB     43       POPC     H9X      HAL2     0.900000E-01   1.00800           0
      3460 MEMB     43       POPC     H9Y      HAL2     0.900000E-01   1.00800           0
      3461 MEMB     43       POPC     C310     CTL2    -0.180000       12.0110           0
      3462 MEMB     43       POPC     H10X     HAL2     0.900000E-01   1.00800           0
      3463 MEMB     43       POPC     H10Y     HAL2     0.900000E-01   1.00800           0
      3464 MEMB     43       POPC     C311     CTL2    -0.180000       12.0110           0
      3465 MEMB     43       POPC     H11X     HAL2     0.900000E-01   1.00800           0
      3466 MEMB     43       POPC     H11Y     HAL2     0.900000E-01   1.00800           0
      3467 MEMB     43       POPC     C312     CTL2    -0.180000       12.0110           0
      3468 MEMB     43       POPC     H12X     HAL2     0.900000E-01   1.00800           0
      3469 MEMB     43       POPC     H12Y     HAL2     0.900000E-01   1.00800           0
      3470 MEMB     43       POPC     C313     CTL2    -0.180000       12.0110           0
      3471 MEMB     43       POPC     H13X     HAL2     0.900000E-01   1.00800           0
      3472 MEMB     43       POPC     H13Y     HAL2     0.900000E-01   1.00800           0
      3473 MEMB     43       POPC     C314     CTL2    -0.180000       12.0110           0
      3474 MEMB     43       POPC     H14X     HAL2     0.900000E-01   1.00800           0
      3475 MEMB     43       POPC     H14Y     HAL2     0.900000E-01   1.00800           0
      3476 MEMB     43       POPC     C315     CTL2    -0.180000       12.0110           0
      3477 MEMB     43       POPC     H15X     HAL2     0.900000E-01   1.00800           0
      3478 MEMB     43       POPC     H15Y     HAL2     0.900000E-01   1.00800           0
      3479 MEMB     43       POPC     C316     CTL3    -0.270000       12.0110           0
      3480 MEMB     43       POPC     H16X     HAL3     0.900000E-01   1.00800           0
      3481 MEMB     43       POPC     H16Y     HAL3     0.900000E-01   1.00800           0
      3482 MEMB     43       POPC     H16Z     HAL3     0.900000E-01   1.00800           0
      3483 MEMB     44       POPE     N        NH3L    -0.300000       14.0070           0
      3484 MEMB     44       POPE     HN1      HCL      0.330000       1.00800           0
      3485 MEMB     44       POPE     HN2      HCL      0.330000       1.00800           0
      3486 MEMB     44       POPE     HN3      HCL      0.330000       1.00800           0
      3487 MEMB     44       POPE     C12      CTL2     0.130000       12.0110           0
      3488 MEMB     44       POPE     H12A     HAL2     0.900000E-01   1.00800           0
      3489 MEMB     44       POPE     H12B     HAL2     0.900000E-01   1.00800           0
      3490 MEMB     44       POPE     C11      CTL2    -0.800000E-01   12.0110           0
      3491 MEMB     44       POPE     H11A     HAL2     0.900000E-01   1.00800           0
      3492 MEMB     44       POPE     H11B     HAL2     0.900000E-01   1.00800           0
      3493 MEMB     44       POPE     P        PL        1.50000       30.9740           0
      3494 MEMB     44       POPE     O13      O2L     -0.780000       15.9994           0
      3495 MEMB     44       POPE     O14      O2L     -0.780000       15.9994           0
      3496 MEMB     44       POPE     O11      OSLP    -0.570000       15.9994           0
      3497 MEMB     44       POPE     O12      OSLP    -0.570000       15.9994           0
      3498 MEMB     44       POPE     C1       CTL2    -0.800000E-01   12.0110           0
      3499 MEMB     44       POPE     HA       HAL2     0.900000E-01   1.00800           0
      3500 MEMB     44       POPE     HB       HAL2     0.900000E-01   1.00800           0
      3501 MEMB     44       POPE     C2       CTL1     0.170000       12.0110           0
      3502 MEMB     44       POPE     HS       HAL1     0.900000E-01   1.00800           0
      3503 MEMB     44       POPE     O21      OSL     -0.490000       15.9994           0
      3504 MEMB     44       POPE     C21      CL       0.900000       12.0110           0
      3505 MEMB     44       POPE     O22      OBL     -0.630000       15.9994           0
      3506 MEMB     44       POPE     C22      CTL2    -0.220000       12.0110           0
      3507 MEMB     44       POPE     H2R      HAL2     0.900000E-01   1.00800           0
      3508 MEMB     44       POPE     H2S      HAL2     0.900000E-01   1.00800           0
      3509 MEMB     44       POPE     C3       CTL2     0.800000E-01   12.0110           0
      3510 MEMB     44       POPE     HX       HAL2     0.900000E-01   1.00800           0
      3511 MEMB     44       POPE     HY       HAL2     0.900000E-01   1.00800           0
      3512 MEMB     44       POPE     O31      OSL     -0.490000       15.9994           0
      3513 MEMB     44       POPE     C31      CL       0.900000       12.0110           0
      3514 MEMB     44       POPE     O32      OBL     -0.630000       15.9994           0
      3515 MEMB     44       POPE     C32      CTL2    -0.220000       12.0110           0
      3516 MEMB     44       POPE     H2X      HAL2     0.900000E-01   1.00800           0
      3517 MEMB     44       POPE     H2Y      HAL2     0.900000E-01   1.00800           0
      3518 MEMB     44       POPE     C23      CTL2    -0.180000       12.0110           0
      3519 MEMB     44       POPE     H3R      HAL2     0.900000E-01   1.00800           0
      3520 MEMB     44       POPE     H3S      HAL2     0.900000E-01   1.00800           0
      3521 MEMB     44       POPE     C24      CTL2    -0.180000       12.0110           0
      3522 MEMB     44       POPE     H4R      HAL2     0.900000E-01   1.00800           0
      3523 MEMB     44       POPE     H4S      HAL2     0.900000E-01   1.00800           0
      3524 MEMB     44       POPE     C25      CTL2    -0.180000       12.0110           0
      3525 MEMB     44       POPE     H5R      HAL2     0.900000E-01   1.00800           0
      3526 MEMB     44       POPE     H5S      HAL2     0.900000E-01   1.00800           0
      3527 MEMB     44       POPE     C26      CTL2    -0.180000       12.0110           0
      3528 MEMB     44       POPE     H6R      HAL2     0.900000E-01   1.00800           0
      3529 MEMB     44       POPE     H6S      HAL2     0.900000E-01   1.00800           0
      3530 MEMB     44       POPE     C27      CTL2    -0.180000       12.0110           0
      3531 MEMB     44       POPE     H7R      HAL2     0.900000E-01   1.00800           0
      3532 MEMB     44       POPE     H7S      HAL2     0.900000E-01   1.00800           0
      3533 MEMB     44       POPE     C28      CTL2    -0.180000       12.0110           0
      3534 MEMB     44       POPE     H8R      HAL2     0.900000E-01   1.00800           0
      3535 MEMB     44       POPE     H8S      HAL2     0.900000E-01   1.00800           0
      3536 MEMB     44       POPE     C29      CEL1    -0.150000       12.0110           0
      3537 MEMB     44       POPE     H91      HEL1     0.150000       1.00800           0
      3538 MEMB     44       POPE     C210     CEL1    -0.150000       12.0110           0
      3539 MEMB     44       POPE     H101     HEL1     0.150000       1.00800           0
      3540 MEMB     44       POPE     C211     CTL2    -0.180000       12.0110           0
      3541 MEMB     44       POPE     H11R     HAL2     0.900000E-01   1.00800           0
      3542 MEMB     44       POPE     H11S     HAL2     0.900000E-01   1.00800           0
      3543 MEMB     44       POPE     C212     CTL2    -0.180000       12.0110           0
      3544 MEMB     44       POPE     H12R     HAL2     0.900000E-01   1.00800           0
      3545 MEMB     44       POPE     H12S     HAL2     0.900000E-01   1.00800           0
      3546 MEMB     44       POPE     C213     CTL2    -0.180000       12.0110           0
      3547 MEMB     44       POPE     H13R     HAL2     0.900000E-01   1.00800           0
      3548 MEMB     44       POPE     H13S     HAL2     0.900000E-01   1.00800           0
      3549 MEMB     44       POPE     C214     CTL2    -0.180000       12.0110           0
      3550 MEMB     44       POPE     H14R     HAL2     0.900000E-01   1.00800           0
      3551 MEMB     44       POPE     H14S     HAL2     0.900000E-01   1.00800           0
      3552 MEMB     44       POPE     C215     CTL2    -0.180000       12.0110           0
      3553 MEMB     44       POPE     H15R     HAL2     0.900000E-01   1.00800           0
      3554 MEMB     44       POPE     H15S     HAL2     0.900000E-01   1.00800           0
      3555 MEMB     44       POPE     C216     CTL2    -0.180000       12.0110           0
      3556 MEMB     44       POPE     H16R     HAL2     0.900000E-01   1.00800           0
      3557 MEMB     44       POPE     H16S     HAL2     0.900000E-01   1.00800           0
      3558 MEMB     44       POPE     C217     CTL2    -0.180000       12.0110           0
      3559 MEMB     44       POPE     H17R     HAL2     0.900000E-01   1.00800           0
      3560 MEMB     44       POPE     H17S     HAL2     0.900000E-01   1.00800           0
      3561 MEMB     44       POPE     C218     CTL3    -0.270000       12.0110           0
      3562 MEMB     44       POPE     H18R     HAL3     0.900000E-01   1.00800           0
      3563 MEMB     44       POPE     H18S     HAL3     0.900000E-01   1.00800           0
      3564 MEMB     44       POPE     H18T     HAL3     0.900000E-01   1.00800           0
      3565 MEMB     44       POPE     C33      CTL2    -0.180000       12.0110           0
      3566 MEMB     44       POPE     H3X      HAL2     0.900000E-01   1.00800           0
      3567 MEMB     44       POPE     H3Y      HAL2     0.900000E-01   1.00800           0
      3568 MEMB     44       POPE     C34      CTL2    -0.180000       12.0110           0
      3569 MEMB     44       POPE     H4X      HAL2     0.900000E-01   1.00800           0
      3570 MEMB     44       POPE     H4Y      HAL2     0.900000E-01   1.00800           0
      3571 MEMB     44       POPE     C35      CTL2    -0.180000       12.0110           0
      3572 MEMB     44       POPE     H5X      HAL2     0.900000E-01   1.00800           0
      3573 MEMB     44       POPE     H5Y      HAL2     0.900000E-01   1.00800           0
      3574 MEMB     44       POPE     C36      CTL2    -0.180000       12.0110           0
      3575 MEMB     44       POPE     H6X      HAL2     0.900000E-01   1.00800           0
      3576 MEMB     44       POPE     H6Y      HAL2     0.900000E-01   1.00800           0
      3577 MEMB     44       POPE     C37      CTL2    -0.180000       12.0110           0
      3578 MEMB     44       POPE     H7X      HAL2     0.900000E-01   1.00800           0
      3579 MEMB     44       POPE     H7Y      HAL2     0.900000E-01   1.00800           0
      3580 MEMB     44       POPE     C38      CTL2    -0.180000       12.0110           0
      3581 MEMB     44       POPE     H8X      HAL2     0.900000E-01   1.00800           0
      3582 MEMB     44       POPE     H8Y      HAL2     0.900000E-01   1.00800           0
      3583 MEMB     44       POPE     C39      CTL2    -0.180000       12.0110           0
      3584 MEMB     44       POPE     H9X      HAL2     0.900000E-01   1.00800           0
      3585 MEMB     44       POPE     H9Y      HAL2     0.900000E-01   1.00800           0
      3586 MEMB     44       POPE     C310     CTL2    -0.180000       12.0110           0
      3587 MEMB     44       POPE     H10X     HAL2     0.900000E-01   1.00800           0
      3588 MEMB     44       POPE     H10Y     HAL2     0.900000E-01   1.00800           0
      3589 MEMB     44       POPE     C311     CTL2    -0.180000       12.0110           0
      3590 MEMB     44       POPE     H11X     HAL2     0.900000E-01   1.00800           0
      3591 MEMB     44       POPE     H11Y     HAL2     0.900000E-01   1.00800           0
      3592 MEMB     44       POPE     C312     CTL2    -0.180000       12.0110           0
      3593 MEMB     44       POPE     H12X     HAL2     0.900000E-01   1.00800           0
      3594 MEMB     44       POPE     H12Y     HAL2     0.900000E-01   1.00800           0
      3595 MEMB     44       POPE     C313     CTL2    -0.180000       12.0110           0
      3596 MEMB     44       POPE     H13X     HAL2     0.900000E-01   1.00800           0
      3597 MEMB     44       POPE     H13Y     HAL2     0.900000E-01   1.00800           0
      3598 MEMB     44       POPE     C314     CTL2    -0.180000       12.0110           0
      3599 MEMB     44       POPE     H14X     HAL2     0.900000E-01   1.00800           0
      3600 MEMB     44       POPE     H14Y     HAL2     0.900000E-01   1.00800           0
      3601 MEMB     44       POPE     C315     CTL2    -0.180000       12.0110           0
      3602 MEMB     44       POPE     H15X     HAL2     0.900000E-01   1.00800           0
      3603 MEMB     44       POPE     H15Y     HAL2     0.900000E-01   1.00800           0
      3604 MEMB     44       POPE     C316     CTL3    -0.270000       12.0110           0
      3605 MEMB     44       POPE     H16X     HAL3     0.900000E-01   1.00800           0
      3606 MEMB     44       POPE     H16Y     HAL3     0.900000E-01   1.00800           0
      3607 MEMB     44       POPE     H16Z     HAL3     0.900000E-01   1.00800           0
      3608 MEMB     45       POPC     N        NTL     -0.600000       14.0070           0
      3609 MEMB     45       POPC     C12      CTL2    -0.100000       12.0110           0
      3610 MEMB     45       POPC     H12A     HL       0.250000       1.00800           0
      3611 MEMB     45       POPC     H12B     HL       0.250000       1.00800           0
      3612 MEMB     45       POPC     C13      CTL5    -0.350000       12.0110           0
      3613 MEMB     45       POPC     H13A     HL       0.250000       1.00800           0
      3614 MEMB     45       POPC     H13B     HL       0.250000       1.00800           0
      3615 MEMB     45       POPC     H13C     HL       0.250000       1.00800           0
      3616 MEMB     45       POPC     C14      CTL5    -0.350000       12.0110           0
      3617 MEMB     45       POPC     H14A     HL       0.250000       1.00800           0
      3618 MEMB     45       POPC     H14B     HL       0.250000       1.00800           0
      3619 MEMB     45       POPC     H14C     HL       0.250000       1.00800           0
      3620 MEMB     45       POPC     C15      CTL5    -0.350000       12.0110           0
      3621 MEMB     45       POPC     H15A     HL       0.250000       1.00800           0
      3622 MEMB     45       POPC     H15B     HL       0.250000       1.00800           0
      3623 MEMB     45       POPC     H15C     HL       0.250000       1.00800           0
      3624 MEMB     45       POPC     C11      CTL2    -0.800000E-01   12.0110           0
      3625 MEMB     45       POPC     H11A     HAL2     0.900000E-01   1.00800           0
      3626 MEMB     45       POPC     H11B     HAL2     0.900000E-01   1.00800           0
      3627 MEMB     45       POPC     P        PL        1.50000       30.9740           0
      3628 MEMB     45       POPC     O13      O2L     -0.780000       15.9994           0
      3629 MEMB     45       POPC     O14      O2L     -0.780000       15.9994           0
      3630 MEMB     45       POPC     O12      OSLP    -0.570000       15.9994           0
      3631 MEMB     45       POPC     O11      OSLP    -0.570000       15.9994           0
      3632 MEMB     45       POPC     C1       CTL2    -0.800000E-01   12.0110           0
      3633 MEMB     45       POPC     HA       HAL2     0.900000E-01   1.00800           0
      3634 MEMB     45       POPC     HB       HAL2     0.900000E-01   1.00800           0
      3635 MEMB     45       POPC     C2       CTL1     0.170000       12.0110           0
      3636 MEMB     45       POPC     HS       HAL1     0.900000E-01   1.00800           0
      3637 MEMB     45       POPC     O21      OSL     -0.490000       15.9994           0
      3638 MEMB     45       POPC     C21      CL       0.900000       12.0110           0
      3639 MEMB     45       POPC     O22      OBL     -0.630000       15.9994           0
      3640 MEMB     45       POPC     C22      CTL2    -0.220000       12.0110           0
      3641 MEMB     45       POPC     H2R      HAL2     0.900000E-01   1.00800           0
      3642 MEMB     45       POPC     H2S      HAL2     0.900000E-01   1.00800           0
      3643 MEMB     45       POPC     C3       CTL2     0.800000E-01   12.0110           0
      3644 MEMB     45       POPC     HX       HAL2     0.900000E-01   1.00800           0
      3645 MEMB     45       POPC     HY       HAL2     0.900000E-01   1.00800           0
      3646 MEMB     45       POPC     O31      OSL     -0.490000       15.9994           0
      3647 MEMB     45       POPC     C31      CL       0.900000       12.0110           0
      3648 MEMB     45       POPC     O32      OBL     -0.630000       15.9994           0
      3649 MEMB     45       POPC     C32      CTL2    -0.220000       12.0110           0
      3650 MEMB     45       POPC     H2X      HAL2     0.900000E-01   1.00800           0
      3651 MEMB     45       POPC     H2Y      HAL2     0.900000E-01   1.00800           0
      3652 MEMB     45       POPC     C23      CTL2    -0.180000       12.0110           0
      3653 MEMB     45       POPC     H3R      HAL2     0.900000E-01   1.00800           0
      3654 MEMB     45       POPC     H3S      HAL2     0.900000E-01   1.00800           0
      3655 MEMB     45       POPC     C24      CTL2    -0.180000       12.0110           0
      3656 MEMB     45       POPC     H4R      HAL2     0.900000E-01   1.00800           0
      3657 MEMB     45       POPC     H4S      HAL2     0.900000E-01   1.00800           0
      3658 MEMB     45       POPC     C25      CTL2    -0.180000       12.0110           0
      3659 MEMB     45       POPC     H5R      HAL2     0.900000E-01   1.00800           0
      3660 MEMB     45       POPC     H5S      HAL2     0.900000E-01   1.00800           0
      3661 MEMB     45       POPC     C26      CTL2    -0.180000       12.0110           0
      3662 MEMB     45       POPC     H6R      HAL2     0.900000E-01   1.00800           0
      3663 MEMB     45       POPC     H6S      HAL2     0.900000E-01   1.00800           0
      3664 MEMB     45       POPC     C27      CTL2    -0.180000       12.0110           0
      3665 MEMB     45       POPC     H7R      HAL2     0.900000E-01   1.00800           0
      3666 MEMB     45       POPC     H7S      HAL2     0.900000E-01   1.00800           0
      3667 MEMB     45       POPC     C28      CTL2    -0.180000       12.0110           0
      3668 MEMB     45       POPC     H8R      HAL2     0.900000E-01   1.00800           0
      3669 MEMB     45       POPC     H8S      HAL2     0.900000E-01   1.00800           0
      3670 MEMB     45       POPC     C29      CEL1    -0.150000       12.0110           0
      3671 MEMB     45       POPC     H91      HEL1     0.150000       1.00800           0
      3672 MEMB     45       POPC     C210     CEL1    -0.150000       12.0110           0
      3673 MEMB     45       POPC     H101     HEL1     0.150000       1.00800           0
      3674 MEMB     45       POPC     C211     CTL2    -0.180000       12.0110           0
      3675 MEMB     45       POPC     H11R     HAL2     0.900000E-01   1.00800           0
      3676 MEMB     45       POPC     H11S     HAL2     0.900000E-01   1.00800           0
      3677 MEMB     45       POPC     C212     CTL2    -0.180000       12.0110           0
      3678 MEMB     45       POPC     H12R     HAL2     0.900000E-01   1.00800           0
      3679 MEMB     45       POPC     H12S     HAL2     0.900000E-01   1.00800           0
      3680 MEMB     45       POPC     C213     CTL2    -0.180000       12.0110           0
      3681 MEMB     45       POPC     H13R     HAL2     0.900000E-01   1.00800           0
      3682 MEMB     45       POPC     H13S     HAL2     0.900000E-01   1.00800           0
      3683 MEMB     45       POPC     C214     CTL2    -0.180000       12.0110           0
      3684 MEMB     45       POPC     H14R     HAL2     0.900000E-01   1.00800           0
      3685 MEMB     45       POPC     H14S     HAL2     0.900000E-01   1.00800           0
      3686 MEMB     45       POPC     C215     CTL2    -0.180000       12.0110           0
      3687 MEMB     45       POPC     H15R     HAL2     0.900000E-01   1.00800           0
      3688 MEMB     45       POPC     H15S     HAL2     0.900000E-01   1.00800           0
      3689 MEMB     45       POPC     C216     CTL2    -0.180000       12.0110           0
      3690 MEMB     45       POPC     H16R     HAL2     0.900000E-01   1.00800           0
      3691 MEMB     45       POPC     H16S     HAL2     0.900000E-01   1.00800           0
      3692 MEMB     45       POPC     C217     CTL2    -0.180000       12.0110           0
      3693 MEMB     45       POPC     H17R     HAL2     0.900000E-01   1.00800           0
      3694 MEMB     45       POPC     H17S     HAL2     0.900000E-01   1.00800           0
      3695 MEMB     45       POPC     C218     CTL3    -0.270000       12.0110           0
      3696 MEMB     45       POPC     H18R     HAL3     0.900000E-01   1.00800           0
      3697 MEMB     45       POPC     H18S     HAL3     0.900000E-01   1.00800           0
      3698 MEMB     45       POPC     H18T     HAL3     0.900000E-01   1.00800           0
      3699 MEMB     45       POPC     C33      CTL2    -0.180000       12.0110           0
      3700 MEMB     45       POPC     H3X      HAL2     0.900000E-01   1.00800           0
      3701 MEMB     45       POPC     H3Y      HAL2     0.900000E-01   1.00800           0
      3702 MEMB     45       POPC     C34      CTL2    -0.180000       12.0110           0
      3703 MEMB     45       POPC     H4X      HAL2     0.900000E-01   1.00800           0
      3704 MEMB     45       POPC     H4Y      HAL2     0.900000E-01   1.00800           0
      3705 MEMB     45       POPC     C35      CTL2    -0.180000       12.0110           0
      3706 MEMB     45       POPC     H5X      HAL2     0.900000E-01   1.00800           0
      3707 MEMB     45       POPC     H5Y      HAL2     0.900000E-01   1.00800           0
      3708 MEMB     45       POPC     C36      CTL2    -0.180000       12.0110           0
      3709 MEMB     45       POPC     H6X      HAL2     0.900000E-01   1.00800           0
      3710 MEMB     45       POPC     H6Y      HAL2     0.900000E-01   1.00800           0
      3711 MEMB     45       POPC     C37      CTL2    -0.180000       12.0110           0
      3712 MEMB     45       POPC     H7X      HAL2     0.900000E-01   1.00800           0
      3713 MEMB     45       POPC     H7Y      HAL2     0.900000E-01   1.00800           0
      3714 MEMB     45       POPC     C38      CTL2    -0.180000       12.0110           0
      3715 MEMB     45       POPC     H8X      HAL2     0.900000E-01   1.00800           0
      3716 MEMB     45       POPC     H8Y      HAL2     0.900000E-01   1.00800           0
      3717 MEMB     45       POPC     C39      CTL2    -0.180000       12.0110           0
      3718 MEMB     45       POPC     H9X      HAL2     0.900000E-01   1.00800           0
      3719 MEMB     45       POPC     H9Y      HAL2     0.900000E-01   1.00800           0
      3720 MEMB     45       POPC     C310     CTL2    -0.180000       12.0110           0
      3721 MEMB     45       POPC     H10X     HAL2     0.900000E-01   1.00800           0
      3722 MEMB     45       POPC     H10Y     HAL2     0.900000E-01   1.00800           0
      3723 MEMB     45       POPC     C311     CTL2    -0.180000       12.0110           0
      3724 MEMB     45       POPC     H11X     HAL2     0.900000E-01   1.00800           0
      3725 MEMB     45       POPC     H11Y     HAL2     0.900000E-01   1.00800           0
      3726 MEMB     45       POPC     C312     CTL2    -0.180000       12.0110           0
      3727 MEMB     45       POPC     H12X     HAL2     0.900000E-01   1.00800           0
      3728 MEMB     45       POPC     H12Y     HAL2     0.900000E-01   1.00800           0
      3729 MEMB     45       POPC     C313     CTL2    -0.180000       12.0110           0
      3730 MEMB     45       POPC     H13X     HAL2     0.900000E-01   1.00800           0
      3731 MEMB     45       POPC     H13Y     HAL2     0.900000E-01   1.00800           0
      3732 MEMB     45       POPC     C314     CTL2    -0.180000       12.0110           0
      3733 MEMB     45       POPC     H14X     HAL2     0.900000E-01   1.00800           0
      3734 MEMB     45       POPC     H14Y     HAL2     0.900000E-01   1.00800           0
      3735 MEMB     45       POPC     C315     CTL2    -0.180000       12.0110           0
      3736 MEMB     45       POPC     H15X     HAL2     0.900000E-01   1.00800           0
      3737 MEMB     45       POPC     H15Y     HAL2     0.900000E-01   1.00800           0
      3738 MEMB     45       POPC     C316     CTL3    -0.270000       12.0110           0
      3739 MEMB     45       POPC     H16X     HAL3     0.900000E-01   1.00800           0
      3740 MEMB     45       POPC     H16Y     HAL3     0.900000E-01   1.00800           0
      3741 MEMB     45       POPC     H16Z     HAL3     0.900000E-01   1.00800           0
      3742 MEMB     46       POPE     N        NH3L    -0.300000       14.0070           0
      3743 MEMB     46       POPE     HN1      HCL      0.330000       1.00800           0
      3744 MEMB     46       POPE     HN2      HCL      0.330000       1.00800           0
      3745 MEMB     46       POPE     HN3      HCL      0.330000       1.00800           0
      3746 MEMB     46       POPE     C12      CTL2     0.130000       12.0110           0
      3747 MEMB     46       POPE     H12A     HAL2     0.900000E-01   1.00800           0
      3748 MEMB     46       POPE     H12B     HAL2     0.900000E-01   1.00800           0
      3749 MEMB     46       POPE     C11      CTL2    -0.800000E-01   12.0110           0
      3750 MEMB     46       POPE     H11A     HAL2     0.900000E-01   1.00800           0
      3751 MEMB     46       POPE     H11B     HAL2     0.900000E-01   1.00800           0
      3752 MEMB     46       POPE     P        PL        1.50000       30.9740           0
      3753 MEMB     46       POPE     O13      O2L     -0.780000       15.9994           0
      3754 MEMB     46       POPE     O14      O2L     -0.780000       15.9994           0
      3755 MEMB     46       POPE     O11      OSLP    -0.570000       15.9994           0
      3756 MEMB     46       POPE     O12      OSLP    -0.570000       15.9994           0
      3757 MEMB     46       POPE     C1       CTL2    -0.800000E-01   12.0110           0
      3758 MEMB     46       POPE     HA       HAL2     0.900000E-01   1.00800           0
      3759 MEMB     46       POPE     HB       HAL2     0.900000E-01   1.00800           0
      3760 MEMB     46       POPE     C2       CTL1     0.170000       12.0110           0
      3761 MEMB     46       POPE     HS       HAL1     0.900000E-01   1.00800           0
      3762 MEMB     46       POPE     O21      OSL     -0.490000       15.9994           0
      3763 MEMB     46       POPE     C21      CL       0.900000       12.0110           0
      3764 MEMB     46       POPE     O22      OBL     -0.630000       15.9994           0
      3765 MEMB     46       POPE     C22      CTL2    -0.220000       12.0110           0
      3766 MEMB     46       POPE     H2R      HAL2     0.900000E-01   1.00800           0
      3767 MEMB     46       POPE     H2S      HAL2     0.900000E-01   1.00800           0
      3768 MEMB     46       POPE     C3       CTL2     0.800000E-01   12.0110           0
      3769 MEMB     46       POPE     HX       HAL2     0.900000E-01   1.00800           0
      3770 MEMB     46       POPE     HY       HAL2     0.900000E-01   1.00800           0
      3771 MEMB     46       POPE     O31      OSL     -0.490000       15.9994           0
      3772 MEMB     46       POPE     C31      CL       0.900000       12.0110           0
      3773 MEMB     46       POPE     O32      OBL     -0.630000       15.9994           0
      3774 MEMB     46       POPE     C32      CTL2    -0.220000       12.0110           0
      3775 MEMB     46       POPE     H2X      HAL2     0.900000E-01   1.00800           0
      3776 MEMB     46       POPE     H2Y      HAL2     0.900000E-01   1.00800           0
      3777 MEMB     46       POPE     C23      CTL2    -0.180000       12.0110           0
      3778 MEMB     46       POPE     H3R      HAL2     0.900000E-01   1.00800           0
      3779 MEMB     46       POPE     H3S      HAL2     0.900000E-01   1.00800           0
      3780 MEMB     46       POPE     C24      CTL2    -0.180000       12.0110           0
      3781 MEMB     46       POPE     H4R      HAL2     0.900000E-01   1.00800           0
      3782 MEMB     46       POPE     H4S      HAL2     0.900000E-01   1.00800           0
      3783 MEMB     46       POPE     C25      CTL2    -0.180000       12.0110           0
      3784 MEMB     46       POPE     H5R      HAL2     0.900000E-01   1.00800           0
      3785 MEMB     46       POPE     H5S      HAL2     0.900000E-01   1.00800           0
      3786 MEMB     46       POPE     C26      CTL2    -0.180000       12.0110           0
      3787 MEMB     46       POPE     H6R      HAL2     0.900000E-01   1.00800           0
      3788 MEMB     46       POPE     H6S      HAL2     0.900000E-01   1.00800           0
      3789 MEMB     46       POPE     C27      CTL2    -0.180000       12.0110           0
      3790 MEMB     46       POPE     H7R      HAL2     0.900000E-01   1.00800           0
      3791 MEMB     46       POPE     H7S      HAL2     0.900000E-01   1.00800           0
      3792 MEMB     46       POPE     C28      CTL2    -0.180000       12.0110           0
      3793 MEMB     46       POPE     H8R      HAL2     0.900000E-01   1.00800           0
      3794 MEMB     46       POPE     H8S      HAL2     0.900000E-01   1.00800           0
      3795 MEMB     46       POPE     C29      CEL1    -0.150000       12.0110           0
      3796 MEMB     46       POPE     H91      HEL1     0.150000       1.00800           0
      3797 MEMB     46       POPE     C210     CEL1    -0.150000       12.0110           0
      3798 MEMB     46       POPE     H101     HEL1     0.150000       1.00800           0
      3799 MEMB     46       POPE     C211     CTL2    -0.180000       12.0110           0
      3800 MEMB     46       POPE     H11R     HAL2     0.900000E-01   1.00800           0
      3801 MEMB     46       POPE     H11S     HAL2     0.900000E-01   1.00800           0
      3802 MEMB     46       POPE     C212     CTL2    -0.180000       12.0110           0
      3803 MEMB     46       POPE     H12R     HAL2     0.900000E-01   1.00800           0
      3804 MEMB     46       POPE     H12S     HAL2     0.900000E-01   1.00800           0
      3805 MEMB     46       POPE     C213     CTL2    -0.180000       12.0110           0
      3806 MEMB     46       POPE     H13R     HAL2     0.900000E-01   1.00800           0
      3807 MEMB     46       POPE     H13S     HAL2     0.900000E-01   1.00800           0
      3808 MEMB     46       POPE     C214     CTL2    -0.180000       12.0110           0
      3809 MEMB     46       POPE     H14R     HAL2     0.900000E-01   1.00800           0
      3810 MEMB     46       POPE     H14S     HAL2     0.900000E-01   1.00800           0
      3811 MEMB     46       POPE     C215     CTL2    -0.180000       12.0110           0
      3812 MEMB     46       POPE     H15R     HAL2     0.900000E-01   1.00800           0
      3813 MEMB     46       POPE     H15S     HAL2     0.900000E-01   1.00800           0
      3814 MEMB     46       POPE     C216     CTL2    -0.180000       12.0110           0
      3815 MEMB     46       POPE     H16R     HAL2     0.900000E-01   1.00800           0
      3816 MEMB     46       POPE     H16S     HAL2     0.900000E-01   1.00800           0
      3817 MEMB     46       POPE     C217     CTL2    -0.180000       12.0110           0
      3818 MEMB     46       POPE     H17R     HAL2     0.900000E-01   1.00800           0
      3819 MEMB     46       POPE     H17S     HAL2     0.900000E-01   1.00800           0
      3820 MEMB     46       POPE     C218     CTL3    -0.270000       12.0110           0
      3821 MEMB     46       POPE     H18R     HAL3     0.900000E-01   1.00800           0
      3822 MEMB     46       POPE     H18S     HAL3     0.900000E-01   1.00800           0
      3823 MEMB     46       POPE     H18T     HAL3     0.900000E-01   1.00800           0
      3824 MEMB     46       POPE     C33      CTL2    -0.180000       12.0110           0
      3825 MEMB     46       POPE     H3X      HAL2     0.900000E-01   1.00800           0
      3826 MEMB     46       POPE     H3Y      HAL2     0.900000E-01   1.00800           0
      3827 MEMB     46       POPE     C34      CTL2    -0.180000       12.0110           0
      3828 MEMB     46       POPE     H4X      HAL2     0.900000E-01   1.00800           0
      3829 MEMB     46       POPE     H4Y      HAL2     0.900000E-01   1.00800           0
      3830 MEMB     46       POPE     C35      CTL2    -0.180000       12.0110           0
      3831 MEMB     46       POPE     H5X      HAL2     0.900000E-01   1.00800           0
      3832 MEMB     46       POPE     H5Y      HAL2     0.900000E-01   1.00800           0
      3833 MEMB     46       POPE     C36      CTL2    -0.180000       12.0110           0
      3834 MEMB     46       POPE     H6X      HAL2     0.900000E-01   1.00800           0
      3835 MEMB     46       POPE     H6Y      HAL2     0.900000E-01   1.00800           0
      3836 MEMB     46       POPE     C37      CTL2    -0.180000       12.0110           0
      3837 MEMB     46       POPE     H7X      HAL2     0.900000E-01   1.00800           0
      3838 MEMB     46       POPE     H7Y      HAL2     0.900000E-01   1.00800           0
      3839 MEMB     46       POPE     C38      CTL2    -0.180000       12.0110           0
      3840 MEMB     46       POPE     H8X      HAL2     0.900000E-01   1.00800           0
      3841 MEMB     46       POPE     H8Y      HAL2     0.900000E-01   1.00800           0
      3842 MEMB     46       POPE     C39      CTL2    -0.180000       12.0110           0
      3843 MEMB     46       POPE     H9X      HAL2     0.900000E-01   1.00800           0
      3844 MEMB     46       POPE     H9Y      HAL2     0.900000E-01   1.00800           0
      3845 MEMB     46       POPE     C310     CTL2    -0.180000       12.0110           0
      3846 MEMB     46       POPE     H10X     HAL2     0.900000E-01   1.00800           0
      3847 MEMB     46       POPE     H10Y     HAL2     0.900000E-01   1.00800           0
      3848 MEMB     46       POPE     C311     CTL2    -0.180000       12.0110           0
      3849 MEMB     46       POPE     H11X     HAL2     0.900000E-01   1.00800           0
      3850 MEMB     46       POPE     H11Y     HAL2     0.900000E-01   1.00800           0
      3851 MEMB     46       POPE     C312     CTL2    -0.180000       12.0110           0
      3852 MEMB     46       POPE     H12X     HAL2     0.900000E-01   1.00800           0
      3853 MEMB     46       POPE     H12Y     HAL2     0.900000E-01   1.00800           0
      3854 MEMB     46       POPE     C313     CTL2    -0.180000       12.0110           0
      3855 MEMB     46       POPE     H13X     HAL2     0.900000E-01   1.00800           0
      3856 MEMB     46       POPE     H13Y     HAL2     0.900000E-01   1.00800           0
      3857 MEMB     46       POPE     C314     CTL2    -0.180000       12.0110           0
      3858 MEMB     46       POPE     H14X     HAL2     0.900000E-01   1.00800           0
      3859 MEMB     46       POPE     H14Y     HAL2     0.900000E-01   1.00800           0
      3860 MEMB     46       POPE     C315     CTL2    -0.180000       12.0110           0
      3861 MEMB     46       POPE     H15X     HAL2     0.900000E-01   1.00800           0
      3862 MEMB     46       POPE     H15Y     HAL2     0.900000E-01   1.00800           0
      3863 MEMB     46       POPE     C316     CTL3    -0.270000       12.0110           0
      3864 MEMB     46       POPE     H16X     HAL3     0.900000E-01   1.00800           0
      3865 MEMB     46       POPE     H16Y     HAL3     0.900000E-01   1.00800           0
      3866 MEMB     46       POPE     H16Z     HAL3     0.900000E-01   1.00800           0
      3867 MEMB     47       POPE     N        NH3L    -0.300000       14.0070           0
      3868 MEMB     47       POPE     HN1      HCL      0.330000       1.00800           0
      3869 MEMB     47       POPE     HN2      HCL      0.330000       1.00800           0
      3870 MEMB     47       POPE     HN3      HCL      0.330000       1.00800           0
      3871 MEMB     47       POPE     C12      CTL2     0.130000       12.0110           0
      3872 MEMB     47       POPE     H12A     HAL2     0.900000E-01   1.00800           0
      3873 MEMB     47       POPE     H12B     HAL2     0.900000E-01   1.00800           0
      3874 MEMB     47       POPE     C11      CTL2    -0.800000E-01   12.0110           0
      3875 MEMB     47       POPE     H11A     HAL2     0.900000E-01   1.00800           0
      3876 MEMB     47       POPE     H11B     HAL2     0.900000E-01   1.00800           0
      3877 MEMB     47       POPE     P        PL        1.50000       30.9740           0
      3878 MEMB     47       POPE     O13      O2L     -0.780000       15.9994           0
      3879 MEMB     47       POPE     O14      O2L     -0.780000       15.9994           0
      3880 MEMB     47       POPE     O11      OSLP    -0.570000       15.9994           0
      3881 MEMB     47       POPE     O12      OSLP    -0.570000       15.9994           0
      3882 MEMB     47       POPE     C1       CTL2    -0.800000E-01   12.0110           0
      3883 MEMB     47       POPE     HA       HAL2     0.900000E-01   1.00800           0
      3884 MEMB     47       POPE     HB       HAL2     0.900000E-01   1.00800           0
      3885 MEMB     47       POPE     C2       CTL1     0.170000       12.0110           0
      3886 MEMB     47       POPE     HS       HAL1     0.900000E-01   1.00800           0
      3887 MEMB     47       POPE     O21      OSL     -0.490000       15.9994           0
      3888 MEMB     47       POPE     C21      CL       0.900000       12.0110           0
      3889 MEMB     47       POPE     O22      OBL     -0.630000       15.9994           0
      3890 MEMB     47       POPE     C22      CTL2    -0.220000       12.0110           0
      3891 MEMB     47       POPE     H2R      HAL2     0.900000E-01   1.00800           0
      3892 MEMB     47       POPE     H2S      HAL2     0.900000E-01   1.00800           0
      3893 MEMB     47       POPE     C3       CTL2     0.800000E-01   12.0110           0
      3894 MEMB     47       POPE     HX       HAL2     0.900000E-01   1.00800           0
      3895 MEMB     47       POPE     HY       HAL2     0.900000E-01   1.00800           0
      3896 MEMB     47       POPE     O31      OSL     -0.490000       15.9994           0
      3897 MEMB     47       POPE     C31      CL       0.900000       12.0110           0
      3898 MEMB     47       POPE     O32      OBL     -0.630000       15.9994           0
      3899 MEMB     47       POPE     C32      CTL2    -0.220000       12.0110           0
      3900 MEMB     47       POPE     H2X      HAL2     0.900000E-01   1.00800           0
      3901 MEMB     47       POPE     H2Y      HAL2     0.900000E-01   1.00800           0
      3902 MEMB     47       POPE     C23      CTL2    -0.180000       12.0110           0
      3903 MEMB     47       POPE     H3R      HAL2     0.900000E-01   1.00800           0
      3904 MEMB     47       POPE     H3S      HAL2     0.900000E-01   1.00800           0
      3905 MEMB     47       POPE     C24      CTL2    -0.180000       12.0110           0
      3906 MEMB     47       POPE     H4R      HAL2     0.900000E-01   1.00800           0
      3907 MEMB     47       POPE     H4S      HAL2     0.900000E-01   1.00800           0
      3908 MEMB     47       POPE     C25      CTL2    -0.180000       12.0110           0
      3909 MEMB     47       POPE     H5R      HAL2     0.900000E-01   1.00800           0
      3910 MEMB     47       POPE     H5S      HAL2     0.900000E-01   1.00800           0
      3911 MEMB     47       POPE     C26      CTL2    -0.180000       12.0110           0
      3912 MEMB     47       POPE     H6R      HAL2     0.900000E-01   1.00800           0
      3913 MEMB     47       POPE     H6S      HAL2     0.900000E-01   1.00800           0
      3914 MEMB     47       POPE     C27      CTL2    -0.180000       12.0110           0
      3915 MEMB     47       POPE     H7R      HAL2     0.900000E-01   1.00800           0
      3916 MEMB     47       POPE     H7S      HAL2     0.900000E-01   1.00800           0
      3917 MEMB     47       POPE     C28      CTL2    -0.180000       12.0110           0
      3918 MEMB     47       POPE     H8R      HAL2     0.900000E-01   1.00800           0
      3919 MEMB     47       POPE     H8S      HAL2     0.900000E-01   1.00800           0
      3920 MEMB     47       POPE     C29      CEL1    -0.150000       12.0110           0
      3921 MEMB     47       POPE     H91      HEL1     0.150000       1.00800           0
      3922 MEMB     47       POPE     C210     CEL1    -0.150000       12.0110           0
      3923 MEMB     47       POPE     H101     HEL1     0.150000       1.00800           0
      3924 MEMB     47       POPE     C211     CTL2    -0.180000       12.0110           0
      3925 MEMB     47       POPE     H11R     HAL2     0.900000E-01   1.00800           0
      3926 MEMB     47       POPE     H11S     HAL2     0.900000E-01   1.00800           0
      3927 MEMB     47       POPE     C212     CTL2    -0.180000       12.0110           0
      3928 MEMB     47       POPE     H12R     HAL2     0.900000E-01   1.00800           0
      3929 MEMB     47       POPE     H12S     HAL2     0.900000E-01   1.00800           0
      3930 MEMB     47       POPE     C213     CTL2    -0.180000       12.0110           0
      3931 MEMB     47       POPE     H13R     HAL2     0.900000E-01   1.00800           0
      3932 MEMB     47       POPE     H13S     HAL2     0.900000E-01   1.00800           0
      3933 MEMB     47       POPE     C214     CTL2    -0.180000       12.0110           0
      3934 MEMB     47       POPE     H14R     HAL2     0.900000E-01   1.00800           0
      3935 MEMB     47       POPE     H14S     HAL2     0.900000E-01   1.00800           0
      3936 MEMB     47       POPE     C215     CTL2    -0.180000       12.0110           0
      3937 MEMB     47       POPE     H15R     HAL2     0.900000E-01   1.00800           0
      3938 MEMB     47       POPE     H15S     HAL2     0.900000E-01   1.00800           0
      3939 MEMB     47       POPE     C216     CTL2    -0.180000       12.0110           0
      3940 MEMB     47       POPE     H16R     HAL2     0.900000E-01   1.00800           0
      3941 MEMB     47       POPE     H16S     HAL2     0.900000E-01   1.00800           0
      3942 MEMB     47       POPE     C217     CTL2    -0.180000       12.0110           0
      3943 MEMB     47       POPE     H17R     HAL2     0.900000E-01   1.00800           0
      3944 MEMB     47       POPE     H17S     HAL2     0.900000E-01   1.00800           0
      3945 MEMB     47       POPE     C218     CTL3    -0.270000       12.0110           0
      3946 MEMB     47       POPE     H18R     HAL3     0.900000E-01   1.00800           0
      3947 MEMB     47       POPE     H18S     HAL3     0.900000E-01   1.00800           0
      3948 MEMB     47       POPE     H18T     HAL3     0.900000E-01   1.00800           0
      3949 MEMB     47       POPE     C33      CTL2    -0.180000       12.0110           0
      3950 MEMB     47       POPE     H3X      HAL2     0.900000E-01   1.00800           0
      3951 MEMB     47       POPE     H3Y      HAL2     0.900000E-01   1.00800           0
      3952 MEMB     47       POPE     C34      CTL2    -0.180000       12.0110           0
      3953 MEMB     47       POPE     H4X      HAL2     0.900000E-01   1.00800           0
      3954 MEMB     47       POPE     H4Y      HAL2     0.900000E-01   1.00800           0
      3955 MEMB     47       POPE     C35      CTL2    -0.180000       12.0110           0
      3956 MEMB     47       POPE     H5X      HAL2     0.900000E-01   1.00800           0
      3957 MEMB     47       POPE     H5Y      HAL2     0.900000E-01   1.00800           0
      3958 MEMB     47       POPE     C36      CTL2    -0.180000       12.0110           0
      3959 MEMB     47       POPE     H6X      HAL2     0.900000E-01   1.00800           0
      3960 MEMB     47       POPE     H6Y      HAL2     0.900000E-01   1.00800           0
      3961 MEMB     47       POPE     C37      CTL2    -0.180000       12.0110           0
      3962 MEMB     47       POPE     H7X      HAL2     0.900000E-01   1.00800           0
      3963 MEMB     47       POPE     H7Y      HAL2     0.900000E-01   1.00800           0
      3964 MEMB     47       POPE     C38      CTL2    -0.180000       12.0110           0
      3965 MEMB     47       POPE     H8X      HAL2     0.900000E-01   1.00800           0
      3966 MEMB     47       POPE     H8Y      HAL2     0.900000E-01   1.00800           0
      3967 MEMB     47       POPE     C39      CTL2    -0.180000       12.0110           0
      3968 MEMB     47       POPE     H9X      HAL2     0.900000E-01   1.00800           0
      3969 MEMB     47       POPE     H9Y      HAL2     0.900000E-01   1.00800           0
      3970 MEMB     47       POPE     C310     CTL2    -0.180000       12.0110           0
      3971 MEMB     47       POPE     H10X     HAL2     0.900000E-01   1.00800           0
      3972 MEMB     47       POPE     H10Y     HAL2     0.900000E-01   1.00800           0
      3973 MEMB     47       POPE     C311     CTL2    -0.180000       12.0110           0
      3974 MEMB     47       POPE     H11X     HAL2     0.900000E-01   1.00800           0
      3975 MEMB     47       POPE     H11Y     HAL2     0.900000E-01   1.00800           0
      3976 MEMB     47       POPE     C312     CTL2    -0.180000       12.0110           0
      3977 MEMB     47       POPE     H12X     HAL2     0.900000E-01   1.00800           0
      3978 MEMB     47       POPE     H12Y     HAL2     0.900000E-01   1.00800           0
      3979 MEMB     47       POPE     C313     CTL2    -0.180000       12.0110           0
      3980 MEMB     47       POPE     H13X     HAL2     0.900000E-01   1.00800           0
      3981 MEMB     47       POPE     H13Y     HAL2     0.900000E-01   1.00800           0
      3982 MEMB     47       POPE     C314     CTL2    -0.180000       12.0110           0
      3983 MEMB     47       POPE     H14X     HAL2     0.900000E-01   1.00800           0
      3984 MEMB     47       POPE     H14Y     HAL2     0.900000E-01   1.00800           0
      3985 MEMB     47       POPE     C315     CTL2    -0.180000       12.0110           0
      3986 MEMB     47       POPE     H15X     HAL2     0.900000E-01   1.00800           0
      3987 MEMB     47       POPE     H15Y     HAL2     0.900000E-01   1.00800           0
      3988 MEMB     47       POPE     C316     CTL3    -0.270000       12.0110           0
      3989 MEMB     47       POPE     H16X     HAL3     0.900000E-01   1.00800           0
      3990 MEMB     47       POPE     H16Y     HAL3     0.900000E-01   1.00800           0
      3991 MEMB     47       POPE     H16Z     HAL3     0.900000E-01   1.00800           0
      3992 MEMB     48       POPE     N        NH3L    -0.300000       14.0070           0
      3993 MEMB     48       POPE     HN1      HCL      0.330000       1.00800           0
      3994 MEMB     48       POPE     HN2      HCL      0.330000       1.00800           0
      3995 MEMB     48       POPE     HN3      HCL      0.330000       1.00800           0
      3996 MEMB     48       POPE     C12      CTL2     0.130000       12.0110           0
      3997 MEMB     48       POPE     H12A     HAL2     0.900000E-01   1.00800           0
      3998 MEMB     48       POPE     H12B     HAL2     0.900000E-01   1.00800           0
      3999 MEMB     48       POPE     C11      CTL2    -0.800000E-01   12.0110           0
      4000 MEMB     48       POPE     H11A     HAL2     0.900000E-01   1.00800           0
      4001 MEMB     48       POPE     H11B     HAL2     0.900000E-01   1.00800           0
      4002 MEMB     48       POPE     P        PL        1.50000       30.9740           0
      4003 MEMB     48       POPE     O13      O2L     -0.780000       15.9994           0
      4004 MEMB     48       POPE     O14      O2L     -0.780000       15.9994           0
      4005 MEMB     48       POPE     O11      OSLP    -0.570000       15.9994           0
      4006 MEMB     48       POPE     O12      OSLP    -0.570000       15.9994           0
      4007 MEMB     48       POPE     C1       CTL2    -0.800000E-01   12.0110           0
      4008 MEMB     48       POPE     HA       HAL2     0.900000E-01   1.00800           0
      4009 MEMB     48       POPE     HB       HAL2     0.900000E-01   1.00800           0
      4010 MEMB     48       POPE     C2       CTL1     0.170000       12.0110           0
      4011 MEMB     48       POPE     HS       HAL1     0.900000E-01   1.00800           0
      4012 MEMB     48       POPE     O21      OSL     -0.490000       15.9994           0
      4013 MEMB     48       POPE     C21      CL       0.900000       12.0110           0
      4014 MEMB     48       POPE     O22      OBL     -0.630000       15.9994           0
      4015 MEMB     48       POPE     C22      CTL2    -0.220000       12.0110           0
      4016 MEMB     48       POPE     H2R      HAL2     0.900000E-01   1.00800           0
      4017 MEMB     48       POPE     H2S      HAL2     0.900000E-01   1.00800           0
      4018 MEMB     48       POPE     C3       CTL2     0.800000E-01   12.0110           0
      4019 MEMB     48       POPE     HX       HAL2     0.900000E-01   1.00800           0
      4020 MEMB     48       POPE     HY       HAL2     0.900000E-01   1.00800           0
      4021 MEMB     48       POPE     O31      OSL     -0.490000       15.9994           0
      4022 MEMB     48       POPE     C31      CL       0.900000       12.0110           0
      4023 MEMB     48       POPE     O32      OBL     -0.630000       15.9994           0
      4024 MEMB     48       POPE     C32      CTL2    -0.220000       12.0110           0
      4025 MEMB     48       POPE     H2X      HAL2     0.900000E-01   1.00800           0
      4026 MEMB     48       POPE     H2Y      HAL2     0.900000E-01   1.00800           0
      4027 MEMB     48       POPE     C23      CTL2    -0.180000       12.0110           0
      4028 MEMB     48       POPE     H3R      HAL2     0.900000E-01   1.00800           0
      4029 MEMB     48       POPE     H3S      HAL2     0.900000E-01   1.00800           0
      4030 MEMB     48       POPE     C24      CTL2    -0.180000       12.0110           0
      4031 MEMB     48       POPE     H4R      HAL2     0.900000E-01   1.00800           0
      4032 MEMB     48       POPE     H4S      HAL2     0.900000E-01   1.00800           0
      4033 MEMB     48       POPE     C25      CTL2    -0.180000       12.0110           0
      4034 MEMB     48       POPE     H5R      HAL2     0.900000E-01   1.00800           0
      4035 MEMB     48       POPE     H5S      HAL2     0.900000E-01   1.00800           0
      4036 MEMB     48       POPE     C26      CTL2    -0.180000       12.0110           0
      4037 MEMB     48       POPE     H6R      HAL2     0.900000E-01   1.00800           0
      4038 MEMB     48       POPE     H6S      HAL2     0.900000E-01   1.00800           0
      4039 MEMB     48       POPE     C27      CTL2    -0.180000       12.0110           0
      4040 MEMB     48       POPE     H7R      HAL2     0.900000E-01   1.00800           0
      4041 MEMB     48       POPE     H7S      HAL2     0.900000E-01   1.00800           0
      4042 MEMB     48       POPE     C28      CTL2    -0.180000       12.0110           0
      4043 MEMB     48       POPE     H8R      HAL2     0.900000E-01   1.00800           0
      4044 MEMB     48       POPE     H8S      HAL2     0.900000E-01   1.00800           0
      4045 MEMB     48       POPE     C29      CEL1    -0.150000       12.0110           0
      4046 MEMB     48       POPE     H91      HEL1     0.150000       1.00800           0
      4047 MEMB     48       POPE     C210     CEL1    -0.150000       12.0110           0
      4048 MEMB     48       POPE     H101     HEL1     0.150000       1.00800           0
      4049 MEMB     48       POPE     C211     CTL2    -0.180000       12.0110           0
      4050 MEMB     48       POPE     H11R     HAL2     0.900000E-01   1.00800           0
      4051 MEMB     48       POPE     H11S     HAL2     0.900000E-01   1.00800           0
      4052 MEMB     48       POPE     C212     CTL2    -0.180000       12.0110           0
      4053 MEMB     48       POPE     H12R     HAL2     0.900000E-01   1.00800           0
      4054 MEMB     48       POPE     H12S     HAL2     0.900000E-01   1.00800           0
      4055 MEMB     48       POPE     C213     CTL2    -0.180000       12.0110           0
      4056 MEMB     48       POPE     H13R     HAL2     0.900000E-01   1.00800           0
      4057 MEMB     48       POPE     H13S     HAL2     0.900000E-01   1.00800           0
      4058 MEMB     48       POPE     C214     CTL2    -0.180000       12.0110           0
      4059 MEMB     48       POPE     H14R     HAL2     0.900000E-01   1.00800           0
      4060 MEMB     48       POPE     H14S     HAL2     0.900000E-01   1.00800           0
      4061 MEMB     48       POPE     C215     CTL2    -0.180000       12.0110           0
      4062 MEMB     48       POPE     H15R     HAL2     0.900000E-01   1.00800           0
      4063 MEMB     48       POPE     H15S     HAL2     0.900000E-01   1.00800           0
      4064 MEMB     48       POPE     C216     CTL2    -0.180000       12.0110           0
      4065 MEMB     48       POPE     H16R     HAL2     0.900000E-01   1.00800           0
      4066 MEMB     48       POPE     H16S     HAL2     0.900000E-01   1.00800           0
      4067 MEMB     48       POPE     C217     CTL2    -0.180000       12.0110           0
      4068 MEMB     48       POPE     H17R     HAL2     0.900000E-01   1.00800           0
      4069 MEMB     48       POPE     H17S     HAL2     0.900000E-01   1.00800           0
      4070 MEMB     48       POPE     C218     CTL3    -0.270000       12.0110           0
      4071 MEMB     48       POPE     H18R     HAL3     0.900000E-01   1.00800           0
      4072 MEMB     48       POPE     H18S     HAL3     0.900000E-01   1.00800           0
      4073 MEMB     48       POPE     H18T     HAL3     0.900000E-01   1.00800           0
      4074 MEMB     48       POPE     C33      CTL2    -0.180000       12.0110           0
      4075 MEMB     48       POPE     H3X      HAL2     0.900000E-01   1.00800           0
      4076 MEMB     48       POPE     H3Y      HAL2     0.900000E-01   1.00800           0
      4077 MEMB     48       POPE     C34      CTL2    -0.180000       12.0110           0
      4078 MEMB     48       POPE     H4X      HAL2     0.900000E-01   1.00800           0
      4079 MEMB     48       POPE     H4Y      HAL2     0.900000E-01   1.00800           0
      4080 MEMB     48       POPE     C35      CTL2    -0.180000       12.0110           0
      4081 MEMB     48       POPE     H5X      HAL2     0.900000E-01   1.00800           0
      4082 MEMB     48       POPE     H5Y      HAL2     0.900000E-01   1.00800           0
      4083 MEMB     48       POPE     C36      CTL2    -0.180000       12.0110           0
      4084 MEMB     48       POPE     H6X      HAL2     0.900000E-01   1.00800           0
      4085 MEMB     48       POPE     H6Y      HAL2     0.900000E-01   1.00800           0
      4086 MEMB     48       POPE     C37      CTL2    -0.180000       12.0110           0
      4087 MEMB     48       POPE     H7X      HAL2     0.900000E-01   1.00800           0
      4088 MEMB     48       POPE     H7Y      HAL2     0.900000E-01   1.00800           0
      4089 MEMB     48       POPE     C38      CTL2    -0.180000       12.0110           0
      4090 MEMB     48       POPE     H8X      HAL2     0.900000E-01   1.00800           0
      4091 MEMB     48       POPE     H8Y      HAL2     0.900000E-01   1.00800           0
      4092 MEMB     48       POPE     C39      CTL2    -0.180000       12.0110           0
      4093 MEMB     48       POPE     H9X      HAL2     0.900000E-01   1.00800           0
      4094 MEMB     48       POPE     H9Y      HAL2     0.900000E-01   1.00800           0
      4095 MEMB     48       POPE     C310     CTL2    -0.180000       12.0110           0
      4096 MEMB     48       POPE     H10X     HAL2     0.900000E-01   1.00800           0
      4097 MEMB     48       POPE     H10Y     HAL2     0.900000E-01   1.00800           0
      4098 MEMB     48       POPE     C311     CTL2    -0.180000       12.0110           0
      4099 MEMB     48       POPE     H11X     HAL2     0.900000E-01   1.00800           0
      4100 MEMB     48       POPE     H11Y     HAL2     0.900000E-01   1.00800           0
      4101 MEMB     48       POPE     C312     CTL2    -0.180000       12.0110           0
      4102 MEMB     48       POPE     H12X     HAL2     0.900000E-01   1.00800           0
      4103 MEMB     48       POPE     H12Y     HAL2     0.900000E-01   1.00800           0
      4104 MEMB     48       POPE     C313     CTL2    -0.180000       12.0110           0
      4105 MEMB     48       POPE     H13X     HAL2     0.900000E-01   1.00800           0
      4106 MEMB     48       POPE     H13Y     HAL2     0.900000E-01   1.00800           0
      4107 MEMB     48       POPE     C314     CTL2    -0.180000       12.0110           0
      4108 MEMB     48       POPE     H14X     HAL2     0.900000E-01   1.00800           0
      4109 MEMB     48       POPE     H14Y     HAL2     0.900000E-01   1.00800           0
      4110 MEMB     48       POPE     C315     CTL2    -0.180000       12.0110           0
      4111 MEMB     48       POPE     H15X     HAL2     0.900000E-01   1.00800           0
      4112 MEMB     48       POPE     H15Y     HAL2     0.900000E-01   1.00800           0
      4113 MEMB     48       POPE     C316     CTL3    -0.270000       12.0110           0
      4114 MEMB     48       POPE     H16X     HAL3     0.900000E-01   1.00800           0
      4115 MEMB     48       POPE     H16Y     HAL3     0.900000E-01   1.00800           0
      4116 MEMB     48       POPE     H16Z     HAL3     0.900000E-01   1.00800           0
      4117 MEMB     49       POPC     N        NTL     -0.600000       14.0070           0
      4118 MEMB     49       POPC     C12      CTL2    -0.100000       12.0110           0
      4119 MEMB     49       POPC     H12A     HL       0.250000       1.00800           0
      4120 MEMB     49       POPC     H12B     HL       0.250000       1.00800           0
      4121 MEMB     49       POPC     C13      CTL5    -0.350000       12.0110           0
      4122 MEMB     49       POPC     H13A     HL       0.250000       1.00800           0
      4123 MEMB     49       POPC     H13B     HL       0.250000       1.00800           0
      4124 MEMB     49       POPC     H13C     HL       0.250000       1.00800           0
      4125 MEMB     49       POPC     C14      CTL5    -0.350000       12.0110           0
      4126 MEMB     49       POPC     H14A     HL       0.250000       1.00800           0
      4127 MEMB     49       POPC     H14B     HL       0.250000       1.00800           0
      4128 MEMB     49       POPC     H14C     HL       0.250000       1.00800           0
      4129 MEMB     49       POPC     C15      CTL5    -0.350000       12.0110           0
      4130 MEMB     49       POPC     H15A     HL       0.250000       1.00800           0
      4131 MEMB     49       POPC     H15B     HL       0.250000       1.00800           0
      4132 MEMB     49       POPC     H15C     HL       0.250000       1.00800           0
      4133 MEMB     49       POPC     C11      CTL2    -0.800000E-01   12.0110           0
      4134 MEMB     49       POPC     H11A     HAL2     0.900000E-01   1.00800           0
      4135 MEMB     49       POPC     H11B     HAL2     0.900000E-01   1.00800           0
      4136 MEMB     49       POPC     P        PL        1.50000       30.9740           0
      4137 MEMB     49       POPC     O13      O2L     -0.780000       15.9994           0
      4138 MEMB     49       POPC     O14      O2L     -0.780000       15.9994           0
      4139 MEMB     49       POPC     O12      OSLP    -0.570000       15.9994           0
      4140 MEMB     49       POPC     O11      OSLP    -0.570000       15.9994           0
      4141 MEMB     49       POPC     C1       CTL2    -0.800000E-01   12.0110           0
      4142 MEMB     49       POPC     HA       HAL2     0.900000E-01   1.00800           0
      4143 MEMB     49       POPC     HB       HAL2     0.900000E-01   1.00800           0
      4144 MEMB     49       POPC     C2       CTL1     0.170000       12.0110           0
      4145 MEMB     49       POPC     HS       HAL1     0.900000E-01   1.00800           0
      4146 MEMB     49       POPC     O21      OSL     -0.490000       15.9994           0
      4147 MEMB     49       POPC     C21      CL       0.900000       12.0110           0
      4148 MEMB     49       POPC     O22      OBL     -0.630000       15.9994           0
      4149 MEMB     49       POPC     C22      CTL2    -0.220000       12.0110           0
      4150 MEMB     49       POPC     H2R      HAL2     0.900000E-01   1.00800           0
      4151 MEMB     49       POPC     H2S      HAL2     0.900000E-01   1.00800           0
      4152 MEMB     49       POPC     C3       CTL2     0.800000E-01   12.0110           0
      4153 MEMB     49       POPC     HX       HAL2     0.900000E-01   1.00800           0
      4154 MEMB     49       POPC     HY       HAL2     0.900000E-01   1.00800           0
      4155 MEMB     49       POPC     O31      OSL     -0.490000       15.9994           0
      4156 MEMB     49       POPC     C31      CL       0.900000       12.0110           0
      4157 MEMB     49       POPC     O32      OBL     -0.630000       15.9994           0
      4158 MEMB     49       POPC     C32      CTL2    -0.220000       12.0110           0
      4159 MEMB     49       POPC     H2X      HAL2     0.900000E-01   1.00800           0
      4160 MEMB     49       POPC     H2Y      HAL2     0.900000E-01   1.00800           0
      4161 MEMB     49       POPC     C23      CTL2    -0.180000       12.0110           0
      4162 MEMB     49       POPC     H3R      HAL2     0.900000E-01   1.00800           0
      4163 MEMB     49       POPC     H3S      HAL2     0.900000E-01   1.00800           0
      4164 MEMB     49       POPC     C24      CTL2    -0.180000       12.0110           0
      4165 MEMB     49       POPC     H4R      HAL2     0.900000E-01   1.00800           0
      4166 MEMB     49       POPC     H4S      HAL2     0.900000E-01   1.00800           0
      4167 MEMB     49       POPC     C25      CTL2    -0.180000       12.0110           0
      4168 MEMB     49       POPC     H5R      HAL2     0.900000E-01   1.00800           0
      4169 MEMB     49       POPC     H5S      HAL2     0.900000E-01   1.00800           0
      4170 MEMB     49       POPC     C26      CTL2    -0.180000       12.0110           0
      4171 MEMB     49       POPC     H6R      HAL2     0.900000E-01   1.00800           0
      4172 MEMB     49       POPC     H6S      HAL2     0.900000E-01   1.00800           0
      4173 MEMB     49       POPC     C27      CTL2    -0.180000       12.0110           0
      4174 MEMB     49       POPC     H7R      HAL2     0.900000E-01   1.00800           0
      4175 MEMB     49       POPC     H7S      HAL2     0.900000E-01   1.00800           0
      4176 MEMB     49       POPC     C28      CTL2    -0.180000       12.0110           0
      4177 MEMB     49       POPC     H8R      HAL2     0.900000E-01   1.00800           0
      4178 MEMB     49       POPC     H8S      HAL2     0.900000E-01   1.00800           0
      4179 MEMB     49       POPC     C29      CEL1    -0.150000       12.0110           0
      4180 MEMB     49       POPC     H91      HEL1     0.150000       1.00800           0
      4181 MEMB     49       POPC     C210     CEL1    -0.150000       12.0110           0
      4182 MEMB     49       POPC     H101     HEL1     0.150000       1.00800           0
      4183 MEMB     49       POPC     C211     CTL2    -0.180000       12.0110           0
      4184 MEMB     49       POPC     H11R     HAL2     0.900000E-01   1.00800           0
      4185 MEMB     49       POPC     H11S     HAL2     0.900000E-01   1.00800           0
      4186 MEMB     49       POPC     C212     CTL2    -0.180000       12.0110           0
      4187 MEMB     49       POPC     H12R     HAL2     0.900000E-01   1.00800           0
      4188 MEMB     49       POPC     H12S     HAL2     0.900000E-01   1.00800           0
      4189 MEMB     49       POPC     C213     CTL2    -0.180000       12.0110           0
      4190 MEMB     49       POPC     H13R     HAL2     0.900000E-01   1.00800           0
      4191 MEMB     49       POPC     H13S     HAL2     0.900000E-01   1.00800           0
      4192 MEMB     49       POPC     C214     CTL2    -0.180000       12.0110           0
      4193 MEMB     49       POPC     H14R     HAL2     0.900000E-01   1.00800           0
      4194 MEMB     49       POPC     H14S     HAL2     0.900000E-01   1.00800           0
      4195 MEMB     49       POPC     C215     CTL2    -0.180000       12.0110           0
      4196 MEMB     49       POPC     H15R     HAL2     0.900000E-01   1.00800           0
      4197 MEMB     49       POPC     H15S     HAL2     0.900000E-01   1.00800           0
      4198 MEMB     49       POPC     C216     CTL2    -0.180000       12.0110           0
      4199 MEMB     49       POPC     H16R     HAL2     0.900000E-01   1.00800           0
      4200 MEMB     49       POPC     H16S     HAL2     0.900000E-01   1.00800           0
      4201 MEMB     49       POPC     C217     CTL2    -0.180000       12.0110           0
      4202 MEMB     49       POPC     H17R     HAL2     0.900000E-01   1.00800           0
      4203 MEMB     49       POPC     H17S     HAL2     0.900000E-01   1.00800           0
      4204 MEMB     49       POPC     C218     CTL3    -0.270000       12.0110           0
      4205 MEMB     49       POPC     H18R     HAL3     0.900000E-01   1.00800           0
      4206 MEMB     49       POPC     H18S     HAL3     0.900000E-01   1.00800           0
      4207 MEMB     49       POPC     H18T     HAL3     0.900000E-01   1.00800           0
      4208 MEMB     49       POPC     C33      CTL2    -0.180000       12.0110           0
      4209 MEMB     49       POPC     H3X      HAL2     0.900000E-01   1.00800           0
      4210 MEMB     49       POPC     H3Y      HAL2     0.900000E-01   1.00800           0
      4211 MEMB     49       POPC     C34      CTL2    -0.180000       12.0110           0
      4212 MEMB     49       POPC     H4X      HAL2     0.900000E-01   1.00800           0
      4213 MEMB     49       POPC     H4Y      HAL2     0.900000E-01   1.00800           0
      4214 MEMB     49       POPC     C35      CTL2    -0.180000       12.0110           0
      4215 MEMB     49       POPC     H5X      HAL2     0.900000E-01   1.00800           0
      4216 MEMB     49       POPC     H5Y      HAL2     0.900000E-01   1.00800           0
      4217 MEMB     49       POPC     C36      CTL2    -0.180000       12.0110           0
      4218 MEMB     49       POPC     H6X      HAL2     0.900000E-01   1.00800           0
      4219 MEMB     49       POPC     H6Y      HAL2     0.900000E-01   1.00800           0
      4220 MEMB     49       POPC     C37      CTL2    -0.180000       12.0110           0
      4221 MEMB     49       POPC     H7X      HAL2     0.900000E-01   1.00800           0
      4222 MEMB     49       POPC     H7Y      HAL2     0.900000E-01   1.00800           0
      4223 MEMB     49       POPC     C38      CTL2    -0.180000       12.0110           0
      4224 MEMB     49       POPC     H8X      HAL2     0.900000E-01   1.00800           0
      4225 MEMB     49       POPC     H8Y      HAL2     0.900000E-01   1.00800           0
      4226 MEMB     49       POPC     C39      CTL2    -0.180000       12.0110           0
      4227 MEMB     49       POPC     H9X      HAL2     0.900000E-01   1.00800           0
      4228 MEMB     49       POPC     H9Y      HAL2     0.900000E-01   1.00800           0
      4229 MEMB     49       POPC     C310     CTL2    -0.180000       12.0110           0
      4230 MEMB     49       POPC     H10X     HAL2     0.900000E-01   1.00800           0
      4231 MEMB     49       POPC     H10Y     HAL2     0.900000E-01   1.00800           0
      4232 MEMB     49       POPC     C311     CTL2    -0.180000       12.0110           0
      4233 MEMB     49       POPC     H11X     HAL2     0.900000E-01   1.00800           0
      4234 MEMB     49       POPC     H11Y     HAL2     0.900000E-01   1.00800           0
      4235 MEMB     49       POPC     C312     CTL2    -0.180000       12.0110           0
      4236 MEMB     49       POPC     H12X     HAL2     0.900000E-01   1.00800           0
      4237 MEMB     49       POPC     H12Y     HAL2     0.900000E-01   1.00800           0
      4238 MEMB     49       POPC     C313     CTL2    -0.180000       12.0110           0
      4239 MEMB     49       POPC     H13X     HAL2     0.900000E-01   1.00800           0
      4240 MEMB     49       POPC     H13Y     HAL2     0.900000E-01   1.00800           0
      4241 MEMB     49       POPC     C314     CTL2    -0.180000       12.0110           0
      4242 MEMB     49       POPC     H14X     HAL2     0.900000E-01   1.00800           0
      4243 MEMB     49       POPC     H14Y     HAL2     0.900000E-01   1.00800           0
      4244 MEMB     49       POPC     C315     CTL2    -0.180000       12.0110           0
      4245 MEMB     49       POPC     H15X     HAL2     0.900000E-01   1.00800           0
      4246 MEMB     49       POPC     H15Y     HAL2     0.900000E-01   1.00800           0
      4247 MEMB     49       POPC     C316     CTL3    -0.270000       12.0110           0
      4248 MEMB     49       POPC     H16X     HAL3     0.900000E-01   1.00800           0
      4249 MEMB     49       POPC     H16Y     HAL3     0.900000E-01   1.00800           0
      4250 MEMB     49       POPC     H16Z     HAL3     0.900000E-01   1.00800           0
      4251 MEMB     50       POPC     N        NTL     -0.600000       14.0070           0
      4252 MEMB     50       POPC     C12      CTL2    -0.100000       12.0110           0
      4253 MEMB     50       POPC     H12A     HL       0.250000       1.00800           0
      4254 MEMB     50       POPC     H12B     HL       0.250000       1.00800           0
      4255 MEMB     50       POPC     C13      CTL5    -0.350000       12.0110           0
      4256 MEMB     50       POPC     H13A     HL       0.250000       1.00800           0
      4257 MEMB     50       POPC     H13B     HL       0.250000       1.00800           0
      4258 MEMB     50       POPC     H13C     HL       0.250000       1.00800           0
      4259 MEMB     50       POPC     C14      CTL5    -0.350000       12.0110           0
      4260 MEMB     50       POPC     H14A     HL       0.250000       1.00800           0
      4261 MEMB     50       POPC     H14B     HL       0.250000       1.00800           0
      4262 MEMB     50       POPC     H14C     HL       0.250000       1.00800           0
      4263 MEMB     50       POPC     C15      CTL5    -0.350000       12.0110           0
      4264 MEMB     50       POPC     H15A     HL       0.250000       1.00800           0
      4265 MEMB     50       POPC     H15B     HL       0.250000       1.00800           0
      4266 MEMB     50       POPC     H15C     HL       0.250000       1.00800           0
      4267 MEMB     50       POPC     C11      CTL2    -0.800000E-01   12.0110           0
      4268 MEMB     50       POPC     H11A     HAL2     0.900000E-01   1.00800           0
      4269 MEMB     50       POPC     H11B     HAL2     0.900000E-01   1.00800           0
      4270 MEMB     50       POPC     P        PL        1.50000       30.9740           0
      4271 MEMB     50       POPC     O13      O2L     -0.780000       15.9994           0
      4272 MEMB     50       POPC     O14      O2L     -0.780000       15.9994           0
      4273 MEMB     50       POPC     O12      OSLP    -0.570000       15.9994           0
      4274 MEMB     50       POPC     O11      OSLP    -0.570000       15.9994           0
      4275 MEMB     50       POPC     C1       CTL2    -0.800000E-01   12.0110           0
      4276 MEMB     50       POPC     HA       HAL2     0.900000E-01   1.00800           0
      4277 MEMB     50       POPC     HB       HAL2     0.900000E-01   1.00800           0
      4278 MEMB     50       POPC     C2       CTL1     0.170000       12.0110           0
      4279 MEMB     50       POPC     HS       HAL1     0.900000E-01   1.00800           0
      4280 MEMB     50       POPC     O21      OSL     -0.490000       15.9994           0
      4281 MEMB     50       POPC     C21      CL       0.900000       12.0110           0
      4282 MEMB     50       POPC     O22      OBL     -0.630000       15.9994           0
      4283 MEMB     50       POPC     C22      CTL2    -0.220000       12.0110           0
      4284 MEMB     50       POPC     H2R      HAL2     0.900000E-01   1.00800           0
      4285 MEMB     50       POPC     H2S      HAL2     0.900000E-01   1.00800           0
      4286 MEMB     50       POPC     C3       CTL2     0.800000E-01   12.0110           0
      4287 MEMB     50       POPC     HX       HAL2     0.900000E-01   1.00800           0
      4288 MEMB     50       POPC     HY       HAL2     0.900000E-01   1.00800           0
      4289 MEMB     50       POPC     O31      OSL     -0.490000       15.9994           0
      4290 MEMB     50       POPC     C31      CL       0.900000       12.0110           0
      4291 MEMB     50       POPC     O32      OBL     -0.630000       15.9994           0
      4292 MEMB     50       POPC     C32      CTL2    -0.220000       12.0110           0
      4293 MEMB     50       POPC     H2X      HAL2     0.900000E-01   1.00800           0
      4294 MEMB     50       POPC     H2Y      HAL2     0.900000E-01   1.00800           0
      4295 MEMB     50       POPC     C23      CTL2    -0.180000       12.0110           0
      4296 MEMB     50       POPC     H3R      HAL2     0.900000E-01   1.00800           0
      4297 MEMB     50       POPC     H3S      HAL2     0.900000E-01   1.00800           0
      4298 MEMB     50       POPC     C24      CTL2    -0.180000       12.0110           0
      4299 MEMB     50       POPC     H4R      HAL2     0.900000E-01   1.00800           0
      4300 MEMB     50       POPC     H4S      HAL2     0.900000E-01   1.00800           0
      4301 MEMB     50       POPC     C25      CTL2    -0.180000       12.0110           0
      4302 MEMB     50       POPC     H5R      HAL2     0.900000E-01   1.00800           0
      4303 MEMB     50       POPC     H5S      HAL2     0.900000E-01   1.00800           0
      4304 MEMB     50       POPC     C26      CTL2    -0.180000       12.0110           0
      4305 MEMB     50       POPC     H6R      HAL2     0.900000E-01   1.00800           0
      4306 MEMB     50       POPC     H6S      HAL2     0.900000E-01   1.00800           0
      4307 MEMB     50       POPC     C27      CTL2    -0.180000       12.0110           0
      4308 MEMB     50       POPC     H7R      HAL2     0.900000E-01   1.00800           0
      4309 MEMB     50       POPC     H7S      HAL2     0.900000E-01   1.00800           0
      4310 MEMB     50       POPC     C28      CTL2    -0.180000       12.0110           0
      4311 MEMB     50       POPC     H8R      HAL2     0.900000E-01   1.00800           0
      4312 MEMB     50       POPC     H8S      HAL2     0.900000E-01   1.00800           0
      4313 MEMB     50       POPC     C29      CEL1    -0.150000       12.0110           0
      4314 MEMB     50       POPC     H91      HEL1     0.150000       1.00800           0
      4315 MEMB     50       POPC     C210     CEL1    -0.150000       12.0110           0
      4316 MEMB     50       POPC     H101     HEL1     0.150000       1.00800           0
      4317 MEMB     50       POPC     C211     CTL2    -0.180000       12.0110           0
      4318 MEMB     50       POPC     H11R     HAL2     0.900000E-01   1.00800           0
      4319 MEMB     50       POPC     H11S     HAL2     0.900000E-01   1.00800           0
      4320 MEMB     50       POPC     C212     CTL2    -0.180000       12.0110           0
      4321 MEMB     50       POPC     H12R     HAL2     0.900000E-01   1.00800           0
      4322 MEMB     50       POPC     H12S     HAL2     0.900000E-01   1.00800           0
      4323 MEMB     50       POPC     C213     CTL2    -0.180000       12.0110           0
      4324 MEMB     50       POPC     H13R     HAL2     0.900000E-01   1.00800           0
      4325 MEMB     50       POPC     H13S     HAL2     0.900000E-01   1.00800           0
      4326 MEMB     50       POPC     C214     CTL2    -0.180000       12.0110           0
      4327 MEMB     50       POPC     H14R     HAL2     0.900000E-01   1.00800           0
      4328 MEMB     50       POPC     H14S     HAL2     0.900000E-01   1.00800           0
      4329 MEMB     50       POPC     C215     CTL2    -0.180000       12.0110           0
      4330 MEMB     50       POPC     H15R     HAL2     0.900000E-01   1.00800           0
      4331 MEMB     50       POPC     H15S     HAL2     0.900000E-01   1.00800           0
      4332 MEMB     50       POPC     C216     CTL2    -0.180000       12.0110           0
      4333 MEMB     50       POPC     H16R     HAL2     0.900000E-01   1.00800           0
      4334 MEMB     50       POPC     H16S     HAL2     0.900000E-01   1.00800           0
      4335 MEMB     50       POPC     C217     CTL2    -0.180000       12.0110           0
      4336 MEMB     50       POPC     H17R     HAL2     0.900000E-01   1.00800           0
      4337 MEMB     50       POPC     H17S     HAL2     0.900000E-01   1.00800           0
      4338 MEMB     50       POPC     C218     CTL3    -0.270000       12.0110           0
      4339 MEMB     50       POPC     H18R     HAL3     0.900000E-01   1.00800           0
      4340 MEMB     50       POPC     H18S     HAL3     0.900000E-01   1.00800           0
      4341 MEMB     50       POPC     H18T     HAL3     0.900000E-01   1.00800           0
      4342 MEMB     50       POPC     C33      CTL2    -0.180000       12.0110           0
      4343 MEMB     50       POPC     H3X      HAL2     0.900000E-01   1.00800           0
      4344 MEMB     50       POPC     H3Y      HAL2     0.900000E-01   1.00800           0
      4345 MEMB     50       POPC     C34      CTL2    -0.180000       12.0110           0
      4346 MEMB     50       POPC     H4X      HAL2     0.900000E-01   1.00800           0
      4347 MEMB     50       POPC     H4Y      HAL2     0.900000E-01   1.00800           0
      4348 MEMB     50       POPC     C35      CTL2    -0.180000       12.0110           0
      4349 MEMB     50       POPC     H5X      HAL2     0.900000E-01   1.00800           0
      4350 MEMB     50       POPC     H5Y      HAL2     0.900000E-01   1.00800           0
      4351 MEMB     50       POPC     C36      CTL2    -0.180000       12.0110           0
      4352 MEMB     50       POPC     H6X      HAL2     0.900000E-01   1.00800           0
      4353 MEMB     50       POPC     H6Y      HAL2     0.900000E-01   1.00800           0
      4354 MEMB     50       POPC     C37      CTL2    -0.180000       12.0110           0
      4355 MEMB     50       POPC     H7X      HAL2     0.900000E-01   1.00800           0
      4356 MEMB     50       POPC     H7Y      HAL2     0.900000E-01   1.00800           0
      4357 MEMB     50       POPC     C38      CTL2    -0.180000       12.0110           0
      4358 MEMB     50       POPC     H8X      HAL2     0.900000E-01   1.00800           0
      4359 MEMB     50       POPC     H8Y      HAL2     0.900000E-01   1.00800           0
      4360 MEMB     50       POPC     C39      CTL2    -0.180000       12.0110           0
      4361 MEMB     50       POPC     H9X      HAL2     0.900000E-01   1.00800           0
      4362 MEMB     50       POPC     H9Y      HAL2     0.900000E-01   1.00800           0
      4363 MEMB     50       POPC     C310     CTL2    -0.180000       12.0110           0
      4364 MEMB     50       POPC     H10X     HAL2     0.900000E-01   1.00800           0
      4365 MEMB     50       POPC     H10Y     HAL2     0.900000E-01   1.00800           0
      4366 MEMB     50       POPC     C311     CTL2    -0.180000       12.0110           0
      4367 MEMB     50       POPC     H11X     HAL2     0.900000E-01   1.00800           0
      4368 MEMB     50       POPC     H11Y     HAL2     0.900000E-01   1.00800           0
      4369 MEMB     50       POPC     C312     CTL2    -0.180000       12.0110           0
      4370 MEMB     50       POPC     H12X     HAL2     0.900000E-01   1.00800           0
      4371 MEMB     50       POPC     H12Y     HAL2     0.900000E-01   1.00800           0
      4372 MEMB     50       POPC     C313     CTL2    -0.180000       12.0110           0
      4373 MEMB     50       POPC     H13X     HAL2     0.900000E-01   1.00800           0
      4374 MEMB     50       POPC     H13Y     HAL2     0.900000E-01   1.00800           0
      4375 MEMB     50       POPC     C314     CTL2    -0.180000       12.0110           0
      4376 MEMB     50       POPC     H14X     HAL2     0.900000E-01   1.00800           0
      4377 MEMB     50       POPC     H14Y     HAL2     0.900000E-01   1.00800           0
      4378 MEMB     50       POPC     C315     CTL2    -0.180000       12.0110           0
      4379 MEMB     50       POPC     H15X     HAL2     0.900000E-01   1.00800           0
      4380 MEMB     50       POPC     H15Y     HAL2     0.900000E-01   1.00800           0
      4381 MEMB     50       POPC     C316     CTL3    -0.270000       12.0110           0
      4382 MEMB     50       POPC     H16X     HAL3     0.900000E-01   1.00800           0
      4383 MEMB     50       POPC     H16Y     HAL3     0.900000E-01   1.00800           0
      4384 MEMB     50       POPC     H16Z     HAL3     0.900000E-01   1.00800           0
      4385 MEMB     51       POPC     N        NTL     -0.600000       14.0070           0
      4386 MEMB     51       POPC     C12      CTL2    -0.100000       12.0110           0
      4387 MEMB     51       POPC     H12A     HL       0.250000       1.00800           0
      4388 MEMB     51       POPC     H12B     HL       0.250000       1.00800           0
      4389 MEMB     51       POPC     C13      CTL5    -0.350000       12.0110           0
      4390 MEMB     51       POPC     H13A     HL       0.250000       1.00800           0
      4391 MEMB     51       POPC     H13B     HL       0.250000       1.00800           0
      4392 MEMB     51       POPC     H13C     HL       0.250000       1.00800           0
      4393 MEMB     51       POPC     C14      CTL5    -0.350000       12.0110           0
      4394 MEMB     51       POPC     H14A     HL       0.250000       1.00800           0
      4395 MEMB     51       POPC     H14B     HL       0.250000       1.00800           0
      4396 MEMB     51       POPC     H14C     HL       0.250000       1.00800           0
      4397 MEMB     51       POPC     C15      CTL5    -0.350000       12.0110           0
      4398 MEMB     51       POPC     H15A     HL       0.250000       1.00800           0
      4399 MEMB     51       POPC     H15B     HL       0.250000       1.00800           0
      4400 MEMB     51       POPC     H15C     HL       0.250000       1.00800           0
      4401 MEMB     51       POPC     C11      CTL2    -0.800000E-01   12.0110           0
      4402 MEMB     51       POPC     H11A     HAL2     0.900000E-01   1.00800           0
      4403 MEMB     51       POPC     H11B     HAL2     0.900000E-01   1.00800           0
      4404 MEMB     51       POPC     P        PL        1.50000       30.9740           0
      4405 MEMB     51       POPC     O13      O2L     -0.780000       15.9994           0
      4406 MEMB     51       POPC     O14      O2L     -0.780000       15.9994           0
      4407 MEMB     51       POPC     O12      OSLP    -0.570000       15.9994           0
      4408 MEMB     51       POPC     O11      OSLP    -0.570000       15.9994           0
      4409 MEMB     51       POPC     C1       CTL2    -0.800000E-01   12.0110           0
      4410 MEMB     51       POPC     HA       HAL2     0.900000E-01   1.00800           0
      4411 MEMB     51       POPC     HB       HAL2     0.900000E-01   1.00800           0
      4412 MEMB     51       POPC     C2       CTL1     0.170000       12.0110           0
      4413 MEMB     51       POPC     HS       HAL1     0.900000E-01   1.00800           0
      4414 MEMB     51       POPC     O21      OSL     -0.490000       15.9994           0
      4415 MEMB     51       POPC     C21      CL       0.900000       12.0110           0
      4416 MEMB     51       POPC     O22      OBL     -0.630000       15.9994           0
      4417 MEMB     51       POPC     C22      CTL2    -0.220000       12.0110           0
      4418 MEMB     51       POPC     H2R      HAL2     0.900000E-01   1.00800           0
      4419 MEMB     51       POPC     H2S      HAL2     0.900000E-01   1.00800           0
      4420 MEMB     51       POPC     C3       CTL2     0.800000E-01   12.0110           0
      4421 MEMB     51       POPC     HX       HAL2     0.900000E-01   1.00800           0
      4422 MEMB     51       POPC     HY       HAL2     0.900000E-01   1.00800           0
      4423 MEMB     51       POPC     O31      OSL     -0.490000       15.9994           0
      4424 MEMB     51       POPC     C31      CL       0.900000       12.0110           0
      4425 MEMB     51       POPC     O32      OBL     -0.630000       15.9994           0
      4426 MEMB     51       POPC     C32      CTL2    -0.220000       12.0110           0
      4427 MEMB     51       POPC     H2X      HAL2     0.900000E-01   1.00800           0
      4428 MEMB     51       POPC     H2Y      HAL2     0.900000E-01   1.00800           0
      4429 MEMB     51       POPC     C23      CTL2    -0.180000       12.0110           0
      4430 MEMB     51       POPC     H3R      HAL2     0.900000E-01   1.00800           0
      4431 MEMB     51       POPC     H3S      HAL2     0.900000E-01   1.00800           0
      4432 MEMB     51       POPC     C24      CTL2    -0.180000       12.0110           0
      4433 MEMB     51       POPC     H4R      HAL2     0.900000E-01   1.00800           0
      4434 MEMB     51       POPC     H4S      HAL2     0.900000E-01   1.00800           0
      4435 MEMB     51       POPC     C25      CTL2    -0.180000       12.0110           0
      4436 MEMB     51       POPC     H5R      HAL2     0.900000E-01   1.00800           0
      4437 MEMB     51       POPC     H5S      HAL2     0.900000E-01   1.00800           0
      4438 MEMB     51       POPC     C26      CTL2    -0.180000       12.0110           0
      4439 MEMB     51       POPC     H6R      HAL2     0.900000E-01   1.00800           0
      4440 MEMB     51       POPC     H6S      HAL2     0.900000E-01   1.00800           0
      4441 MEMB     51       POPC     C27      CTL2    -0.180000       12.0110           0
      4442 MEMB     51       POPC     H7R      HAL2     0.900000E-01   1.00800           0
      4443 MEMB     51       POPC     H7S      HAL2     0.900000E-01   1.00800           0
      4444 MEMB     51       POPC     C28      CTL2    -0.180000       12.0110           0
      4445 MEMB     51       POPC     H8R      HAL2     0.900000E-01   1.00800           0
      4446 MEMB     51       POPC     H8S      HAL2     0.900000E-01   1.00800           0
      4447 MEMB     51       POPC     C29      CEL1    -0.150000       12.0110           0
      4448 MEMB     51       POPC     H91      HEL1     0.150000       1.00800           0
      4449 MEMB     51       POPC     C210     CEL1    -0.150000       12.0110           0
      4450 MEMB     51       POPC     H101     HEL1     0.150000       1.00800           0
      4451 MEMB     51       POPC     C211     CTL2    -0.180000       12.0110           0
      4452 MEMB     51       POPC     H11R     HAL2     0.900000E-01   1.00800           0
      4453 MEMB     51       POPC     H11S     HAL2     0.900000E-01   1.00800           0
      4454 MEMB     51       POPC     C212     CTL2    -0.180000       12.0110           0
      4455 MEMB     51       POPC     H12R     HAL2     0.900000E-01   1.00800           0
      4456 MEMB     51       POPC     H12S     HAL2     0.900000E-01   1.00800           0
      4457 MEMB     51       POPC     C213     CTL2    -0.180000       12.0110           0
      4458 MEMB     51       POPC     H13R     HAL2     0.900000E-01   1.00800           0
      4459 MEMB     51       POPC     H13S     HAL2     0.900000E-01   1.00800           0
      4460 MEMB     51       POPC     C214     CTL2    -0.180000       12.0110           0
      4461 MEMB     51       POPC     H14R     HAL2     0.900000E-01   1.00800           0
      4462 MEMB     51       POPC     H14S     HAL2     0.900000E-01   1.00800           0
      4463 MEMB     51       POPC     C215     CTL2    -0.180000       12.0110           0
      4464 MEMB     51       POPC     H15R     HAL2     0.900000E-01   1.00800           0
      4465 MEMB     51       POPC     H15S     HAL2     0.900000E-01   1.00800           0
      4466 MEMB     51       POPC     C216     CTL2    -0.180000       12.0110           0
      4467 MEMB     51       POPC     H16R     HAL2     0.900000E-01   1.00800           0
      4468 MEMB     51       POPC     H16S     HAL2     0.900000E-01   1.00800           0
      4469 MEMB     51       POPC     C217     CTL2    -0.180000       12.0110           0
      4470 MEMB     51       POPC     H17R     HAL2     0.900000E-01   1.00800           0
      4471 MEMB     51       POPC     H17S     HAL2     0.900000E-01   1.00800           0
      4472 MEMB     51       POPC     C218     CTL3    -0.270000       12.0110           0
      4473 MEMB     51       POPC     H18R     HAL3     0.900000E-01   1.00800           0
      4474 MEMB     51       POPC     H18S     HAL3     0.900000E-01   1.00800           0
      4475 MEMB     51       POPC     H18T     HAL3     0.900000E-01   1.00800           0
      4476 MEMB     51       POPC     C33      CTL2    -0.180000       12.0110           0
      4477 MEMB     51       POPC     H3X      HAL2     0.900000E-01   1.00800           0
      4478 MEMB     51       POPC     H3Y      HAL2     0.900000E-01   1.00800           0
      4479 MEMB     51       POPC     C34      CTL2    -0.180000       12.0110           0
      4480 MEMB     51       POPC     H4X      HAL2     0.900000E-01   1.00800           0
      4481 MEMB     51       POPC     H4Y      HAL2     0.900000E-01   1.00800           0
      4482 MEMB     51       POPC     C35      CTL2    -0.180000       12.0110           0
      4483 MEMB     51       POPC     H5X      HAL2     0.900000E-01   1.00800           0
      4484 MEMB     51       POPC     H5Y      HAL2     0.900000E-01   1.00800           0
      4485 MEMB     51       POPC     C36      CTL2    -0.180000       12.0110           0
      4486 MEMB     51       POPC     H6X      HAL2     0.900000E-01   1.00800           0
      4487 MEMB     51       POPC     H6Y      HAL2     0.900000E-01   1.00800           0
      4488 MEMB     51       POPC     C37      CTL2    -0.180000       12.0110           0
      4489 MEMB     51       POPC     H7X      HAL2     0.900000E-01   1.00800           0
      4490 MEMB     51       POPC     H7Y      HAL2     0.900000E-01   1.00800           0
      4491 MEMB     51       POPC     C38      CTL2    -0.180000       12.0110           0
      4492 MEMB     51       POPC     H8X      HAL2     0.900000E-01   1.00800           0
      4493 MEMB     51       POPC     H8Y      HAL2     0.900000E-01   1.00800           0
      4494 MEMB     51       POPC     C39      CTL2    -0.180000       12.0110           0
      4495 MEMB     51       POPC     H9X      HAL2     0.900000E-01   1.00800           0
      4496 MEMB     51       POPC     H9Y      HAL2     0.900000E-01   1.00800           0
      4497 MEMB     51       POPC     C310     CTL2    -0.180000       12.0110           0
      4498 MEMB     51       POPC     H10X     HAL2     0.900000E-01   1.00800           0
      4499 MEMB     51       POPC     H10Y     HAL2     0.900000E-01   1.00800           0
      4500 MEMB     51       POPC     C311     CTL2    -0.180000       12.0110           0
      4501 MEMB     51       POPC     H11X     HAL2     0.900000E-01   1.00800           0
      4502 MEMB     51       POPC     H11Y     HAL2     0.900000E-01   1.00800           0
      4503 MEMB     51       POPC     C312     CTL2    -0.180000       12.0110           0
      4504 MEMB     51       POPC     H12X     HAL2     0.900000E-01   1.00800           0
      4505 MEMB     51       POPC     H12Y     HAL2     0.900000E-01   1.00800           0
      4506 MEMB     51       POPC     C313     CTL2    -0.180000       12.0110           0
      4507 MEMB     51       POPC     H13X     HAL2     0.900000E-01   1.00800           0
      4508 MEMB     51       POPC     H13Y     HAL2     0.900000E-01   1.00800           0
      4509 MEMB     51       POPC     C314     CTL2    -0.180000       12.0110           0
      4510 MEMB     51       POPC     H14X     HAL2     0.900000E-01   1.00800           0
      4511 MEMB     51       POPC     H14Y     HAL2     0.900000E-01   1.00800           0
      4512 MEMB     51       POPC     C315     CTL2    -0.180000       12.0110           0
      4513 MEMB     51       POPC     H15X     HAL2     0.900000E-01   1.00800           0
      4514 MEMB     51       POPC     H15Y     HAL2     0.900000E-01   1.00800           0
      4515 MEMB     51       POPC     C316     CTL3    -0.270000       12.0110           0
      4516 MEMB     51       POPC     H16X     HAL3     0.900000E-01   1.00800           0
      4517 MEMB     51       POPC     H16Y     HAL3     0.900000E-01   1.00800           0
      4518 MEMB     51       POPC     H16Z     HAL3     0.900000E-01   1.00800           0
      4519 MEMB     52       POPC     N        NTL     -0.600000       14.0070           0
      4520 MEMB     52       POPC     C12      CTL2    -0.100000       12.0110           0
      4521 MEMB     52       POPC     H12A     HL       0.250000       1.00800           0
      4522 MEMB     52       POPC     H12B     HL       0.250000       1.00800           0
      4523 MEMB     52       POPC     C13      CTL5    -0.350000       12.0110           0
      4524 MEMB     52       POPC     H13A     HL       0.250000       1.00800           0
      4525 MEMB     52       POPC     H13B     HL       0.250000       1.00800           0
      4526 MEMB     52       POPC     H13C     HL       0.250000       1.00800           0
      4527 MEMB     52       POPC     C14      CTL5    -0.350000       12.0110           0
      4528 MEMB     52       POPC     H14A     HL       0.250000       1.00800           0
      4529 MEMB     52       POPC     H14B     HL       0.250000       1.00800           0
      4530 MEMB     52       POPC     H14C     HL       0.250000       1.00800           0
      4531 MEMB     52       POPC     C15      CTL5    -0.350000       12.0110           0
      4532 MEMB     52       POPC     H15A     HL       0.250000       1.00800           0
      4533 MEMB     52       POPC     H15B     HL       0.250000       1.00800           0
      4534 MEMB     52       POPC     H15C     HL       0.250000       1.00800           0
      4535 MEMB     52       POPC     C11      CTL2    -0.800000E-01   12.0110           0
      4536 MEMB     52       POPC     H11A     HAL2     0.900000E-01   1.00800           0
      4537 MEMB     52       POPC     H11B     HAL2     0.900000E-01   1.00800           0
      4538 MEMB     52       POPC     P        PL        1.50000       30.9740           0
      4539 MEMB     52       POPC     O13      O2L     -0.780000       15.9994           0
      4540 MEMB     52       POPC     O14      O2L     -0.780000       15.9994           0
      4541 MEMB     52       POPC     O12      OSLP    -0.570000       15.9994           0
      4542 MEMB     52       POPC     O11      OSLP    -0.570000       15.9994           0
      4543 MEMB     52       POPC     C1       CTL2    -0.800000E-01   12.0110           0
      4544 MEMB     52       POPC     HA       HAL2     0.900000E-01   1.00800           0
      4545 MEMB     52       POPC     HB       HAL2     0.900000E-01   1.00800           0
      4546 MEMB     52       POPC     C2       CTL1     0.170000       12.0110           0
      4547 MEMB     52       POPC     HS       HAL1     0.900000E-01   1.00800           0
      4548 MEMB     52       POPC     O21      OSL     -0.490000       15.9994           0
      4549 MEMB     52       POPC     C21      CL       0.900000       12.0110           0
      4550 MEMB     52       POPC     O22      OBL     -0.630000       15.9994           0
      4551 MEMB     52       POPC     C22      CTL2    -0.220000       12.0110           0
      4552 MEMB     52       POPC     H2R      HAL2     0.900000E-01   1.00800           0
      4553 MEMB     52       POPC     H2S      HAL2     0.900000E-01   1.00800           0
      4554 MEMB     52       POPC     C3       CTL2     0.800000E-01   12.0110           0
      4555 MEMB     52       POPC     HX       HAL2     0.900000E-01   1.00800           0
      4556 MEMB     52       POPC     HY       HAL2     0.900000E-01   1.00800           0
      4557 MEMB     52       POPC     O31      OSL     -0.490000       15.9994           0
      4558 MEMB     52       POPC     C31      CL       0.900000       12.0110           0
      4559 MEMB     52       POPC     O32      OBL     -0.630000       15.9994           0
      4560 MEMB     52       POPC     C32      CTL2    -0.220000       12.0110           0
      4561 MEMB     52       POPC     H2X      HAL2     0.900000E-01   1.00800           0
      4562 MEMB     52       POPC     H2Y      HAL2     0.900000E-01   1.00800           0
      4563 MEMB     52       POPC     C23      CTL2    -0.180000       12.0110           0
      4564 MEMB     52       POPC     H3R      HAL2     0.900000E-01   1.00800           0
      4565 MEMB     52       POPC     H3S      HAL2     0.900000E-01   1.00800           0
      4566 MEMB     52       POPC     C24      CTL2    -0.180000       12.0110           0
      4567 MEMB     52       POPC     H4R      HAL2     0.900000E-01   1.00800           0
      4568 MEMB     52       POPC     H4S      HAL2     0.900000E-01   1.00800           0
      4569 MEMB     52       POPC     C25      CTL2    -0.180000       12.0110           0
      4570 MEMB     52       POPC     H5R      HAL2     0.900000E-01   1.00800           0
      4571 MEMB     52       POPC     H5S      HAL2     0.900000E-01   1.00800           0
      4572 MEMB     52       POPC     C26      CTL2    -0.180000       12.0110           0
      4573 MEMB     52       POPC     H6R      HAL2     0.900000E-01   1.00800           0
      4574 MEMB     52       POPC     H6S      HAL2     0.900000E-01   1.00800           0
      4575 MEMB     52       POPC     C27      CTL2    -0.180000       12.0110           0
      4576 MEMB     52       POPC     H7R      HAL2     0.900000E-01   1.00800           0
      4577 MEMB     52       POPC     H7S      HAL2     0.900000E-01   1.00800           0
      4578 MEMB     52       POPC     C28      CTL2    -0.180000       12.0110           0
      4579 MEMB     52       POPC     H8R      HAL2     0.900000E-01   1.00800           0
      4580 MEMB     52       POPC     H8S      HAL2     0.900000E-01   1.00800           0
      4581 MEMB     52       POPC     C29      CEL1    -0.150000       12.0110           0
      4582 MEMB     52       POPC     H91      HEL1     0.150000       1.00800           0
      4583 MEMB     52       POPC     C210     CEL1    -0.150000       12.0110           0
      4584 MEMB     52       POPC     H101     HEL1     0.150000       1.00800           0
      4585 MEMB     52       POPC     C211     CTL2    -0.180000       12.0110           0
      4586 MEMB     52       POPC     H11R     HAL2     0.900000E-01   1.00800           0
      4587 MEMB     52       POPC     H11S     HAL2     0.900000E-01   1.00800           0
      4588 MEMB     52       POPC     C212     CTL2    -0.180000       12.0110           0
      4589 MEMB     52       POPC     H12R     HAL2     0.900000E-01   1.00800           0
      4590 MEMB     52       POPC     H12S     HAL2     0.900000E-01   1.00800           0
      4591 MEMB     52       POPC     C213     CTL2    -0.180000       12.0110           0
      4592 MEMB     52       POPC     H13R     HAL2     0.900000E-01   1.00800           0
      4593 MEMB     52       POPC     H13S     HAL2     0.900000E-01   1.00800           0
      4594 MEMB     52       POPC     C214     CTL2    -0.180000       12.0110           0
      4595 MEMB     52       POPC     H14R     HAL2     0.900000E-01   1.00800           0
      4596 MEMB     52       POPC     H14S     HAL2     0.900000E-01   1.00800           0
      4597 MEMB     52       POPC     C215     CTL2    -0.180000       12.0110           0
      4598 MEMB     52       POPC     H15R     HAL2     0.900000E-01   1.00800           0
      4599 MEMB     52       POPC     H15S     HAL2     0.900000E-01   1.00800           0
      4600 MEMB     52       POPC     C216     CTL2    -0.180000       12.0110           0
      4601 MEMB     52       POPC     H16R     HAL2     0.900000E-01   1.00800           0
      4602 MEMB     52       POPC     H16S     HAL2     0.900000E-01   1.00800           0
      4603 MEMB     52       POPC     C217     CTL2    -0.180000       12.0110           0
      4604 MEMB     52       POPC     H17R     HAL2     0.900000E-01   1.00800           0
      4605 MEMB     52       POPC     H17S     HAL2     0.900000E-01   1.00800           0
      4606 MEMB     52       POPC     C218     CTL3    -0.270000       12.0110           0
      4607 MEMB     52       POPC     H18R     HAL3     0.900000E-01   1.00800           0
      4608 MEMB     52       POPC     H18S     HAL3     0.900000E-01   1.00800           0
      4609 MEMB     52       POPC     H18T     HAL3     0.900000E-01   1.00800           0
      4610 MEMB     52       POPC     C33      CTL2    -0.180000       12.0110           0
      4611 MEMB     52       POPC     H3X      HAL2     0.900000E-01   1.00800           0
      4612 MEMB     52       POPC     H3Y      HAL2     0.900000E-01   1.00800           0
      4613 MEMB     52       POPC     C34      CTL2    -0.180000       12.0110           0
      4614 MEMB     52       POPC     H4X      HAL2     0.900000E-01   1.00800           0
      4615 MEMB     52       POPC     H4Y      HAL2     0.900000E-01   1.00800           0
      4616 MEMB     52       POPC     C35      CTL2    -0.180000       12.0110           0
      4617 MEMB     52       POPC     H5X      HAL2     0.900000E-01   1.00800           0
      4618 MEMB     52       POPC     H5Y      HAL2     0.900000E-01   1.00800           0
      4619 MEMB     52       POPC     C36      CTL2    -0.180000       12.0110           0
      4620 MEMB     52       POPC     H6X      HAL2     0.900000E-01   1.00800           0
      4621 MEMB     52       POPC     H6Y      HAL2     0.900000E-01   1.00800           0
      4622 MEMB     52       POPC     C37      CTL2    -0.180000       12.0110           0
      4623 MEMB     52       POPC     H7X      HAL2     0.900000E-01   1.00800           0
      4624 MEMB     52       POPC     H7Y      HAL2     0.900000E-01   1.00800           0
      4625 MEMB     52       POPC     C38      CTL2    -0.180000       12.0110           0
      4626 MEMB     52       POPC     H8X      HAL2     0.900000E-01   1.00800           0
      4627 MEMB     52       POPC     H8Y      HAL2     0.900000E-01   1.00800           0
      4628 MEMB     52       POPC     C39      CTL2    -0.180000       12.0110           0
      4629 MEMB     52       POPC     H9X      HAL2     0.900000E-01   1.00800           0
      4630 MEMB     52       POPC     H9Y      HAL2     0.900000E-01   1.00800           0
      4631 MEMB     52       POPC     C310     CTL2    -0.180000       12.0110           0
      4632 MEMB     52       POPC     H10X     HAL2     0.900000E-01   1.00800           0
      4633 MEMB     52       POPC     H10Y     HAL2     0.900000E-01   1.00800           0
      4634 MEMB     52       POPC     C311     CTL2    -0.180000       12.0110           0
      4635 MEMB     52       POPC     H11X     HAL2     0.900000E-01   1.00800           0
      4636 MEMB     52       POPC     H11Y     HAL2     0.900000E-01   1.00800           0
      4637 MEMB     52       POPC     C312     CTL2    -0.180000       12.0110           0
      4638 MEMB     52       POPC     H12X     HAL2     0.900000E-01   1.00800           0
      4639 MEMB     52       POPC     H12Y     HAL2     0.900000E-01   1.00800           0
      4640 MEMB     52       POPC     C313     CTL2    -0.180000       12.0110           0
      4641 MEMB     52       POPC     H13X     HAL2     0.900000E-01   1.00800           0
      4642 MEMB     52       POPC     H13Y     HAL2     0.900000E-01   1.00800           0
      4643 MEMB     52       POPC     C314     CTL2    -0.180000       12.0110           0
      4644 MEMB     52       POPC     H14X     HAL2     0.900000E-01   1.00800           0
      4645 MEMB     52       POPC     H14Y     HAL2     0.900000E-01   1.00800           0
      4646 MEMB     52       POPC     C315     CTL2    -0.180000       12.0110           0
      4647 MEMB     52       POPC     H15X     HAL2     0.900000E-01   1.00800           0
      4648 MEMB     52       POPC     H15Y     HAL2     0.900000E-01   1.00800           0
      4649 MEMB     52       POPC     C316     CTL3    -0.270000       12.0110           0
      4650 MEMB     52       POPC     H16X     HAL3     0.900000E-01   1.00800           0
      4651 MEMB     52       POPC     H16Y     HAL3     0.900000E-01   1.00800           0
      4652 MEMB     52       POPC     H16Z     HAL3     0.900000E-01   1.00800           0
      4653 MEMB     53       POPC     N        NTL     -0.600000       14.0070           0
      4654 MEMB     53       POPC     C12      CTL2    -0.100000       12.0110           0
      4655 MEMB     53       POPC     H12A     HL       0.250000       1.00800           0
      4656 MEMB     53       POPC     H12B     HL       0.250000       1.00800           0
      4657 MEMB     53       POPC     C13      CTL5    -0.350000       12.0110           0
      4658 MEMB     53       POPC     H13A     HL       0.250000       1.00800           0
      4659 MEMB     53       POPC     H13B     HL       0.250000       1.00800           0
      4660 MEMB     53       POPC     H13C     HL       0.250000       1.00800           0
      4661 MEMB     53       POPC     C14      CTL5    -0.350000       12.0110           0
      4662 MEMB     53       POPC     H14A     HL       0.250000       1.00800           0
      4663 MEMB     53       POPC     H14B     HL       0.250000       1.00800           0
      4664 MEMB     53       POPC     H14C     HL       0.250000       1.00800           0
      4665 MEMB     53       POPC     C15      CTL5    -0.350000       12.0110           0
      4666 MEMB     53       POPC     H15A     HL       0.250000       1.00800           0
      4667 MEMB     53       POPC     H15B     HL       0.250000       1.00800           0
      4668 MEMB     53       POPC     H15C     HL       0.250000       1.00800           0
      4669 MEMB     53       POPC     C11      CTL2    -0.800000E-01   12.0110           0
      4670 MEMB     53       POPC     H11A     HAL2     0.900000E-01   1.00800           0
      4671 MEMB     53       POPC     H11B     HAL2     0.900000E-01   1.00800           0
      4672 MEMB     53       POPC     P        PL        1.50000       30.9740           0
      4673 MEMB     53       POPC     O13      O2L     -0.780000       15.9994           0
      4674 MEMB     53       POPC     O14      O2L     -0.780000       15.9994           0
      4675 MEMB     53       POPC     O12      OSLP    -0.570000       15.9994           0
      4676 MEMB     53       POPC     O11      OSLP    -0.570000       15.9994           0
      4677 MEMB     53       POPC     C1       CTL2    -0.800000E-01   12.0110           0
      4678 MEMB     53       POPC     HA       HAL2     0.900000E-01   1.00800           0
      4679 MEMB     53       POPC     HB       HAL2     0.900000E-01   1.00800           0
      4680 MEMB     53       POPC     C2       CTL1     0.170000       12.0110           0
      4681 MEMB     53       POPC     HS       HAL1     0.900000E-01   1.00800           0
      4682 MEMB     53       POPC     O21      OSL     -0.490000       15.9994           0
      4683 MEMB     53       POPC     C21      CL       0.900000       12.0110           0
      4684 MEMB     53       POPC     O22      OBL     -0.630000       15.9994           0
      4685 MEMB     53       POPC     C22      CTL2    -0.220000       12.0110           0
      4686 MEMB     53       POPC     H2R      HAL2     0.900000E-01   1.00800           0
      4687 MEMB     53       POPC     H2S      HAL2     0.900000E-01   1.00800           0
      4688 MEMB     53       POPC     C3       CTL2     0.800000E-01   12.0110           0
      4689 MEMB     53       POPC     HX       HAL2     0.900000E-01   1.00800           0
      4690 MEMB     53       POPC     HY       HAL2     0.900000E-01   1.00800           0
      4691 MEMB     53       POPC     O31      OSL     -0.490000       15.9994           0
      4692 MEMB     53       POPC     C31      CL       0.900000       12.0110           0
      4693 MEMB     53       POPC     O32      OBL     -0.630000       15.9994           0
      4694 MEMB     53       POPC     C32      CTL2    -0.220000       12.0110           0
      4695 MEMB     53       POPC     H2X      HAL2     0.900000E-01   1.00800           0
      4696 MEMB     53       POPC     H2Y      HAL2     0.900000E-01   1.00800           0
      4697 MEMB     53       POPC     C23      CTL2    -0.180000       12.0110           0
      4698 MEMB     53       POPC     H3R      HAL2     0.900000E-01   1.00800           0
      4699 MEMB     53       POPC     H3S      HAL2     0.900000E-01   1.00800           0
      4700 MEMB     53       POPC     C24      CTL2    -0.180000       12.0110           0
      4701 MEMB     53       POPC     H4R      HAL2     0.900000E-01   1.00800           0
      4702 MEMB     53       POPC     H4S      HAL2     0.900000E-01   1.00800           0
      4703 MEMB     53       POPC     C25      CTL2    -0.180000       12.0110           0
      4704 MEMB     53       POPC     H5R      HAL2     0.900000E-01   1.00800           0
      4705 MEMB     53       POPC     H5S      HAL2     0.900000E-01   1.00800           0
      4706 MEMB     53       POPC     C26      CTL2    -0.180000       12.0110           0
      4707 MEMB     53       POPC     H6R      HAL2     0.900000E-01   1.00800           0
      4708 MEMB     53       POPC     H6S      HAL2     0.900000E-01   1.00800           0
      4709 MEMB     53       POPC     C27      CTL2    -0.180000       12.0110           0
      4710 MEMB     53       POPC     H7R      HAL2     0.900000E-01   1.00800           0
      4711 MEMB     53       POPC     H7S      HAL2     0.900000E-01   1.00800           0
      4712 MEMB     53       POPC     C28      CTL2    -0.180000       12.0110           0
      4713 MEMB     53       POPC     H8R      HAL2     0.900000E-01   1.00800           0
      4714 MEMB     53       POPC     H8S      HAL2     0.900000E-01   1.00800           0
      4715 MEMB     53       POPC     C29      CEL1    -0.150000       12.0110           0
      4716 MEMB     53       POPC     H91      HEL1     0.150000       1.00800           0
      4717 MEMB     53       POPC     C210     CEL1    -0.150000       12.0110           0
      4718 MEMB     53       POPC     H101     HEL1     0.150000       1.00800           0
      4719 MEMB     53       POPC     C211     CTL2    -0.180000       12.0110           0
      4720 MEMB     53       POPC     H11R     HAL2     0.900000E-01   1.00800           0
      4721 MEMB     53       POPC     H11S     HAL2     0.900000E-01   1.00800           0
      4722 MEMB     53       POPC     C212     CTL2    -0.180000       12.0110           0
      4723 MEMB     53       POPC     H12R     HAL2     0.900000E-01   1.00800           0
      4724 MEMB     53       POPC     H12S     HAL2     0.900000E-01   1.00800           0
      4725 MEMB     53       POPC     C213     CTL2    -0.180000       12.0110           0
      4726 MEMB     53       POPC     H13R     HAL2     0.900000E-01   1.00800           0
      4727 MEMB     53       POPC     H13S     HAL2     0.900000E-01   1.00800           0
      4728 MEMB     53       POPC     C214     CTL2    -0.180000       12.0110           0
      4729 MEMB     53       POPC     H14R     HAL2     0.900000E-01   1.00800           0
      4730 MEMB     53       POPC     H14S     HAL2     0.900000E-01   1.00800           0
      4731 MEMB     53       POPC     C215     CTL2    -0.180000       12.0110           0
      4732 MEMB     53       POPC     H15R     HAL2     0.900000E-01   1.00800           0
      4733 MEMB     53       POPC     H15S     HAL2     0.900000E-01   1.00800           0
      4734 MEMB     53       POPC     C216     CTL2    -0.180000       12.0110           0
      4735 MEMB     53       POPC     H16R     HAL2     0.900000E-01   1.00800           0
      4736 MEMB     53       POPC     H16S     HAL2     0.900000E-01   1.00800           0
      4737 MEMB     53       POPC     C217     CTL2    -0.180000       12.0110           0
      4738 MEMB     53       POPC     H17R     HAL2     0.900000E-01   1.00800           0
      4739 MEMB     53       POPC     H17S     HAL2     0.900000E-01   1.00800           0
      4740 MEMB     53       POPC     C218     CTL3    -0.270000       12.0110           0
      4741 MEMB     53       POPC     H18R     HAL3     0.900000E-01   1.00800           0
      4742 MEMB     53       POPC     H18S     HAL3     0.900000E-01   1.00800           0
      4743 MEMB     53       POPC     H18T     HAL3     0.900000E-01   1.00800           0
      4744 MEMB     53       POPC     C33      CTL2    -0.180000       12.0110           0
      4745 MEMB     53       POPC     H3X      HAL2     0.900000E-01   1.00800           0
      4746 MEMB     53       POPC     H3Y      HAL2     0.900000E-01   1.00800           0
      4747 MEMB     53       POPC     C34      CTL2    -0.180000       12.0110           0
      4748 MEMB     53       POPC     H4X      HAL2     0.900000E-01   1.00800           0
      4749 MEMB     53       POPC     H4Y      HAL2     0.900000E-01   1.00800           0
      4750 MEMB     53       POPC     C35      CTL2    -0.180000       12.0110           0
      4751 MEMB     53       POPC     H5X      HAL2     0.900000E-01   1.00800           0
      4752 MEMB     53       POPC     H5Y      HAL2     0.900000E-01   1.00800           0
      4753 MEMB     53       POPC     C36      CTL2    -0.180000       12.0110           0
      4754 MEMB     53       POPC     H6X      HAL2     0.900000E-01   1.00800           0
      4755 MEMB     53       POPC     H6Y      HAL2     0.900000E-01   1.00800           0
      4756 MEMB     53       POPC     C37      CTL2    -0.180000       12.0110           0
      4757 MEMB     53       POPC     H7X      HAL2     0.900000E-01   1.00800           0
      4758 MEMB     53       POPC     H7Y      HAL2     0.900000E-01   1.00800           0
      4759 MEMB     53       POPC     C38      CTL2    -0.180000       12.0110           0
      4760 MEMB     53       POPC     H8X      HAL2     0.900000E-01   1.00800           0
      4761 MEMB     53       POPC     H8Y      HAL2     0.900000E-01   1.00800           0
      4762 MEMB     53       POPC     C39      CTL2    -0.180000       12.0110           0
      4763 MEMB     53       POPC     H9X      HAL2     0.900000E-01   1.00800           0
      4764 MEMB     53       POPC     H9Y      HAL2     0.900000E-01   1.00800           0
      4765 MEMB     53       POPC     C310     CTL2    -0.180000       12.0110           0
      4766 MEMB     53       POPC     H10X     HAL2     0.900000E-01   1.00800           0
      4767 MEMB     53       POPC     H10Y     HAL2     0.900000E-01   1.00800           0
      4768 MEMB     53       POPC     C311     CTL2    -0.180000       12.0110           0
      4769 MEMB     53       POPC     H11X     HAL2     0.900000E-01   1.00800           0
      4770 MEMB     53       POPC     H11Y     HAL2     0.900000E-01   1.00800           0
      4771 MEMB     53       POPC     C312     CTL2    -0.180000       12.0110           0
      4772 MEMB     53       POPC     H12X     HAL2     0.900000E-01   1.00800           0
      4773 MEMB     53       POPC     H12Y     HAL2     0.900000E-01   1.00800           0
      4774 MEMB     53       POPC     C313     CTL2    -0.180000       12.0110           0
      4775 MEMB     53       POPC     H13X     HAL2     0.900000E-01   1.00800           0
      4776 MEMB     53       POPC     H13Y     HAL2     0.900000E-01   1.00800           0
      4777 MEMB     53       POPC     C314     CTL2    -0.180000       12.0110           0
      4778 MEMB     53       POPC     H14X     HAL2     0.900000E-01   1.00800           0
      4779 MEMB     53       POPC     H14Y     HAL2     0.900000E-01   1.00800           0
      4780 MEMB     53       POPC     C315     CTL2    -0.180000       12.0110           0
      4781 MEMB     53       POPC     H15X     HAL2     0.900000E-01   1.00800           0
      4782 MEMB     53       POPC     H15Y     HAL2     0.900000E-01   1.00800           0
      4783 MEMB     53       POPC     C316     CTL3    -0.270000       12.0110           0
      4784 MEMB     53       POPC     H16X     HAL3     0.900000E-01   1.00800           0
      4785 MEMB     53       POPC     H16Y     HAL3     0.900000E-01   1.00800           0
      4786 MEMB     53       POPC     H16Z     HAL3     0.900000E-01   1.00800           0
      4787 MEMB     54       POPC     N        NTL     -0.600000       14.0070           0
      4788 MEMB     54       POPC     C12      CTL2    -0.100000       12.0110           0
      4789 MEMB     54       POPC     H12A     HL       0.250000       1.00800           0
      4790 MEMB     54       POPC     H12B     HL       0.250000       1.00800           0
      4791 MEMB     54       POPC     C13      CTL5    -0.350000       12.0110           0
      4792 MEMB     54       POPC     H13A     HL       0.250000       1.00800           0
      4793 MEMB     54       POPC     H13B     HL       0.250000       1.00800           0
      4794 MEMB     54       POPC     H13C     HL       0.250000       1.00800           0
      4795 MEMB     54       POPC     C14      CTL5    -0.350000       12.0110           0
      4796 MEMB     54       POPC     H14A     HL       0.250000       1.00800           0
      4797 MEMB     54       POPC     H14B     HL       0.250000       1.00800           0
      4798 MEMB     54       POPC     H14C     HL       0.250000       1.00800           0
      4799 MEMB     54       POPC     C15      CTL5    -0.350000       12.0110           0
      4800 MEMB     54       POPC     H15A     HL       0.250000       1.00800           0
      4801 MEMB     54       POPC     H15B     HL       0.250000       1.00800           0
      4802 MEMB     54       POPC     H15C     HL       0.250000       1.00800           0
      4803 MEMB     54       POPC     C11      CTL2    -0.800000E-01   12.0110           0
      4804 MEMB     54       POPC     H11A     HAL2     0.900000E-01   1.00800           0
      4805 MEMB     54       POPC     H11B     HAL2     0.900000E-01   1.00800           0
      4806 MEMB     54       POPC     P        PL        1.50000       30.9740           0
      4807 MEMB     54       POPC     O13      O2L     -0.780000       15.9994           0
      4808 MEMB     54       POPC     O14      O2L     -0.780000       15.9994           0
      4809 MEMB     54       POPC     O12      OSLP    -0.570000       15.9994           0
      4810 MEMB     54       POPC     O11      OSLP    -0.570000       15.9994           0
      4811 MEMB     54       POPC     C1       CTL2    -0.800000E-01   12.0110           0
      4812 MEMB     54       POPC     HA       HAL2     0.900000E-01   1.00800           0
      4813 MEMB     54       POPC     HB       HAL2     0.900000E-01   1.00800           0
      4814 MEMB     54       POPC     C2       CTL1     0.170000       12.0110           0
      4815 MEMB     54       POPC     HS       HAL1     0.900000E-01   1.00800           0
      4816 MEMB     54       POPC     O21      OSL     -0.490000       15.9994           0
      4817 MEMB     54       POPC     C21      CL       0.900000       12.0110           0
      4818 MEMB     54       POPC     O22      OBL     -0.630000       15.9994           0
      4819 MEMB     54       POPC     C22      CTL2    -0.220000       12.0110           0
      4820 MEMB     54       POPC     H2R      HAL2     0.900000E-01   1.00800           0
      4821 MEMB     54       POPC     H2S      HAL2     0.900000E-01   1.00800           0
      4822 MEMB     54       POPC     C3       CTL2     0.800000E-01   12.0110           0
      4823 MEMB     54       POPC     HX       HAL2     0.900000E-01   1.00800           0
      4824 MEMB     54       POPC     HY       HAL2     0.900000E-01   1.00800           0
      4825 MEMB     54       POPC     O31      OSL     -0.490000       15.9994           0
      4826 MEMB     54       POPC     C31      CL       0.900000       12.0110           0
      4827 MEMB     54       POPC     O32      OBL     -0.630000       15.9994           0
      4828 MEMB     54       POPC     C32      CTL2    -0.220000       12.0110           0
      4829 MEMB     54       POPC     H2X      HAL2     0.900000E-01   1.00800           0
      4830 MEMB     54       POPC     H2Y      HAL2     0.900000E-01   1.00800           0
      4831 MEMB     54       POPC     C23      CTL2    -0.180000       12.0110           0
      4832 MEMB     54       POPC     H3R      HAL2     0.900000E-01   1.00800           0
      4833 MEMB     54       POPC     H3S      HAL2     0.900000E-01   1.00800           0
      4834 MEMB     54       POPC     C24      CTL2    -0.180000       12.0110           0
      4835 MEMB     54       POPC     H4R      HAL2     0.900000E-01   1.00800           0
      4836 MEMB     54       POPC     H4S      HAL2     0.900000E-01   1.00800           0
      4837 MEMB     54       POPC     C25      CTL2    -0.180000       12.0110           0
      4838 MEMB     54       POPC     H5R      HAL2     0.900000E-01   1.00800           0
      4839 MEMB     54       POPC     H5S      HAL2     0.900000E-01   1.00800           0
      4840 MEMB     54       POPC     C26      CTL2    -0.180000       12.0110           0
      4841 MEMB     54       POPC     H6R      HAL2     0.900000E-01   1.00800           0
      4842 MEMB     54       POPC     H6S      HAL2     0.900000E-01   1.00800           0
      4843 MEMB     54       POPC     C27      CTL2    -0.180000       12.0110           0
      4844 MEMB     54       POPC     H7R      HAL2     0.900000E-01   1.00800           0
      4845 MEMB     54       POPC     H7S      HAL2     0.900000E-01   1.00800           0
      4846 MEMB     54       POPC     C28      CTL2    -0.180000       12.0110           0
      4847 MEMB     54       POPC     H8R      HAL2     0.900000E-01   1.00800           0
      4848 MEMB     54       POPC     H8S      HAL2     0.900000E-01   1.00800           0
      4849 MEMB     54       POPC     C29      CEL1    -0.150000       12.0110           0
      4850 MEMB     54       POPC     H91      HEL1     0.150000       1.00800           0
      4851 MEMB     54       POPC     C210     CEL1    -0.150000       12.0110           0
      4852 MEMB     54       POPC     H101     HEL1     0.150000       1.00800           0
      4853 MEMB     54       POPC     C211     CTL2    -0.180000       12.0110           0
      4854 MEMB     54       POPC     H11R     HAL2     0.900000E-01   1.00800           0
      4855 MEMB     54       POPC     H11S     HAL2     0.900000E-01   1.00800           0
      4856 MEMB     54       POPC     C212     CTL2    -0.180000       12.0110           0
      4857 MEMB     54       POPC     H12R     HAL2     0.900000E-01   1.00800           0
      4858 MEMB     54       POPC     H12S     HAL2     0.900000E-01   1.00800           0
      4859 MEMB     54       POPC     C213     CTL2    -0.180000       12.0110           0
      4860 MEMB     54       POPC     H13R     HAL2     0.900000E-01   1.00800           0
      4861 MEMB     54       POPC     H13S     HAL2     0.900000E-01   1.00800           0
      4862 MEMB     54       POPC     C214     CTL2    -0.180000       12.0110           0
      4863 MEMB     54       POPC     H14R     HAL2     0.900000E-01   1.00800           0
      4864 MEMB     54       POPC     H14S     HAL2     0.900000E-01   1.00800           0
      4865 MEMB     54       POPC     C215     CTL2    -0.180000       12.0110           0
      4866 MEMB     54       POPC     H15R     HAL2     0.900000E-01   1.00800           0
      4867 MEMB     54       POPC     H15S     HAL2     0.900000E-01   1.00800           0
      4868 MEMB     54       POPC     C216     CTL2    -0.180000       12.0110           0
      4869 MEMB     54       POPC     H16R     HAL2     0.900000E-01   1.00800           0
      4870 MEMB     54       POPC     H16S     HAL2     0.900000E-01   1.00800           0
      4871 MEMB     54       POPC     C217     CTL2    -0.180000       12.0110           0
      4872 MEMB     54       POPC     H17R     HAL2     0.900000E-01   1.00800           0
      4873 MEMB     54       POPC     H17S     HAL2     0.900000E-01   1.00800           0
      4874 MEMB     54       POPC     C218     CTL3    -0.270000       12.0110           0
      4875 MEMB     54       POPC     H18R     HAL3     0.900000E-01   1.00800           0
      4876 MEMB     54       POPC     H18S     HAL3     0.900000E-01   1.00800           0
      4877 MEMB     54       POPC     H18T     HAL3     0.900000E-01   1.00800           0
      4878 MEMB     54       POPC     C33      CTL2    -0.180000       12.0110           0
      4879 MEMB     54       POPC     H3X      HAL2     0.900000E-01   1.00800           0
      4880 MEMB     54       POPC     H3Y      HAL2     0.900000E-01   1.00800           0
      4881 MEMB     54       POPC     C34      CTL2    -0.180000       12.0110           0
      4882 MEMB     54       POPC     H4X      HAL2     0.900000E-01   1.00800           0
      4883 MEMB     54       POPC     H4Y      HAL2     0.900000E-01   1.00800           0
      4884 MEMB     54       POPC     C35      CTL2    -0.180000       12.0110           0
      4885 MEMB     54       POPC     H5X      HAL2     0.900000E-01   1.00800           0
      4886 MEMB     54       POPC     H5Y      HAL2     0.900000E-01   1.00800           0
      4887 MEMB     54       POPC     C36      CTL2    -0.180000       12.0110           0
      4888 MEMB     54       POPC     H6X      HAL2     0.900000E-01   1.00800           0
      4889 MEMB     54       POPC     H6Y      HAL2     0.900000E-01   1.00800           0
      4890 MEMB     54       POPC     C37      CTL2    -0.180000       12.0110           0
      4891 MEMB     54       POPC     H7X      HAL2     0.900000E-01   1.00800           0
      4892 MEMB     54       POPC     H7Y      HAL2     0.900000E-01   1.00800           0
      4893 MEMB     54       POPC     C38      CTL2    -0.180000       12.0110           0
      4894 MEMB     54       POPC     H8X      HAL2     0.900000E-01   1.00800           0
      4895 MEMB     54       POPC     H8Y      HAL2     0.900000E-01   1.00800           0
      4896 MEMB     54       POPC     C39      CTL2    -0.180000       12.0110           0
      4897 MEMB     54       POPC     H9X      HAL2     0.900000E-01   1.00800           0
      4898 MEMB     54       POPC     H9Y      HAL2     0.900000E-01   1.00800           0
      4899 MEMB     54       POPC     C310     CTL2    -0.180000       12.0110           0
      4900 MEMB     54       POPC     H10X     HAL2     0.900000E-01   1.00800           0
      4901 MEMB     54       POPC     H10Y     HAL2     0.900000E-01   1.00800           0
      4902 MEMB     54       POPC     C311     CTL2    -0.180000       12.0110           0
      4903 MEMB     54       POPC     H11X     HAL2     0.900000E-01   1.00800           0
      4904 MEMB     54       POPC     H11Y     HAL2     0.900000E-01   1.00800           0
      4905 MEMB     54       POPC     C312     CTL2    -0.180000       12.0110           0
      4906 MEMB     54       POPC     H12X     HAL2     0.900000E-01   1.00800           0
      4907 MEMB     54       POPC     H12Y     HAL2     0.900000E-01   1.00800           0
      4908 MEMB     54       POPC     C313     CTL2    -0.180000       12.0110           0
      4909 MEMB     54       POPC     H13X     HAL2     0.900000E-01   1.00800           0
      4910 MEMB     54       POPC     H13Y     HAL2     0.900000E-01   1.00800           0
      4911 MEMB     54       POPC     C314     CTL2    -0.180000       12.0110           0
      4912 MEMB     54       POPC     H14X     HAL2     0.900000E-01   1.00800           0
      4913 MEMB     54       POPC     H14Y     HAL2     0.900000E-01   1.00800           0
      4914 MEMB     54       POPC     C315     CTL2    -0.180000       12.0110           0
      4915 MEMB     54       POPC     H15X     HAL2     0.900000E-01   1.00800           0
      4916 MEMB     54       POPC     H15Y     HAL2     0.900000E-01   1.00800           0
      4917 MEMB     54       POPC     C316     CTL3    -0.270000       12.0110           0
      4918 MEMB     54       POPC     H16X     HAL3     0.900000E-01   1.00800           0
      4919 MEMB     54       POPC     H16Y     HAL3     0.900000E-01   1.00800           0
      4920 MEMB     54       POPC     H16Z     HAL3     0.900000E-01   1.00800           0
      4921 MEMB     55       POPE     N        NH3L    -0.300000       14.0070           0
      4922 MEMB     55       POPE     HN1      HCL      0.330000       1.00800           0
      4923 MEMB     55       POPE     HN2      HCL      0.330000       1.00800           0
      4924 MEMB     55       POPE     HN3      HCL      0.330000       1.00800           0
      4925 MEMB     55       POPE     C12      CTL2     0.130000       12.0110           0
      4926 MEMB     55       POPE     H12A     HAL2     0.900000E-01   1.00800           0
      4927 MEMB     55       POPE     H12B     HAL2     0.900000E-01   1.00800           0
      4928 MEMB     55       POPE     C11      CTL2    -0.800000E-01   12.0110           0
      4929 MEMB     55       POPE     H11A     HAL2     0.900000E-01   1.00800           0
      4930 MEMB     55       POPE     H11B     HAL2     0.900000E-01   1.00800           0
      4931 MEMB     55       POPE     P        PL        1.50000       30.9740           0
      4932 MEMB     55       POPE     O13      O2L     -0.780000       15.9994           0
      4933 MEMB     55       POPE     O14      O2L     -0.780000       15.9994           0
      4934 MEMB     55       POPE     O11      OSLP    -0.570000       15.9994           0
      4935 MEMB     55       POPE     O12      OSLP    -0.570000       15.9994           0
      4936 MEMB     55       POPE     C1       CTL2    -0.800000E-01   12.0110           0
      4937 MEMB     55       POPE     HA       HAL2     0.900000E-01   1.00800           0
      4938 MEMB     55       POPE     HB       HAL2     0.900000E-01   1.00800           0
      4939 MEMB     55       POPE     C2       CTL1     0.170000       12.0110           0
      4940 MEMB     55       POPE     HS       HAL1     0.900000E-01   1.00800           0
      4941 MEMB     55       POPE     O21      OSL     -0.490000       15.9994           0
      4942 MEMB     55       POPE     C21      CL       0.900000       12.0110           0
      4943 MEMB     55       POPE     O22      OBL     -0.630000       15.9994           0
      4944 MEMB     55       POPE     C22      CTL2    -0.220000       12.0110           0
      4945 MEMB     55       POPE     H2R      HAL2     0.900000E-01   1.00800           0
      4946 MEMB     55       POPE     H2S      HAL2     0.900000E-01   1.00800           0
      4947 MEMB     55       POPE     C3       CTL2     0.800000E-01   12.0110           0
      4948 MEMB     55       POPE     HX       HAL2     0.900000E-01   1.00800           0
      4949 MEMB     55       POPE     HY       HAL2     0.900000E-01   1.00800           0
      4950 MEMB     55       POPE     O31      OSL     -0.490000       15.9994           0
      4951 MEMB     55       POPE     C31      CL       0.900000       12.0110           0
      4952 MEMB     55       POPE     O32      OBL     -0.630000       15.9994           0
      4953 MEMB     55       POPE     C32      CTL2    -0.220000       12.0110           0
      4954 MEMB     55       POPE     H2X      HAL2     0.900000E-01   1.00800           0
      4955 MEMB     55       POPE     H2Y      HAL2     0.900000E-01   1.00800           0
      4956 MEMB     55       POPE     C23      CTL2    -0.180000       12.0110           0
      4957 MEMB     55       POPE     H3R      HAL2     0.900000E-01   1.00800           0
      4958 MEMB     55       POPE     H3S      HAL2     0.900000E-01   1.00800           0
      4959 MEMB     55       POPE     C24      CTL2    -0.180000       12.0110           0
      4960 MEMB     55       POPE     H4R      HAL2     0.900000E-01   1.00800           0
      4961 MEMB     55       POPE     H4S      HAL2     0.900000E-01   1.00800           0
      4962 MEMB     55       POPE     C25      CTL2    -0.180000       12.0110           0
      4963 MEMB     55       POPE     H5R      HAL2     0.900000E-01   1.00800           0
      4964 MEMB     55       POPE     H5S      HAL2     0.900000E-01   1.00800           0
      4965 MEMB     55       POPE     C26      CTL2    -0.180000       12.0110           0
      4966 MEMB     55       POPE     H6R      HAL2     0.900000E-01   1.00800           0
      4967 MEMB     55       POPE     H6S      HAL2     0.900000E-01   1.00800           0
      4968 MEMB     55       POPE     C27      CTL2    -0.180000       12.0110           0
      4969 MEMB     55       POPE     H7R      HAL2     0.900000E-01   1.00800           0
      4970 MEMB     55       POPE     H7S      HAL2     0.900000E-01   1.00800           0
      4971 MEMB     55       POPE     C28      CTL2    -0.180000       12.0110           0
      4972 MEMB     55       POPE     H8R      HAL2     0.900000E-01   1.00800           0
      4973 MEMB     55       POPE     H8S      HAL2     0.900000E-01   1.00800           0
      4974 MEMB     55       POPE     C29      CEL1    -0.150000       12.0110           0
      4975 MEMB     55       POPE     H91      HEL1     0.150000       1.00800           0
      4976 MEMB     55       POPE     C210     CEL1    -0.150000       12.0110           0
      4977 MEMB     55       POPE     H101     HEL1     0.150000       1.00800           0
      4978 MEMB     55       POPE     C211     CTL2    -0.180000       12.0110           0
      4979 MEMB     55       POPE     H11R     HAL2     0.900000E-01   1.00800           0
      4980 MEMB     55       POPE     H11S     HAL2     0.900000E-01   1.00800           0
      4981 MEMB     55       POPE     C212     CTL2    -0.180000       12.0110           0
      4982 MEMB     55       POPE     H12R     HAL2     0.900000E-01   1.00800           0
      4983 MEMB     55       POPE     H12S     HAL2     0.900000E-01   1.00800           0
      4984 MEMB     55       POPE     C213     CTL2    -0.180000       12.0110           0
      4985 MEMB     55       POPE     H13R     HAL2     0.900000E-01   1.00800           0
      4986 MEMB     55       POPE     H13S     HAL2     0.900000E-01   1.00800           0
      4987 MEMB     55       POPE     C214     CTL2    -0.180000       12.0110           0
      4988 MEMB     55       POPE     H14R     HAL2     0.900000E-01   1.00800           0
      4989 MEMB     55       POPE     H14S     HAL2     0.900000E-01   1.00800           0
      4990 MEMB     55       POPE     C215     CTL2    -0.180000       12.0110           0
      4991 MEMB     55       POPE     H15R     HAL2     0.900000E-01   1.00800           0
      4992 MEMB     55       POPE     H15S     HAL2     0.900000E-01   1.00800           0
      4993 MEMB     55       POPE     C216     CTL2    -0.180000       12.0110           0
      4994 MEMB     55       POPE     H16R     HAL2     0.900000E-01   1.00800           0
      4995 MEMB     55       POPE     H16S     HAL2     0.900000E-01   1.00800           0
      4996 MEMB     55       POPE     C217     CTL2    -0.180000       12.0110           0
      4997 MEMB     55       POPE     H17R     HAL2     0.900000E-01   1.00800           0
      4998 MEMB     55       POPE     H17S     HAL2     0.900000E-01   1.00800           0
      4999 MEMB     55       POPE     C218     CTL3    -0.270000       12.0110           0
      5000 MEMB     55       POPE     H18R     HAL3     0.900000E-01   1.00800           0
      5001 MEMB     55       POPE     H18S     HAL3     0.900000E-01   1.00800           0
      5002 MEMB     55       POPE     H18T     HAL3     0.900000E-01   1.00800           0
      5003 MEMB     55       POPE     C33      CTL2    -0.180000       12.0110           0
      5004 MEMB     55       POPE     H3X      HAL2     0.900000E-01   1.00800           0
      5005 MEMB     55       POPE     H3Y      HAL2     0.900000E-01   1.00800           0
      5006 MEMB     55       POPE     C34      CTL2    -0.180000       12.0110           0
      5007 MEMB     55       POPE     H4X      HAL2     0.900000E-01   1.00800           0
      5008 MEMB     55       POPE     H4Y      HAL2     0.900000E-01   1.00800           0
      5009 MEMB     55       POPE     C35      CTL2    -0.180000       12.0110           0
      5010 MEMB     55       POPE     H5X      HAL2     0.900000E-01   1.00800           0
      5011 MEMB     55       POPE     H5Y      HAL2     0.900000E-01   1.00800           0
      5012 MEMB     55       POPE     C36      CTL2    -0.180000       12.0110           0
      5013 MEMB     55       POPE     H6X      HAL2     0.900000E-01   1.00800           0
      5014 MEMB     55       POPE     H6Y      HAL2     0.900000E-01   1.00800           0
      5015 MEMB     55       POPE     C37      CTL2    -0.180000       12.0110           0
      5016 MEMB     55       POPE     H7X      HAL2     0.900000E-01   1.00800           0
      5017 MEMB     55       POPE     H7Y      HAL2     0.900000E-01   1.00800           0
      5018 MEMB     55       POPE     C38      CTL2    -0.180000       12.0110           0
      5019 MEMB     55       POPE     H8X      HAL2     0.900000E-01   1.00800           0
      5020 MEMB     55       POPE     H8Y      HAL2     0.900000E-01   1.00800           0
      5021 MEMB     55       POPE     C39      CTL2    -0.180000       12.0110           0
      5022 MEMB     55       POPE     H9X      HAL2     0.900000E-01   1.00800           0
      5023 MEMB     55       POPE     H9Y      HAL2     0.900000E-01   1.00800           0
      5024 MEMB     55       POPE     C310     CTL2    -0.180000       12.0110           0
      5025 MEMB     55       POPE     H10X     HAL2     0.900000E-01   1.00800           0
      5026 MEMB     55       POPE     H10Y     HAL2     0.900000E-01   1.00800           0
      5027 MEMB     55       POPE     C311     CTL2    -0.180000       12.0110           0
      5028 MEMB     55       POPE     H11X     HAL2     0.900000E-01   1.00800           0
      5029 MEMB     55       POPE     H11Y     HAL2     0.900000E-01   1.00800           0
      5030 MEMB     55       POPE     C312     CTL2    -0.180000       12.0110           0
      5031 MEMB     55       POPE     H12X     HAL2     0.900000E-01   1.00800           0
      5032 MEMB     55       POPE     H12Y     HAL2     0.900000E-01   1.00800           0
      5033 MEMB     55       POPE     C313     CTL2    -0.180000       12.0110           0
      5034 MEMB     55       POPE     H13X     HAL2     0.900000E-01   1.00800           0
      5035 MEMB     55       POPE     H13Y     HAL2     0.900000E-01   1.00800           0
      5036 MEMB     55       POPE     C314     CTL2    -0.180000       12.0110           0
      5037 MEMB     55       POPE     H14X     HAL2     0.900000E-01   1.00800           0
      5038 MEMB     55       POPE     H14Y     HAL2     0.900000E-01   1.00800           0
      5039 MEMB     55       POPE     C315     CTL2    -0.180000       12.0110           0
      5040 MEMB     55       POPE     H15X     HAL2     0.900000E-01   1.00800           0
      5041 MEMB     55       POPE     H15Y     HAL2     0.900000E-01   1.00800           0
      5042 MEMB     55       POPE     C316     CTL3    -0.270000       12.0110           0
      5043 MEMB     55       POPE     H16X     HAL3     0.900000E-01   1.00800           0
      5044 MEMB     55       POPE     H16Y     HAL3     0.900000E-01   1.00800           0
      5045 MEMB     55       POPE     H16Z     HAL3     0.900000E-01   1.00800           0
      5046 MEMB     56       POPE     N        NH3L    -0.300000       14.0070           0
      5047 MEMB     56       POPE     HN1      HCL      0.330000       1.00800           0
      5048 MEMB     56       POPE     HN2      HCL      0.330000       1.00800           0
      5049 MEMB     56       POPE     HN3      HCL      0.330000       1.00800           0
      5050 MEMB     56       POPE     C12      CTL2     0.130000       12.0110           0
      5051 MEMB     56       POPE     H12A     HAL2     0.900000E-01   1.00800           0
      5052 MEMB     56       POPE     H12B     HAL2     0.900000E-01   1.00800           0
      5053 MEMB     56       POPE     C11      CTL2    -0.800000E-01   12.0110           0
      5054 MEMB     56       POPE     H11A     HAL2     0.900000E-01   1.00800           0
      5055 MEMB     56       POPE     H11B     HAL2     0.900000E-01   1.00800           0
      5056 MEMB     56       POPE     P        PL        1.50000       30.9740           0
      5057 MEMB     56       POPE     O13      O2L     -0.780000       15.9994           0
      5058 MEMB     56       POPE     O14      O2L     -0.780000       15.9994           0
      5059 MEMB     56       POPE     O11      OSLP    -0.570000       15.9994           0
      5060 MEMB     56       POPE     O12      OSLP    -0.570000       15.9994           0
      5061 MEMB     56       POPE     C1       CTL2    -0.800000E-01   12.0110           0
      5062 MEMB     56       POPE     HA       HAL2     0.900000E-01   1.00800           0
      5063 MEMB     56       POPE     HB       HAL2     0.900000E-01   1.00800           0
      5064 MEMB     56       POPE     C2       CTL1     0.170000       12.0110           0
      5065 MEMB     56       POPE     HS       HAL1     0.900000E-01   1.00800           0
      5066 MEMB     56       POPE     O21      OSL     -0.490000       15.9994           0
      5067 MEMB     56       POPE     C21      CL       0.900000       12.0110           0
      5068 MEMB     56       POPE     O22      OBL     -0.630000       15.9994           0
      5069 MEMB     56       POPE     C22      CTL2    -0.220000       12.0110           0
      5070 MEMB     56       POPE     H2R      HAL2     0.900000E-01   1.00800           0
      5071 MEMB     56       POPE     H2S      HAL2     0.900000E-01   1.00800           0
      5072 MEMB     56       POPE     C3       CTL2     0.800000E-01   12.0110           0
      5073 MEMB     56       POPE     HX       HAL2     0.900000E-01   1.00800           0
      5074 MEMB     56       POPE     HY       HAL2     0.900000E-01   1.00800           0
      5075 MEMB     56       POPE     O31      OSL     -0.490000       15.9994           0
      5076 MEMB     56       POPE     C31      CL       0.900000       12.0110           0
      5077 MEMB     56       POPE     O32      OBL     -0.630000       15.9994           0
      5078 MEMB     56       POPE     C32      CTL2    -0.220000       12.0110           0
      5079 MEMB     56       POPE     H2X      HAL2     0.900000E-01   1.00800           0
      5080 MEMB     56       POPE     H2Y      HAL2     0.900000E-01   1.00800           0
      5081 MEMB     56       POPE     C23      CTL2    -0.180000       12.0110           0
      5082 MEMB     56       POPE     H3R      HAL2     0.900000E-01   1.00800           0
      5083 MEMB     56       POPE     H3S      HAL2     0.900000E-01   1.00800           0
      5084 MEMB     56       POPE     C24      CTL2    -0.180000       12.0110           0
      5085 MEMB     56       POPE     H4R      HAL2     0.900000E-01   1.00800           0
      5086 MEMB     56       POPE     H4S      HAL2     0.900000E-01   1.00800           0
      5087 MEMB     56       POPE     C25      CTL2    -0.180000       12.0110           0
      5088 MEMB     56       POPE     H5R      HAL2     0.900000E-01   1.00800           0
      5089 MEMB     56       POPE     H5S      HAL2     0.900000E-01   1.00800           0
      5090 MEMB     56       POPE     C26      CTL2    -0.180000       12.0110           0
      5091 MEMB     56       POPE     H6R      HAL2     0.900000E-01   1.00800           0
      5092 MEMB     56       POPE     H6S      HAL2     0.900000E-01   1.00800           0
      5093 MEMB     56       POPE     C27      CTL2    -0.180000       12.0110           0
      5094 MEMB     56       POPE     H7R      HAL2     0.900000E-01   1.00800           0
      5095 MEMB     56       POPE     H7S      HAL2     0.900000E-01   1.00800           0
      5096 MEMB     56       POPE     C28      CTL2    -0.180000       12.0110           0
      5097 MEMB     56       POPE     H8R      HAL2     0.900000E-01   1.00800           0
      5098 MEMB     56       POPE     H8S      HAL2     0.900000E-01   1.00800           0
      5099 MEMB     56       POPE     C29      CEL1    -0.150000       12.0110           0
      5100 MEMB     56       POPE     H91      HEL1     0.150000       1.00800           0
      5101 MEMB     56       POPE     C210     CEL1    -0.150000       12.0110           0
      5102 MEMB     56       POPE     H101     HEL1     0.150000       1.00800           0
      5103 MEMB     56       POPE     C211     CTL2    -0.180000       12.0110           0
      5104 MEMB     56       POPE     H11R     HAL2     0.900000E-01   1.00800           0
      5105 MEMB     56       POPE     H11S     HAL2     0.900000E-01   1.00800           0
      5106 MEMB     56       POPE     C212     CTL2    -0.180000       12.0110           0
      5107 MEMB     56       POPE     H12R     HAL2     0.900000E-01   1.00800           0
      5108 MEMB     56       POPE     H12S     HAL2     0.900000E-01   1.00800           0
      5109 MEMB     56       POPE     C213     CTL2    -0.180000       12.0110           0
      5110 MEMB     56       POPE     H13R     HAL2     0.900000E-01   1.00800           0
      5111 MEMB     56       POPE     H13S     HAL2     0.900000E-01   1.00800           0
      5112 MEMB     56       POPE     C214     CTL2    -0.180000       12.0110           0
      5113 MEMB     56       POPE     H14R     HAL2     0.900000E-01   1.00800           0
      5114 MEMB     56       POPE     H14S     HAL2     0.900000E-01   1.00800           0
      5115 MEMB     56       POPE     C215     CTL2    -0.180000       12.0110           0
      5116 MEMB     56       POPE     H15R     HAL2     0.900000E-01   1.00800           0
      5117 MEMB     56       POPE     H15S     HAL2     0.900000E-01   1.00800           0
      5118 MEMB     56       POPE     C216     CTL2    -0.180000       12.0110           0
      5119 MEMB     56       POPE     H16R     HAL2     0.900000E-01   1.00800           0
      5120 MEMB     56       POPE     H16S     HAL2     0.900000E-01   1.00800           0
      5121 MEMB     56       POPE     C217     CTL2    -0.180000       12.0110           0
      5122 MEMB     56       POPE     H17R     HAL2     0.900000E-01   1.00800           0
      5123 MEMB     56       POPE     H17S     HAL2     0.900000E-01   1.00800           0
      5124 MEMB     56       POPE     C218     CTL3    -0.270000       12.0110           0
      5125 MEMB     56       POPE     H18R     HAL3     0.900000E-01   1.00800           0
      5126 MEMB     56       POPE     H18S     HAL3     0.900000E-01   1.00800           0
      5127 MEMB     56       POPE     H18T     HAL3     0.900000E-01   1.00800           0
      5128 MEMB     56       POPE     C33      CTL2    -0.180000       12.0110           0
      5129 MEMB     56       POPE     H3X      HAL2     0.900000E-01   1.00800           0
      5130 MEMB     56       POPE     H3Y      HAL2     0.900000E-01   1.00800           0
      5131 MEMB     56       POPE     C34      CTL2    -0.180000       12.0110           0
      5132 MEMB     56       POPE     H4X      HAL2     0.900000E-01   1.00800           0
      5133 MEMB     56       POPE     H4Y      HAL2     0.900000E-01   1.00800           0
      5134 MEMB     56       POPE     C35      CTL2    -0.180000       12.0110           0
      5135 MEMB     56       POPE     H5X      HAL2     0.900000E-01   1.00800           0
      5136 MEMB     56       POPE     H5Y      HAL2     0.900000E-01   1.00800           0
      5137 MEMB     56       POPE     C36      CTL2    -0.180000       12.0110           0
      5138 MEMB     56       POPE     H6X      HAL2     0.900000E-01   1.00800           0
      5139 MEMB     56       POPE     H6Y      HAL2     0.900000E-01   1.00800           0
      5140 MEMB     56       POPE     C37      CTL2    -0.180000       12.0110           0
      5141 MEMB     56       POPE     H7X      HAL2     0.900000E-01   1.00800           0
      5142 MEMB     56       POPE     H7Y      HAL2     0.900000E-01   1.00800           0
      5143 MEMB     56       POPE     C38      CTL2    -0.180000       12.0110           0
      5144 MEMB     56       POPE     H8X      HAL2     0.900000E-01   1.00800           0
      5145 MEMB     56       POPE     H8Y      HAL2     0.900000E-01   1.00800           0
      5146 MEMB     56       POPE     C39      CTL2    -0.180000       12.0110           0
      5147 MEMB     56       POPE     H9X      HAL2     0.900000E-01   1.00800           0
      5148 MEMB     56       POPE     H9Y      HAL2     0.900000E-01   1.00800           0
      5149 MEMB     56       POPE     C310     CTL2    -0.180000       12.0110           0
      5150 MEMB     56       POPE     H10X     HAL2     0.900000E-01   1.00800           0
      5151 MEMB     56       POPE     H10Y     HAL2     0.900000E-01   1.00800           0
      5152 MEMB     56       POPE     C311     CTL2    -0.180000       12.0110           0
      5153 MEMB     56       POPE     H11X     HAL2     0.900000E-01   1.00800           0
      5154 MEMB     56       POPE     H11Y     HAL2     0.900000E-01   1.00800           0
      5155 MEMB     56       POPE     C312     CTL2    -0.180000       12.0110           0
      5156 MEMB     56       POPE     H12X     HAL2     0.900000E-01   1.00800           0
      5157 MEMB     56       POPE     H12Y     HAL2     0.900000E-01   1.00800           0
      5158 MEMB     56       POPE     C313     CTL2    -0.180000       12.0110           0
      5159 MEMB     56       POPE     H13X     HAL2     0.900000E-01   1.00800           0
      5160 MEMB     56       POPE     H13Y     HAL2     0.900000E-01   1.00800           0
      5161 MEMB     56       POPE     C314     CTL2    -0.180000       12.0110           0
      5162 MEMB     56       POPE     H14X     HAL2     0.900000E-01   1.00800           0
      5163 MEMB     56       POPE     H14Y     HAL2     0.900000E-01   1.00800           0
      5164 MEMB     56       POPE     C315     CTL2    -0.180000       12.0110           0
      5165 MEMB     56       POPE     H15X     HAL2     0.900000E-01   1.00800           0
      5166 MEMB     56       POPE     H15Y     HAL2     0.900000E-01   1.00800           0
      5167 MEMB     56       POPE     C316     CTL3    -0.270000       12.0110           0
      5168 MEMB     56       POPE     H16X     HAL3     0.900000E-01   1.00800           0
      5169 MEMB     56       POPE     H16Y     HAL3     0.900000E-01   1.00800           0
      5170 MEMB     56       POPE     H16Z     HAL3     0.900000E-01   1.00800           0
      5171 MEMB     57       POPC     N        NTL     -0.600000       14.0070           0
      5172 MEMB     57       POPC     C12      CTL2    -0.100000       12.0110           0
      5173 MEMB     57       POPC     H12A     HL       0.250000       1.00800           0
      5174 MEMB     57       POPC     H12B     HL       0.250000       1.00800           0
      5175 MEMB     57       POPC     C13      CTL5    -0.350000       12.0110           0
      5176 MEMB     57       POPC     H13A     HL       0.250000       1.00800           0
      5177 MEMB     57       POPC     H13B     HL       0.250000       1.00800           0
      5178 MEMB     57       POPC     H13C     HL       0.250000       1.00800           0
      5179 MEMB     57       POPC     C14      CTL5    -0.350000       12.0110           0
      5180 MEMB     57       POPC     H14A     HL       0.250000       1.00800           0
      5181 MEMB     57       POPC     H14B     HL       0.250000       1.00800           0
      5182 MEMB     57       POPC     H14C     HL       0.250000       1.00800           0
      5183 MEMB     57       POPC     C15      CTL5    -0.350000       12.0110           0
      5184 MEMB     57       POPC     H15A     HL       0.250000       1.00800           0
      5185 MEMB     57       POPC     H15B     HL       0.250000       1.00800           0
      5186 MEMB     57       POPC     H15C     HL       0.250000       1.00800           0
      5187 MEMB     57       POPC     C11      CTL2    -0.800000E-01   12.0110           0
      5188 MEMB     57       POPC     H11A     HAL2     0.900000E-01   1.00800           0
      5189 MEMB     57       POPC     H11B     HAL2     0.900000E-01   1.00800           0
      5190 MEMB     57       POPC     P        PL        1.50000       30.9740           0
      5191 MEMB     57       POPC     O13      O2L     -0.780000       15.9994           0
      5192 MEMB     57       POPC     O14      O2L     -0.780000       15.9994           0
      5193 MEMB     57       POPC     O12      OSLP    -0.570000       15.9994           0
      5194 MEMB     57       POPC     O11      OSLP    -0.570000       15.9994           0
      5195 MEMB     57       POPC     C1       CTL2    -0.800000E-01   12.0110           0
      5196 MEMB     57       POPC     HA       HAL2     0.900000E-01   1.00800           0
      5197 MEMB     57       POPC     HB       HAL2     0.900000E-01   1.00800           0
      5198 MEMB     57       POPC     C2       CTL1     0.170000       12.0110           0
      5199 MEMB     57       POPC     HS       HAL1     0.900000E-01   1.00800           0
      5200 MEMB     57       POPC     O21      OSL     -0.490000       15.9994           0
      5201 MEMB     57       POPC     C21      CL       0.900000       12.0110           0
      5202 MEMB     57       POPC     O22      OBL     -0.630000       15.9994           0
      5203 MEMB     57       POPC     C22      CTL2    -0.220000       12.0110           0
      5204 MEMB     57       POPC     H2R      HAL2     0.900000E-01   1.00800           0
      5205 MEMB     57       POPC     H2S      HAL2     0.900000E-01   1.00800           0
      5206 MEMB     57       POPC     C3       CTL2     0.800000E-01   12.0110           0
      5207 MEMB     57       POPC     HX       HAL2     0.900000E-01   1.00800           0
      5208 MEMB     57       POPC     HY       HAL2     0.900000E-01   1.00800           0
      5209 MEMB     57       POPC     O31      OSL     -0.490000       15.9994           0
      5210 MEMB     57       POPC     C31      CL       0.900000       12.0110           0
      5211 MEMB     57       POPC     O32      OBL     -0.630000       15.9994           0
      5212 MEMB     57       POPC     C32      CTL2    -0.220000       12.0110           0
      5213 MEMB     57       POPC     H2X      HAL2     0.900000E-01   1.00800           0
      5214 MEMB     57       POPC     H2Y      HAL2     0.900000E-01   1.00800           0
      5215 MEMB     57       POPC     C23      CTL2    -0.180000       12.0110           0
      5216 MEMB     57       POPC     H3R      HAL2     0.900000E-01   1.00800           0
      5217 MEMB     57       POPC     H3S      HAL2     0.900000E-01   1.00800           0
      5218 MEMB     57       POPC     C24      CTL2    -0.180000       12.0110           0
      5219 MEMB     57       POPC     H4R      HAL2     0.900000E-01   1.00800           0
      5220 MEMB     57       POPC     H4S      HAL2     0.900000E-01   1.00800           0
      5221 MEMB     57       POPC     C25      CTL2    -0.180000       12.0110           0
      5222 MEMB     57       POPC     H5R      HAL2     0.900000E-01   1.00800           0
      5223 MEMB     57       POPC     H5S      HAL2     0.900000E-01   1.00800           0
      5224 MEMB     57       POPC     C26      CTL2    -0.180000       12.0110           0
      5225 MEMB     57       POPC     H6R      HAL2     0.900000E-01   1.00800           0
      5226 MEMB     57       POPC     H6S      HAL2     0.900000E-01   1.00800           0
      5227 MEMB     57       POPC     C27      CTL2    -0.180000       12.0110           0
      5228 MEMB     57       POPC     H7R      HAL2     0.900000E-01   1.00800           0
      5229 MEMB     57       POPC     H7S      HAL2     0.900000E-01   1.00800           0
      5230 MEMB     57       POPC     C28      CTL2    -0.180000       12.0110           0
      5231 MEMB     57       POPC     H8R      HAL2     0.900000E-01   1.00800           0
      5232 MEMB     57       POPC     H8S      HAL2     0.900000E-01   1.00800           0
      5233 MEMB     57       POPC     C29      CEL1    -0.150000       12.0110           0
      5234 MEMB     57       POPC     H91      HEL1     0.150000       1.00800           0
      5235 MEMB     57       POPC     C210     CEL1    -0.150000       12.0110           0
      5236 MEMB     57       POPC     H101     HEL1     0.150000       1.00800           0
      5237 MEMB     57       POPC     C211     CTL2    -0.180000       12.0110           0
      5238 MEMB     57       POPC     H11R     HAL2     0.900000E-01   1.00800           0
      5239 MEMB     57       POPC     H11S     HAL2     0.900000E-01   1.00800           0
      5240 MEMB     57       POPC     C212     CTL2    -0.180000       12.0110           0
      5241 MEMB     57       POPC     H12R     HAL2     0.900000E-01   1.00800           0
      5242 MEMB     57       POPC     H12S     HAL2     0.900000E-01   1.00800           0
      5243 MEMB     57       POPC     C213     CTL2    -0.180000       12.0110           0
      5244 MEMB     57       POPC     H13R     HAL2     0.900000E-01   1.00800           0
      5245 MEMB     57       POPC     H13S     HAL2     0.900000E-01   1.00800           0
      5246 MEMB     57       POPC     C214     CTL2    -0.180000       12.0110           0
      5247 MEMB     57       POPC     H14R     HAL2     0.900000E-01   1.00800           0
      5248 MEMB     57       POPC     H14S     HAL2     0.900000E-01   1.00800           0
      5249 MEMB     57       POPC     C215     CTL2    -0.180000       12.0110           0
      5250 MEMB     57       POPC     H15R     HAL2     0.900000E-01   1.00800           0
      5251 MEMB     57       POPC     H15S     HAL2     0.900000E-01   1.00800           0
      5252 MEMB     57       POPC     C216     CTL2    -0.180000       12.0110           0
      5253 MEMB     57       POPC     H16R     HAL2     0.900000E-01   1.00800           0
      5254 MEMB     57       POPC     H16S     HAL2     0.900000E-01   1.00800           0
      5255 MEMB     57       POPC     C217     CTL2    -0.180000       12.0110           0
      5256 MEMB     57       POPC     H17R     HAL2     0.900000E-01   1.00800           0
      5257 MEMB     57       POPC     H17S     HAL2     0.900000E-01   1.00800           0
      5258 MEMB     57       POPC     C218     CTL3    -0.270000       12.0110           0
      5259 MEMB     57       POPC     H18R     HAL3     0.900000E-01   1.00800           0
      5260 MEMB     57       POPC     H18S     HAL3     0.900000E-01   1.00800           0
      5261 MEMB     57       POPC     H18T     HAL3     0.900000E-01   1.00800           0
      5262 MEMB     57       POPC     C33      CTL2    -0.180000       12.0110           0
      5263 MEMB     57       POPC     H3X      HAL2     0.900000E-01   1.00800           0
      5264 MEMB     57       POPC     H3Y      HAL2     0.900000E-01   1.00800           0
      5265 MEMB     57       POPC     C34      CTL2    -0.180000       12.0110           0
      5266 MEMB     57       POPC     H4X      HAL2     0.900000E-01   1.00800           0
      5267 MEMB     57       POPC     H4Y      HAL2     0.900000E-01   1.00800           0
      5268 MEMB     57       POPC     C35      CTL2    -0.180000       12.0110           0
      5269 MEMB     57       POPC     H5X      HAL2     0.900000E-01   1.00800           0
      5270 MEMB     57       POPC     H5Y      HAL2     0.900000E-01   1.00800           0
      5271 MEMB     57       POPC     C36      CTL2    -0.180000       12.0110           0
      5272 MEMB     57       POPC     H6X      HAL2     0.900000E-01   1.00800           0
      5273 MEMB     57       POPC     H6Y      HAL2     0.900000E-01   1.00800           0
      5274 MEMB     57       POPC     C37      CTL2    -0.180000       12.0110           0
      5275 MEMB     57       POPC     H7X      HAL2     0.900000E-01   1.00800           0
      5276 MEMB     57       POPC     H7Y      HAL2     0.900000E-01   1.00800           0
      5277 MEMB     57       POPC     C38      CTL2    -0.180000       12.0110           0
      5278 MEMB     57       POPC     H8X      HAL2     0.900000E-01   1.00800           0
      5279 MEMB     57       POPC     H8Y      HAL2     0.900000E-01   1.00800           0
      5280 MEMB     57       POPC     C39      CTL2    -0.180000       12.0110           0
      5281 MEMB     57       POPC     H9X      HAL2     0.900000E-01   1.00800           0
      5282 MEMB     57       POPC     H9Y      HAL2     0.900000E-01   1.00800           0
      5283 MEMB     57       POPC     C310     CTL2    -0.180000       12.0110           0
      5284 MEMB     57       POPC     H10X     HAL2     0.900000E-01   1.00800           0
      5285 MEMB     57       POPC     H10Y     HAL2     0.900000E-01   1.00800           0
      5286 MEMB     57       POPC     C311     CTL2    -0.180000       12.0110           0
      5287 MEMB     57       POPC     H11X     HAL2     0.900000E-01   1.00800           0
      5288 MEMB     57       POPC     H11Y     HAL2     0.900000E-01   1.00800           0
      5289 MEMB     57       POPC     C312     CTL2    -0.180000       12.0110           0
      5290 MEMB     57       POPC     H12X     HAL2     0.900000E-01   1.00800           0
      5291 MEMB     57       POPC     H12Y     HAL2     0.900000E-01   1.00800           0
      5292 MEMB     57       POPC     C313     CTL2    -0.180000       12.0110           0
      5293 MEMB     57       POPC     H13X     HAL2     0.900000E-01   1.00800           0
      5294 MEMB     57       POPC     H13Y     HAL2     0.900000E-01   1.00800           0
      5295 MEMB     57       POPC     C314     CTL2    -0.180000       12.0110           0
      5296 MEMB     57       POPC     H14X     HAL2     0.900000E-01   1.00800           0
      5297 MEMB     57       POPC     H14Y     HAL2     0.900000E-01   1.00800           0
      5298 MEMB     57       POPC     C315     CTL2    -0.180000       12.0110           0
      5299 MEMB     57       POPC     H15X     HAL2     0.900000E-01   1.00800           0
      5300 MEMB     57       POPC     H15Y     HAL2     0.900000E-01   1.00800           0
      5301 MEMB     57       POPC     C316     CTL3    -0.270000       12.0110           0
      5302 MEMB     57       POPC     H16X     HAL3     0.900000E-01   1.00800           0
      5303 MEMB     57       POPC     H16Y     HAL3     0.900000E-01   1.00800           0
      5304 MEMB     57       POPC     H16Z     HAL3     0.900000E-01   1.00800           0
      5305 MEMB     58       POPE     N        NH3L    -0.300000       14.0070           0
      5306 MEMB     58       POPE     HN1      HCL      0.330000       1.00800           0
      5307 MEMB     58       POPE     HN2      HCL      0.330000       1.00800           0
      5308 MEMB     58       POPE     HN3      HCL      0.330000       1.00800           0
      5309 MEMB     58       POPE     C12      CTL2     0.130000       12.0110           0
      5310 MEMB     58       POPE     H12A     HAL2     0.900000E-01   1.00800           0
      5311 MEMB     58       POPE     H12B     HAL2     0.900000E-01   1.00800           0
      5312 MEMB     58       POPE     C11      CTL2    -0.800000E-01   12.0110           0
      5313 MEMB     58       POPE     H11A     HAL2     0.900000E-01   1.00800           0
      5314 MEMB     58       POPE     H11B     HAL2     0.900000E-01   1.00800           0
      5315 MEMB     58       POPE     P        PL        1.50000       30.9740           0
      5316 MEMB     58       POPE     O13      O2L     -0.780000       15.9994           0
      5317 MEMB     58       POPE     O14      O2L     -0.780000       15.9994           0
      5318 MEMB     58       POPE     O11      OSLP    -0.570000       15.9994           0
      5319 MEMB     58       POPE     O12      OSLP    -0.570000       15.9994           0
      5320 MEMB     58       POPE     C1       CTL2    -0.800000E-01   12.0110           0
      5321 MEMB     58       POPE     HA       HAL2     0.900000E-01   1.00800           0
      5322 MEMB     58       POPE     HB       HAL2     0.900000E-01   1.00800           0
      5323 MEMB     58       POPE     C2       CTL1     0.170000       12.0110           0
      5324 MEMB     58       POPE     HS       HAL1     0.900000E-01   1.00800           0
      5325 MEMB     58       POPE     O21      OSL     -0.490000       15.9994           0
      5326 MEMB     58       POPE     C21      CL       0.900000       12.0110           0
      5327 MEMB     58       POPE     O22      OBL     -0.630000       15.9994           0
      5328 MEMB     58       POPE     C22      CTL2    -0.220000       12.0110           0
      5329 MEMB     58       POPE     H2R      HAL2     0.900000E-01   1.00800           0
      5330 MEMB     58       POPE     H2S      HAL2     0.900000E-01   1.00800           0
      5331 MEMB     58       POPE     C3       CTL2     0.800000E-01   12.0110           0
      5332 MEMB     58       POPE     HX       HAL2     0.900000E-01   1.00800           0
      5333 MEMB     58       POPE     HY       HAL2     0.900000E-01   1.00800           0
      5334 MEMB     58       POPE     O31      OSL     -0.490000       15.9994           0
      5335 MEMB     58       POPE     C31      CL       0.900000       12.0110           0
      5336 MEMB     58       POPE     O32      OBL     -0.630000       15.9994           0
      5337 MEMB     58       POPE     C32      CTL2    -0.220000       12.0110           0
      5338 MEMB     58       POPE     H2X      HAL2     0.900000E-01   1.00800           0
      5339 MEMB     58       POPE     H2Y      HAL2     0.900000E-01   1.00800           0
      5340 MEMB     58       POPE     C23      CTL2    -0.180000       12.0110           0
      5341 MEMB     58       POPE     H3R      HAL2     0.900000E-01   1.00800           0
      5342 MEMB     58       POPE     H3S      HAL2     0.900000E-01   1.00800           0
      5343 MEMB     58       POPE     C24      CTL2    -0.180000       12.0110           0
      5344 MEMB     58       POPE     H4R      HAL2     0.900000E-01   1.00800           0
      5345 MEMB     58       POPE     H4S      HAL2     0.900000E-01   1.00800           0
      5346 MEMB     58       POPE     C25      CTL2    -0.180000       12.0110           0
      5347 MEMB     58       POPE     H5R      HAL2     0.900000E-01   1.00800           0
      5348 MEMB     58       POPE     H5S      HAL2     0.900000E-01   1.00800           0
      5349 MEMB     58       POPE     C26      CTL2    -0.180000       12.0110           0
      5350 MEMB     58       POPE     H6R      HAL2     0.900000E-01   1.00800           0
      5351 MEMB     58       POPE     H6S      HAL2     0.900000E-01   1.00800           0
      5352 MEMB     58       POPE     C27      CTL2    -0.180000       12.0110           0
      5353 MEMB     58       POPE     H7R      HAL2     0.900000E-01   1.00800           0
      5354 MEMB     58       POPE     H7S      HAL2     0.900000E-01   1.00800           0
      5355 MEMB     58       POPE     C28      CTL2    -0.180000       12.0110           0
      5356 MEMB     58       POPE     H8R      HAL2     0.900000E-01   1.00800           0
      5357 MEMB     58       POPE     H8S      HAL2     0.900000E-01   1.00800           0
      5358 MEMB     58       POPE     C29      CEL1    -0.150000       12.0110           0
      5359 MEMB     58       POPE     H91      HEL1     0.150000       1.00800           0
      5360 MEMB     58       POPE     C210     CEL1    -0.150000       12.0110           0
      5361 MEMB     58       POPE     H101     HEL1     0.150000       1.00800           0
      5362 MEMB     58       POPE     C211     CTL2    -0.180000       12.0110           0
      5363 MEMB     58       POPE     H11R     HAL2     0.900000E-01   1.00800           0
      5364 MEMB     58       POPE     H11S     HAL2     0.900000E-01   1.00800           0
      5365 MEMB     58       POPE     C212     CTL2    -0.180000       12.0110           0
      5366 MEMB     58       POPE     H12R     HAL2     0.900000E-01   1.00800           0
      5367 MEMB     58       POPE     H12S     HAL2     0.900000E-01   1.00800           0
      5368 MEMB     58       POPE     C213     CTL2    -0.180000       12.0110           0
      5369 MEMB     58       POPE     H13R     HAL2     0.900000E-01   1.00800           0
      5370 MEMB     58       POPE     H13S     HAL2     0.900000E-01   1.00800           0
      5371 MEMB     58       POPE     C214     CTL2    -0.180000       12.0110           0
      5372 MEMB     58       POPE     H14R     HAL2     0.900000E-01   1.00800           0
      5373 MEMB     58       POPE     H14S     HAL2     0.900000E-01   1.00800           0
      5374 MEMB     58       POPE     C215     CTL2    -0.180000       12.0110           0
      5375 MEMB     58       POPE     H15R     HAL2     0.900000E-01   1.00800           0
      5376 MEMB     58       POPE     H15S     HAL2     0.900000E-01   1.00800           0
      5377 MEMB     58       POPE     C216     CTL2    -0.180000       12.0110           0
      5378 MEMB     58       POPE     H16R     HAL2     0.900000E-01   1.00800           0
      5379 MEMB     58       POPE     H16S     HAL2     0.900000E-01   1.00800           0
      5380 MEMB     58       POPE     C217     CTL2    -0.180000       12.0110           0
      5381 MEMB     58       POPE     H17R     HAL2     0.900000E-01   1.00800           0
      5382 MEMB     58       POPE     H17S     HAL2     0.900000E-01   1.00800           0
      5383 MEMB     58       POPE     C218     CTL3    -0.270000       12.0110           0
      5384 MEMB     58       POPE     H18R     HAL3     0.900000E-01   1.00800           0
      5385 MEMB     58       POPE     H18S     HAL3     0.900000E-01   1.00800           0
      5386 MEMB     58       POPE     H18T     HAL3     0.900000E-01   1.00800           0
      5387 MEMB     58       POPE     C33      CTL2    -0.180000       12.0110           0
      5388 MEMB     58       POPE     H3X      HAL2     0.900000E-01   1.00800           0
      5389 MEMB     58       POPE     H3Y      HAL2     0.900000E-01   1.00800           0
      5390 MEMB     58       POPE     C34      CTL2    -0.180000       12.0110           0
      5391 MEMB     58       POPE     H4X      HAL2     0.900000E-01   1.00800           0
      5392 MEMB     58       POPE     H4Y      HAL2     0.900000E-01   1.00800           0
      5393 MEMB     58       POPE     C35      CTL2    -0.180000       12.0110           0
      5394 MEMB     58       POPE     H5X      HAL2     0.900000E-01   1.00800           0
      5395 MEMB     58       POPE     H5Y      HAL2     0.900000E-01   1.00800           0
      5396 MEMB     58       POPE     C36      CTL2    -0.180000       12.0110           0
      5397 MEMB     58       POPE     H6X      HAL2     0.900000E-01   1.00800           0
      5398 MEMB     58       POPE     H6Y      HAL2     0.900000E-01   1.00800           0
      5399 MEMB     58       POPE     C37      CTL2    -0.180000       12.0110           0
      5400 MEMB     58       POPE     H7X      HAL2     0.900000E-01   1.00800           0
      5401 MEMB     58       POPE     H7Y      HAL2     0.900000E-01   1.00800           0
      5402 MEMB     58       POPE     C38      CTL2    -0.180000       12.0110           0
      5403 MEMB     58       POPE     H8X      HAL2     0.900000E-01   1.00800           0
      5404 MEMB     58       POPE     H8Y      HAL2     0.900000E-01   1.00800           0
      5405 MEMB     58       POPE     C39      CTL2    -0.180000       12.0110           0
      5406 MEMB     58       POPE     H9X      HAL2     0.900000E-01   1.00800           0
      5407 MEMB     58       POPE     H9Y      HAL2     0.900000E-01   1.00800           0
      5408 MEMB     58       POPE     C310     CTL2    -0.180000       12.0110           0
      5409 MEMB     58       POPE     H10X     HAL2     0.900000E-01   1.00800           0
      5410 MEMB     58       POPE     H10Y     HAL2     0.900000E-01   1.00800           0
      5411 MEMB     58       POPE     C311     CTL2    -0.180000       12.0110           0
      5412 MEMB     58       POPE     H11X     HAL2     0.900000E-01   1.00800           0
      5413 MEMB     58       POPE     H11Y     HAL2     0.900000E-01   1.00800           0
      5414 MEMB     58       POPE     C312     CTL2    -0.180000       12.0110           0
      5415 MEMB     58       POPE     H12X     HAL2     0.900000E-01   1.00800           0
      5416 MEMB     58       POPE     H12Y     HAL2     0.900000E-01   1.00800           0
      5417 MEMB     58       POPE     C313     CTL2    -0.180000       12.0110           0
      5418 MEMB     58       POPE     H13X     HAL2     0.900000E-01   1.00800           0
      5419 MEMB     58       POPE     H13Y     HAL2     0.900000E-01   1.00800           0
      5420 MEMB     58       POPE     C314     CTL2    -0.180000       12.0110           0
      5421 MEMB     58       POPE     H14X     HAL2     0.900000E-01   1.00800           0
      5422 MEMB     58       POPE     H14Y     HAL2     0.900000E-01   1.00800           0
      5423 MEMB     58       POPE     C315     CTL2    -0.180000       12.0110           0
      5424 MEMB     58       POPE     H15X     HAL2     0.900000E-01   1.00800           0
      5425 MEMB     58       POPE     H15Y     HAL2     0.900000E-01   1.00800           0
      5426 MEMB     58       POPE     C316     CTL3    -0.270000       12.0110           0
      5427 MEMB     58       POPE     H16X     HAL3     0.900000E-01   1.00800           0
      5428 MEMB     58       POPE     H16Y     HAL3     0.900000E-01   1.00800           0
      5429 MEMB     58       POPE     H16Z     HAL3     0.900000E-01   1.00800           0
      5430 MEMB     59       POPE     N        NH3L    -0.300000       14.0070           0
      5431 MEMB     59       POPE     HN1      HCL      0.330000       1.00800           0
      5432 MEMB     59       POPE     HN2      HCL      0.330000       1.00800           0
      5433 MEMB     59       POPE     HN3      HCL      0.330000       1.00800           0
      5434 MEMB     59       POPE     C12      CTL2     0.130000       12.0110           0
      5435 MEMB     59       POPE     H12A     HAL2     0.900000E-01   1.00800           0
      5436 MEMB     59       POPE     H12B     HAL2     0.900000E-01   1.00800           0
      5437 MEMB     59       POPE     C11      CTL2    -0.800000E-01   12.0110           0
      5438 MEMB     59       POPE     H11A     HAL2     0.900000E-01   1.00800           0
      5439 MEMB     59       POPE     H11B     HAL2     0.900000E-01   1.00800           0
      5440 MEMB     59       POPE     P        PL        1.50000       30.9740           0
      5441 MEMB     59       POPE     O13      O2L     -0.780000       15.9994           0
      5442 MEMB     59       POPE     O14      O2L     -0.780000       15.9994           0
      5443 MEMB     59       POPE     O11      OSLP    -0.570000       15.9994           0
      5444 MEMB     59       POPE     O12      OSLP    -0.570000       15.9994           0
      5445 MEMB     59       POPE     C1       CTL2    -0.800000E-01   12.0110           0
      5446 MEMB     59       POPE     HA       HAL2     0.900000E-01   1.00800           0
      5447 MEMB     59       POPE     HB       HAL2     0.900000E-01   1.00800           0
      5448 MEMB     59       POPE     C2       CTL1     0.170000       12.0110           0
      5449 MEMB     59       POPE     HS       HAL1     0.900000E-01   1.00800           0
      5450 MEMB     59       POPE     O21      OSL     -0.490000       15.9994           0
      5451 MEMB     59       POPE     C21      CL       0.900000       12.0110           0
      5452 MEMB     59       POPE     O22      OBL     -0.630000       15.9994           0
      5453 MEMB     59       POPE     C22      CTL2    -0.220000       12.0110           0
      5454 MEMB     59       POPE     H2R      HAL2     0.900000E-01   1.00800           0
      5455 MEMB     59       POPE     H2S      HAL2     0.900000E-01   1.00800           0
      5456 MEMB     59       POPE     C3       CTL2     0.800000E-01   12.0110           0
      5457 MEMB     59       POPE     HX       HAL2     0.900000E-01   1.00800           0
      5458 MEMB     59       POPE     HY       HAL2     0.900000E-01   1.00800           0
      5459 MEMB     59       POPE     O31      OSL     -0.490000       15.9994           0
      5460 MEMB     59       POPE     C31      CL       0.900000       12.0110           0
      5461 MEMB     59       POPE     O32      OBL     -0.630000       15.9994           0
      5462 MEMB     59       POPE     C32      CTL2    -0.220000       12.0110           0
      5463 MEMB     59       POPE     H2X      HAL2     0.900000E-01   1.00800           0
      5464 MEMB     59       POPE     H2Y      HAL2     0.900000E-01   1.00800           0
      5465 MEMB     59       POPE     C23      CTL2    -0.180000       12.0110           0
      5466 MEMB     59       POPE     H3R      HAL2     0.900000E-01   1.00800           0
      5467 MEMB     59       POPE     H3S      HAL2     0.900000E-01   1.00800           0
      5468 MEMB     59       POPE     C24      CTL2    -0.180000       12.0110           0
      5469 MEMB     59       POPE     H4R      HAL2     0.900000E-01   1.00800           0
      5470 MEMB     59       POPE     H4S      HAL2     0.900000E-01   1.00800           0
      5471 MEMB     59       POPE     C25      CTL2    -0.180000       12.0110           0
      5472 MEMB     59       POPE     H5R      HAL2     0.900000E-01   1.00800           0
      5473 MEMB     59       POPE     H5S      HAL2     0.900000E-01   1.00800           0
      5474 MEMB     59       POPE     C26      CTL2    -0.180000       12.0110           0
      5475 MEMB     59       POPE     H6R      HAL2     0.900000E-01   1.00800           0
      5476 MEMB     59       POPE     H6S      HAL2     0.900000E-01   1.00800           0
      5477 MEMB     59       POPE     C27      CTL2    -0.180000       12.0110           0
      5478 MEMB     59       POPE     H7R      HAL2     0.900000E-01   1.00800           0
      5479 MEMB     59       POPE     H7S      HAL2     0.900000E-01   1.00800           0
      5480 MEMB     59       POPE     C28      CTL2    -0.180000       12.0110           0
      5481 MEMB     59       POPE     H8R      HAL2     0.900000E-01   1.00800           0
      5482 MEMB     59       POPE     H8S      HAL2     0.900000E-01   1.00800           0
      5483 MEMB     59       POPE     C29      CEL1    -0.150000       12.0110           0
      5484 MEMB     59       POPE     H91      HEL1     0.150000       1.00800           0
      5485 MEMB     59       POPE     C210     CEL1    -0.150000       12.0110           0
      5486 MEMB     59       POPE     H101     HEL1     0.150000       1.00800           0
      5487 MEMB     59       POPE     C211     CTL2    -0.180000       12.0110           0
      5488 MEMB     59       POPE     H11R     HAL2     0.900000E-01   1.00800           0
      5489 MEMB     59       POPE     H11S     HAL2     0.900000E-01   1.00800           0
      5490 MEMB     59       POPE     C212     CTL2    -0.180000       12.0110           0
      5491 MEMB     59       POPE     H12R     HAL2     0.900000E-01   1.00800           0
      5492 MEMB     59       POPE     H12S     HAL2     0.900000E-01   1.00800           0
      5493 MEMB     59       POPE     C213     CTL2    -0.180000       12.0110           0
      5494 MEMB     59       POPE     H13R     HAL2     0.900000E-01   1.00800           0
      5495 MEMB     59       POPE     H13S     HAL2     0.900000E-01   1.00800           0
      5496 MEMB     59       POPE     C214     CTL2    -0.180000       12.0110           0
      5497 MEMB     59       POPE     H14R     HAL2     0.900000E-01   1.00800           0
      5498 MEMB     59       POPE     H14S     HAL2     0.900000E-01   1.00800           0
      5499 MEMB     59       POPE     C215     CTL2    -0.180000       12.0110           0
      5500 MEMB     59       POPE     H15R     HAL2     0.900000E-01   1.00800           0
      5501 MEMB     59       POPE     H15S     HAL2     0.900000E-01   1.00800           0
      5502 MEMB     59       POPE     C216     CTL2    -0.180000       12.0110           0
      5503 MEMB     59       POPE     H16R     HAL2     0.900000E-01   1.00800           0
      5504 MEMB     59       POPE     H16S     HAL2     0.900000E-01   1.00800           0
      5505 MEMB     59       POPE     C217     CTL2    -0.180000       12.0110           0
      5506 MEMB     59       POPE     H17R     HAL2     0.900000E-01   1.00800           0
      5507 MEMB     59       POPE     H17S     HAL2     0.900000E-01   1.00800           0
      5508 MEMB     59       POPE     C218     CTL3    -0.270000       12.0110           0
      5509 MEMB     59       POPE     H18R     HAL3     0.900000E-01   1.00800           0
      5510 MEMB     59       POPE     H18S     HAL3     0.900000E-01   1.00800           0
      5511 MEMB     59       POPE     H18T     HAL3     0.900000E-01   1.00800           0
      5512 MEMB     59       POPE     C33      CTL2    -0.180000       12.0110           0
      5513 MEMB     59       POPE     H3X      HAL2     0.900000E-01   1.00800           0
      5514 MEMB     59       POPE     H3Y      HAL2     0.900000E-01   1.00800           0
      5515 MEMB     59       POPE     C34      CTL2    -0.180000       12.0110           0
      5516 MEMB     59       POPE     H4X      HAL2     0.900000E-01   1.00800           0
      5517 MEMB     59       POPE     H4Y      HAL2     0.900000E-01   1.00800           0
      5518 MEMB     59       POPE     C35      CTL2    -0.180000       12.0110           0
      5519 MEMB     59       POPE     H5X      HAL2     0.900000E-01   1.00800           0
      5520 MEMB     59       POPE     H5Y      HAL2     0.900000E-01   1.00800           0
      5521 MEMB     59       POPE     C36      CTL2    -0.180000       12.0110           0
      5522 MEMB     59       POPE     H6X      HAL2     0.900000E-01   1.00800           0
      5523 MEMB     59       POPE     H6Y      HAL2     0.900000E-01   1.00800           0
      5524 MEMB     59       POPE     C37      CTL2    -0.180000       12.0110           0
      5525 MEMB     59       POPE     H7X      HAL2     0.900000E-01   1.00800           0
      5526 MEMB     59       POPE     H7Y      HAL2     0.900000E-01   1.00800           0
      5527 MEMB     59       POPE     C38      CTL2    -0.180000       12.0110           0
      5528 MEMB     59       POPE     H8X      HAL2     0.900000E-01   1.00800           0
      5529 MEMB     59       POPE     H8Y      HAL2     0.900000E-01   1.00800           0
      5530 MEMB     59       POPE     C39      CTL2    -0.180000       12.0110           0
      5531 MEMB     59       POPE     H9X      HAL2     0.900000E-01   1.00800           0
      5532 MEMB     59       POPE     H9Y      HAL2     0.900000E-01   1.00800           0
      5533 MEMB     59       POPE     C310     CTL2    -0.180000       12.0110           0
      5534 MEMB     59       POPE     H10X     HAL2     0.900000E-01   1.00800           0
      5535 MEMB     59       POPE     H10Y     HAL2     0.900000E-01   1.00800           0
      5536 MEMB     59       POPE     C311     CTL2    -0.180000       12.0110           0
      5537 MEMB     59       POPE     H11X     HAL2     0.900000E-01   1.00800           0
      5538 MEMB     59       POPE     H11Y     HAL2     0.900000E-01   1.00800           0
      5539 MEMB     59       POPE     C312     CTL2    -0.180000       12.0110           0
      5540 MEMB     59       POPE     H12X     HAL2     0.900000E-01   1.00800           0
      5541 MEMB     59       POPE     H12Y     HAL2     0.900000E-01   1.00800           0
      5542 MEMB     59       POPE     C313     CTL2    -0.180000       12.0110           0
      5543 MEMB     59       POPE     H13X     HAL2     0.900000E-01   1.00800           0
      5544 MEMB     59       POPE     H13Y     HAL2     0.900000E-01   1.00800           0
      5545 MEMB     59       POPE     C314     CTL2    -0.180000       12.0110           0
      5546 MEMB     59       POPE     H14X     HAL2     0.900000E-01   1.00800           0
      5547 MEMB     59       POPE     H14Y     HAL2     0.900000E-01   1.00800           0
      5548 MEMB     59       POPE     C315     CTL2    -0.180000       12.0110           0
      5549 MEMB     59       POPE     H15X     HAL2     0.900000E-01   1.00800           0
      5550 MEMB     59       POPE     H15Y     HAL2     0.900000E-01   1.00800           0
      5551 MEMB     59       POPE     C316     CTL3    -0.270000       12.0110           0
      5552 MEMB     59       POPE     H16X     HAL3     0.900000E-01   1.00800           0
      5553 MEMB     59       POPE     H16Y     HAL3     0.900000E-01   1.00800           0
      5554 MEMB     59       POPE     H16Z     HAL3     0.900000E-01   1.00800           0
      5555 MEMB     60       POPC     N        NTL     -0.600000       14.0070           0
      5556 MEMB     60       POPC     C12      CTL2    -0.100000       12.0110           0
      5557 MEMB     60       POPC     H12A     HL       0.250000       1.00800           0
      5558 MEMB     60       POPC     H12B     HL       0.250000       1.00800           0
      5559 MEMB     60       POPC     C13      CTL5    -0.350000       12.0110           0
      5560 MEMB     60       POPC     H13A     HL       0.250000       1.00800           0
      5561 MEMB     60       POPC     H13B     HL       0.250000       1.00800           0
      5562 MEMB     60       POPC     H13C     HL       0.250000       1.00800           0
      5563 MEMB     60       POPC     C14      CTL5    -0.350000       12.0110           0
      5564 MEMB     60       POPC     H14A     HL       0.250000       1.00800           0
      5565 MEMB     60       POPC     H14B     HL       0.250000       1.00800           0
      5566 MEMB     60       POPC     H14C     HL       0.250000       1.00800           0
      5567 MEMB     60       POPC     C15      CTL5    -0.350000       12.0110           0
      5568 MEMB     60       POPC     H15A     HL       0.250000       1.00800           0
      5569 MEMB     60       POPC     H15B     HL       0.250000       1.00800           0
      5570 MEMB     60       POPC     H15C     HL       0.250000       1.00800           0
      5571 MEMB     60       POPC     C11      CTL2    -0.800000E-01   12.0110           0
      5572 MEMB     60       POPC     H11A     HAL2     0.900000E-01   1.00800           0
      5573 MEMB     60       POPC     H11B     HAL2     0.900000E-01   1.00800           0
      5574 MEMB     60       POPC     P        PL        1.50000       30.9740           0
      5575 MEMB     60       POPC     O13      O2L     -0.780000       15.9994           0
      5576 MEMB     60       POPC     O14      O2L     -0.780000       15.9994           0
      5577 MEMB     60       POPC     O12      OSLP    -0.570000       15.9994           0
      5578 MEMB     60       POPC     O11      OSLP    -0.570000       15.9994           0
      5579 MEMB     60       POPC     C1       CTL2    -0.800000E-01   12.0110           0
      5580 MEMB     60       POPC     HA       HAL2     0.900000E-01   1.00800           0
      5581 MEMB     60       POPC     HB       HAL2     0.900000E-01   1.00800           0
      5582 MEMB     60       POPC     C2       CTL1     0.170000       12.0110           0
      5583 MEMB     60       POPC     HS       HAL1     0.900000E-01   1.00800           0
      5584 MEMB     60       POPC     O21      OSL     -0.490000       15.9994           0
      5585 MEMB     60       POPC     C21      CL       0.900000       12.0110           0
      5586 MEMB     60       POPC     O22      OBL     -0.630000       15.9994           0
      5587 MEMB     60       POPC     C22      CTL2    -0.220000       12.0110           0
      5588 MEMB     60       POPC     H2R      HAL2     0.900000E-01   1.00800           0
      5589 MEMB     60       POPC     H2S      HAL2     0.900000E-01   1.00800           0
      5590 MEMB     60       POPC     C3       CTL2     0.800000E-01   12.0110           0
      5591 MEMB     60       POPC     HX       HAL2     0.900000E-01   1.00800           0
      5592 MEMB     60       POPC     HY       HAL2     0.900000E-01   1.00800           0
      5593 MEMB     60       POPC     O31      OSL     -0.490000       15.9994           0
      5594 MEMB     60       POPC     C31      CL       0.900000       12.0110           0
      5595 MEMB     60       POPC     O32      OBL     -0.630000       15.9994           0
      5596 MEMB     60       POPC     C32      CTL2    -0.220000       12.0110           0
      5597 MEMB     60       POPC     H2X      HAL2     0.900000E-01   1.00800           0
      5598 MEMB     60       POPC     H2Y      HAL2     0.900000E-01   1.00800           0
      5599 MEMB     60       POPC     C23      CTL2    -0.180000       12.0110           0
      5600 MEMB     60       POPC     H3R      HAL2     0.900000E-01   1.00800           0
      5601 MEMB     60       POPC     H3S      HAL2     0.900000E-01   1.00800           0
      5602 MEMB     60       POPC     C24      CTL2    -0.180000       12.0110           0
      5603 MEMB     60       POPC     H4R      HAL2     0.900000E-01   1.00800           0
      5604 MEMB     60       POPC     H4S      HAL2     0.900000E-01   1.00800           0
      5605 MEMB     60       POPC     C25      CTL2    -0.180000       12.0110           0
      5606 MEMB     60       POPC     H5R      HAL2     0.900000E-01   1.00800           0
      5607 MEMB     60       POPC     H5S      HAL2     0.900000E-01   1.00800           0
      5608 MEMB     60       POPC     C26      CTL2    -0.180000       12.0110           0
      5609 MEMB     60       POPC     H6R      HAL2     0.900000E-01   1.00800           0
      5610 MEMB     60       POPC     H6S      HAL2     0.900000E-01   1.00800           0
      5611 MEMB     60       POPC     C27      CTL2    -0.180000       12.0110           0
      5612 MEMB     60       POPC     H7R      HAL2     0.900000E-01   1.00800           0
      5613 MEMB     60       POPC     H7S      HAL2     0.900000E-01   1.00800           0
      5614 MEMB     60       POPC     C28      CTL2    -0.180000       12.0110           0
      5615 MEMB     60       POPC     H8R      HAL2     0.900000E-01   1.00800           0
      5616 MEMB     60       POPC     H8S      HAL2     0.900000E-01   1.00800           0
      5617 MEMB     60       POPC     C29      CEL1    -0.150000       12.0110           0
      5618 MEMB     60       POPC     H91      HEL1     0.150000       1.00800           0
      5619 MEMB     60       POPC     C210     CEL1    -0.150000       12.0110           0
      5620 MEMB     60       POPC     H101     HEL1     0.150000       1.00800           0
      5621 MEMB     60       POPC     C211     CTL2    -0.180000       12.0110           0
      5622 MEMB     60       POPC     H11R     HAL2     0.900000E-01   1.00800           0
      5623 MEMB     60       POPC     H11S     HAL2     0.900000E-01   1.00800           0
      5624 MEMB     60       POPC     C212     CTL2    -0.180000       12.0110           0
      5625 MEMB     60       POPC     H12R     HAL2     0.900000E-01   1.00800           0
      5626 MEMB     60       POPC     H12S     HAL2     0.900000E-01   1.00800           0
      5627 MEMB     60       POPC     C213     CTL2    -0.180000       12.0110           0
      5628 MEMB     60       POPC     H13R     HAL2     0.900000E-01   1.00800           0
      5629 MEMB     60       POPC     H13S     HAL2     0.900000E-01   1.00800           0
      5630 MEMB     60       POPC     C214     CTL2    -0.180000       12.0110           0
      5631 MEMB     60       POPC     H14R     HAL2     0.900000E-01   1.00800           0
      5632 MEMB     60       POPC     H14S     HAL2     0.900000E-01   1.00800           0
      5633 MEMB     60       POPC     C215     CTL2    -0.180000       12.0110           0
      5634 MEMB     60       POPC     H15R     HAL2     0.900000E-01   1.00800           0
      5635 MEMB     60       POPC     H15S     HAL2     0.900000E-01   1.00800           0
      5636 MEMB     60       POPC     C216     CTL2    -0.180000       12.0110           0
      5637 MEMB     60       POPC     H16R     HAL2     0.900000E-01   1.00800           0
      5638 MEMB     60       POPC     H16S     HAL2     0.900000E-01   1.00800           0
      5639 MEMB     60       POPC     C217     CTL2    -0.180000       12.0110           0
      5640 MEMB     60       POPC     H17R     HAL2     0.900000E-01   1.00800           0
      5641 MEMB     60       POPC     H17S     HAL2     0.900000E-01   1.00800           0
      5642 MEMB     60       POPC     C218     CTL3    -0.270000       12.0110           0
      5643 MEMB     60       POPC     H18R     HAL3     0.900000E-01   1.00800           0
      5644 MEMB     60       POPC     H18S     HAL3     0.900000E-01   1.00800           0
      5645 MEMB     60       POPC     H18T     HAL3     0.900000E-01   1.00800           0
      5646 MEMB     60       POPC     C33      CTL2    -0.180000       12.0110           0
      5647 MEMB     60       POPC     H3X      HAL2     0.900000E-01   1.00800           0
      5648 MEMB     60       POPC     H3Y      HAL2     0.900000E-01   1.00800           0
      5649 MEMB     60       POPC     C34      CTL2    -0.180000       12.0110           0
      5650 MEMB     60       POPC     H4X      HAL2     0.900000E-01   1.00800           0
      5651 MEMB     60       POPC     H4Y      HAL2     0.900000E-01   1.00800           0
      5652 MEMB     60       POPC     C35      CTL2    -0.180000       12.0110           0
      5653 MEMB     60       POPC     H5X      HAL2     0.900000E-01   1.00800           0
      5654 MEMB     60       POPC     H5Y      HAL2     0.900000E-01   1.00800           0
      5655 MEMB     60       POPC     C36      CTL2    -0.180000       12.0110           0
      5656 MEMB     60       POPC     H6X      HAL2     0.900000E-01   1.00800           0
      5657 MEMB     60       POPC     H6Y      HAL2     0.900000E-01   1.00800           0
      5658 MEMB     60       POPC     C37      CTL2    -0.180000       12.0110           0
      5659 MEMB     60       POPC     H7X      HAL2     0.900000E-01   1.00800           0
      5660 MEMB     60       POPC     H7Y      HAL2     0.900000E-01   1.00800           0
      5661 MEMB     60       POPC     C38      CTL2    -0.180000       12.0110           0
      5662 MEMB     60       POPC     H8X      HAL2     0.900000E-01   1.00800           0
      5663 MEMB     60       POPC     H8Y      HAL2     0.900000E-01   1.00800           0
      5664 MEMB     60       POPC     C39      CTL2    -0.180000       12.0110           0
      5665 MEMB     60       POPC     H9X      HAL2     0.900000E-01   1.00800           0
      5666 MEMB     60       POPC     H9Y      HAL2     0.900000E-01   1.00800           0
      5667 MEMB     60       POPC     C310     CTL2    -0.180000       12.0110           0
      5668 MEMB     60       POPC     H10X     HAL2     0.900000E-01   1.00800           0
      5669 MEMB     60       POPC     H10Y     HAL2     0.900000E-01   1.00800           0
      5670 MEMB     60       POPC     C311     CTL2    -0.180000       12.0110           0
      5671 MEMB     60       POPC     H11X     HAL2     0.900000E-01   1.00800           0
      5672 MEMB     60       POPC     H11Y     HAL2     0.900000E-01   1.00800           0
      5673 MEMB     60       POPC     C312     CTL2    -0.180000       12.0110           0
      5674 MEMB     60       POPC     H12X     HAL2     0.900000E-01   1.00800           0
      5675 MEMB     60       POPC     H12Y     HAL2     0.900000E-01   1.00800           0
      5676 MEMB     60       POPC     C313     CTL2    -0.180000       12.0110           0
      5677 MEMB     60       POPC     H13X     HAL2     0.900000E-01   1.00800           0
      5678 MEMB     60       POPC     H13Y     HAL2     0.900000E-01   1.00800           0
      5679 MEMB     60       POPC     C314     CTL2    -0.180000       12.0110           0
      5680 MEMB     60       POPC     H14X     HAL2     0.900000E-01   1.00800           0
      5681 MEMB     60       POPC     H14Y     HAL2     0.900000E-01   1.00800           0
      5682 MEMB     60       POPC     C315     CTL2    -0.180000       12.0110           0
      5683 MEMB     60       POPC     H15X     HAL2     0.900000E-01   1.00800           0
      5684 MEMB     60       POPC     H15Y     HAL2     0.900000E-01   1.00800           0
      5685 MEMB     60       POPC     C316     CTL3    -0.270000       12.0110           0
      5686 MEMB     60       POPC     H16X     HAL3     0.900000E-01   1.00800           0
      5687 MEMB     60       POPC     H16Y     HAL3     0.900000E-01   1.00800           0
      5688 MEMB     60       POPC     H16Z     HAL3     0.900000E-01   1.00800           0
      5689 MEMB     61       POPC     N        NTL     -0.600000       14.0070           0
      5690 MEMB     61       POPC     C12      CTL2    -0.100000       12.0110           0
      5691 MEMB     61       POPC     H12A     HL       0.250000       1.00800           0
      5692 MEMB     61       POPC     H12B     HL       0.250000       1.00800           0
      5693 MEMB     61       POPC     C13      CTL5    -0.350000       12.0110           0
      5694 MEMB     61       POPC     H13A     HL       0.250000       1.00800           0
      5695 MEMB     61       POPC     H13B     HL       0.250000       1.00800           0
      5696 MEMB     61       POPC     H13C     HL       0.250000       1.00800           0
      5697 MEMB     61       POPC     C14      CTL5    -0.350000       12.0110           0
      5698 MEMB     61       POPC     H14A     HL       0.250000       1.00800           0
      5699 MEMB     61       POPC     H14B     HL       0.250000       1.00800           0
      5700 MEMB     61       POPC     H14C     HL       0.250000       1.00800           0
      5701 MEMB     61       POPC     C15      CTL5    -0.350000       12.0110           0
      5702 MEMB     61       POPC     H15A     HL       0.250000       1.00800           0
      5703 MEMB     61       POPC     H15B     HL       0.250000       1.00800           0
      5704 MEMB     61       POPC     H15C     HL       0.250000       1.00800           0
      5705 MEMB     61       POPC     C11      CTL2    -0.800000E-01   12.0110           0
      5706 MEMB     61       POPC     H11A     HAL2     0.900000E-01   1.00800           0
      5707 MEMB     61       POPC     H11B     HAL2     0.900000E-01   1.00800           0
      5708 MEMB     61       POPC     P        PL        1.50000       30.9740           0
      5709 MEMB     61       POPC     O13      O2L     -0.780000       15.9994           0
      5710 MEMB     61       POPC     O14      O2L     -0.780000       15.9994           0
      5711 MEMB     61       POPC     O12      OSLP    -0.570000       15.9994           0
      5712 MEMB     61       POPC     O11      OSLP    -0.570000       15.9994           0
      5713 MEMB     61       POPC     C1       CTL2    -0.800000E-01   12.0110           0
      5714 MEMB     61       POPC     HA       HAL2     0.900000E-01   1.00800           0
      5715 MEMB     61       POPC     HB       HAL2     0.900000E-01   1.00800           0
      5716 MEMB     61       POPC     C2       CTL1     0.170000       12.0110           0
      5717 MEMB     61       POPC     HS       HAL1     0.900000E-01   1.00800           0
      5718 MEMB     61       POPC     O21      OSL     -0.490000       15.9994           0
      5719 MEMB     61       POPC     C21      CL       0.900000       12.0110           0
      5720 MEMB     61       POPC     O22      OBL     -0.630000       15.9994           0
      5721 MEMB     61       POPC     C22      CTL2    -0.220000       12.0110           0
      5722 MEMB     61       POPC     H2R      HAL2     0.900000E-01   1.00800           0
      5723 MEMB     61       POPC     H2S      HAL2     0.900000E-01   1.00800           0
      5724 MEMB     61       POPC     C3       CTL2     0.800000E-01   12.0110           0
      5725 MEMB     61       POPC     HX       HAL2     0.900000E-01   1.00800           0
      5726 MEMB     61       POPC     HY       HAL2     0.900000E-01   1.00800           0
      5727 MEMB     61       POPC     O31      OSL     -0.490000       15.9994           0
      5728 MEMB     61       POPC     C31      CL       0.900000       12.0110           0
      5729 MEMB     61       POPC     O32      OBL     -0.630000       15.9994           0
      5730 MEMB     61       POPC     C32      CTL2    -0.220000       12.0110           0
      5731 MEMB     61       POPC     H2X      HAL2     0.900000E-01   1.00800           0
      5732 MEMB     61       POPC     H2Y      HAL2     0.900000E-01   1.00800           0
      5733 MEMB     61       POPC     C23      CTL2    -0.180000       12.0110           0
      5734 MEMB     61       POPC     H3R      HAL2     0.900000E-01   1.00800           0
      5735 MEMB     61       POPC     H3S      HAL2     0.900000E-01   1.00800           0
      5736 MEMB     61       POPC     C24      CTL2    -0.180000       12.0110           0
      5737 MEMB     61       POPC     H4R      HAL2     0.900000E-01   1.00800           0
      5738 MEMB     61       POPC     H4S      HAL2     0.900000E-01   1.00800           0
      5739 MEMB     61       POPC     C25      CTL2    -0.180000       12.0110           0
      5740 MEMB     61       POPC     H5R      HAL2     0.900000E-01   1.00800           0
      5741 MEMB     61       POPC     H5S      HAL2     0.900000E-01   1.00800           0
      5742 MEMB     61       POPC     C26      CTL2    -0.180000       12.0110           0
      5743 MEMB     61       POPC     H6R      HAL2     0.900000E-01   1.00800           0
      5744 MEMB     61       POPC     H6S      HAL2     0.900000E-01   1.00800           0
      5745 MEMB     61       POPC     C27      CTL2    -0.180000       12.0110           0
      5746 MEMB     61       POPC     H7R      HAL2     0.900000E-01   1.00800           0
      5747 MEMB     61       POPC     H7S      HAL2     0.900000E-01   1.00800           0
      5748 MEMB     61       POPC     C28      CTL2    -0.180000       12.0110           0
      5749 MEMB     61       POPC     H8R      HAL2     0.900000E-01   1.00800           0
      5750 MEMB     61       POPC     H8S      HAL2     0.900000E-01   1.00800           0
      5751 MEMB     61       POPC     C29      CEL1    -0.150000       12.0110           0
      5752 MEMB     61       POPC     H91      HEL1     0.150000       1.00800           0
      5753 MEMB     61       POPC     C210     CEL1    -0.150000       12.0110           0
      5754 MEMB     61       POPC     H101     HEL1     0.150000       1.00800           0
      5755 MEMB     61       POPC     C211     CTL2    -0.180000       12.0110           0
      5756 MEMB     61       POPC     H11R     HAL2     0.900000E-01   1.00800           0
      5757 MEMB     61       POPC     H11S     HAL2     0.900000E-01   1.00800           0
      5758 MEMB     61       POPC     C212     CTL2    -0.180000       12.0110           0
      5759 MEMB     61       POPC     H12R     HAL2     0.900000E-01   1.00800           0
      5760 MEMB     61       POPC     H12S     HAL2     0.900000E-01   1.00800           0
      5761 MEMB     61       POPC     C213     CTL2    -0.180000       12.0110           0
      5762 MEMB     61       POPC     H13R     HAL2     0.900000E-01   1.00800           0
      5763 MEMB     61       POPC     H13S     HAL2     0.900000E-01   1.00800           0
      5764 MEMB     61       POPC     C214     CTL2    -0.180000       12.0110           0
      5765 MEMB     61       POPC     H14R     HAL2     0.900000E-01   1.00800           0
      5766 MEMB     61       POPC     H14S     HAL2     0.900000E-01   1.00800           0
      5767 MEMB     61       POPC     C215     CTL2    -0.180000       12.0110           0
      5768 MEMB     61       POPC     H15R     HAL2     0.900000E-01   1.00800           0
      5769 MEMB     61       POPC     H15S     HAL2     0.900000E-01   1.00800           0
      5770 MEMB     61       POPC     C216     CTL2    -0.180000       12.0110           0
      5771 MEMB     61       POPC     H16R     HAL2     0.900000E-01   1.00800           0
      5772 MEMB     61       POPC     H16S     HAL2     0.900000E-01   1.00800           0
      5773 MEMB     61       POPC     C217     CTL2    -0.180000       12.0110           0
      5774 MEMB     61       POPC     H17R     HAL2     0.900000E-01   1.00800           0
      5775 MEMB     61       POPC     H17S     HAL2     0.900000E-01   1.00800           0
      5776 MEMB     61       POPC     C218     CTL3    -0.270000       12.0110           0
      5777 MEMB     61       POPC     H18R     HAL3     0.900000E-01   1.00800           0
      5778 MEMB     61       POPC     H18S     HAL3     0.900000E-01   1.00800           0
      5779 MEMB     61       POPC     H18T     HAL3     0.900000E-01   1.00800           0
      5780 MEMB     61       POPC     C33      CTL2    -0.180000       12.0110           0
      5781 MEMB     61       POPC     H3X      HAL2     0.900000E-01   1.00800           0
      5782 MEMB     61       POPC     H3Y      HAL2     0.900000E-01   1.00800           0
      5783 MEMB     61       POPC     C34      CTL2    -0.180000       12.0110           0
      5784 MEMB     61       POPC     H4X      HAL2     0.900000E-01   1.00800           0
      5785 MEMB     61       POPC     H4Y      HAL2     0.900000E-01   1.00800           0
      5786 MEMB     61       POPC     C35      CTL2    -0.180000       12.0110           0
      5787 MEMB     61       POPC     H5X      HAL2     0.900000E-01   1.00800           0
      5788 MEMB     61       POPC     H5Y      HAL2     0.900000E-01   1.00800           0
      5789 MEMB     61       POPC     C36      CTL2    -0.180000       12.0110           0
      5790 MEMB     61       POPC     H6X      HAL2     0.900000E-01   1.00800           0
      5791 MEMB     61       POPC     H6Y      HAL2     0.900000E-01   1.00800           0
      5792 MEMB     61       POPC     C37      CTL2    -0.180000       12.0110           0
      5793 MEMB     61       POPC     H7X      HAL2     0.900000E-01   1.00800           0
      5794 MEMB     61       POPC     H7Y      HAL2     0.900000E-01   1.00800           0
      5795 MEMB     61       POPC     C38      CTL2    -0.180000       12.0110           0
      5796 MEMB     61       POPC     H8X      HAL2     0.900000E-01   1.00800           0
      5797 MEMB     61       POPC     H8Y      HAL2     0.900000E-01   1.00800           0
      5798 MEMB     61       POPC     C39      CTL2    -0.180000       12.0110           0
      5799 MEMB     61       POPC     H9X      HAL2     0.900000E-01   1.00800           0
      5800 MEMB     61       POPC     H9Y      HAL2     0.900000E-01   1.00800           0
      5801 MEMB     61       POPC     C310     CTL2    -0.180000       12.0110           0
      5802 MEMB     61       POPC     H10X     HAL2     0.900000E-01   1.00800           0
      5803 MEMB     61       POPC     H10Y     HAL2     0.900000E-01   1.00800           0
      5804 MEMB     61       POPC     C311     CTL2    -0.180000       12.0110           0
      5805 MEMB     61       POPC     H11X     HAL2     0.900000E-01   1.00800           0
      5806 MEMB     61       POPC     H11Y     HAL2     0.900000E-01   1.00800           0
      5807 MEMB     61       POPC     C312     CTL2    -0.180000       12.0110           0
      5808 MEMB     61       POPC     H12X     HAL2     0.900000E-01   1.00800           0
      5809 MEMB     61       POPC     H12Y     HAL2     0.900000E-01   1.00800           0
      5810 MEMB     61       POPC     C313     CTL2    -0.180000       12.0110           0
      5811 MEMB     61       POPC     H13X     HAL2     0.900000E-01   1.00800           0
      5812 MEMB     61       POPC     H13Y     HAL2     0.900000E-01   1.00800           0
      5813 MEMB     61       POPC     C314     CTL2    -0.180000       12.0110           0
      5814 MEMB     61       POPC     H14X     HAL2     0.900000E-01   1.00800           0
      5815 MEMB     61       POPC     H14Y     HAL2     0.900000E-01   1.00800           0
      5816 MEMB     61       POPC     C315     CTL2    -0.180000       12.0110           0
      5817 MEMB     61       POPC     H15X     HAL2     0.900000E-01   1.00800           0
      5818 MEMB     61       POPC     H15Y     HAL2     0.900000E-01   1.00800           0
      5819 MEMB     61       POPC     C316     CTL3    -0.270000       12.0110           0
      5820 MEMB     61       POPC     H16X     HAL3     0.900000E-01   1.00800           0
      5821 MEMB     61       POPC     H16Y     HAL3     0.900000E-01   1.00800           0
      5822 MEMB     61       POPC     H16Z     HAL3     0.900000E-01   1.00800           0
      5823 MEMB     62       POPC     N        NTL     -0.600000       14.0070           0
      5824 MEMB     62       POPC     C12      CTL2    -0.100000       12.0110           0
      5825 MEMB     62       POPC     H12A     HL       0.250000       1.00800           0
      5826 MEMB     62       POPC     H12B     HL       0.250000       1.00800           0
      5827 MEMB     62       POPC     C13      CTL5    -0.350000       12.0110           0
      5828 MEMB     62       POPC     H13A     HL       0.250000       1.00800           0
      5829 MEMB     62       POPC     H13B     HL       0.250000       1.00800           0
      5830 MEMB     62       POPC     H13C     HL       0.250000       1.00800           0
      5831 MEMB     62       POPC     C14      CTL5    -0.350000       12.0110           0
      5832 MEMB     62       POPC     H14A     HL       0.250000       1.00800           0
      5833 MEMB     62       POPC     H14B     HL       0.250000       1.00800           0
      5834 MEMB     62       POPC     H14C     HL       0.250000       1.00800           0
      5835 MEMB     62       POPC     C15      CTL5    -0.350000       12.0110           0
      5836 MEMB     62       POPC     H15A     HL       0.250000       1.00800           0
      5837 MEMB     62       POPC     H15B     HL       0.250000       1.00800           0
      5838 MEMB     62       POPC     H15C     HL       0.250000       1.00800           0
      5839 MEMB     62       POPC     C11      CTL2    -0.800000E-01   12.0110           0
      5840 MEMB     62       POPC     H11A     HAL2     0.900000E-01   1.00800           0
      5841 MEMB     62       POPC     H11B     HAL2     0.900000E-01   1.00800           0
      5842 MEMB     62       POPC     P        PL        1.50000       30.9740           0
      5843 MEMB     62       POPC     O13      O2L     -0.780000       15.9994           0
      5844 MEMB     62       POPC     O14      O2L     -0.780000       15.9994           0
      5845 MEMB     62       POPC     O12      OSLP    -0.570000       15.9994           0
      5846 MEMB     62       POPC     O11      OSLP    -0.570000       15.9994           0
      5847 MEMB     62       POPC     C1       CTL2    -0.800000E-01   12.0110           0
      5848 MEMB     62       POPC     HA       HAL2     0.900000E-01   1.00800           0
      5849 MEMB     62       POPC     HB       HAL2     0.900000E-01   1.00800           0
      5850 MEMB     62       POPC     C2       CTL1     0.170000       12.0110           0
      5851 MEMB     62       POPC     HS       HAL1     0.900000E-01   1.00800           0
      5852 MEMB     62       POPC     O21      OSL     -0.490000       15.9994           0
      5853 MEMB     62       POPC     C21      CL       0.900000       12.0110           0
      5854 MEMB     62       POPC     O22      OBL     -0.630000       15.9994           0
      5855 MEMB     62       POPC     C22      CTL2    -0.220000       12.0110           0
      5856 MEMB     62       POPC     H2R      HAL2     0.900000E-01   1.00800           0
      5857 MEMB     62       POPC     H2S      HAL2     0.900000E-01   1.00800           0
      5858 MEMB     62       POPC     C3       CTL2     0.800000E-01   12.0110           0
      5859 MEMB     62       POPC     HX       HAL2     0.900000E-01   1.00800           0
      5860 MEMB     62       POPC     HY       HAL2     0.900000E-01   1.00800           0
      5861 MEMB     62       POPC     O31      OSL     -0.490000       15.9994           0
      5862 MEMB     62       POPC     C31      CL       0.900000       12.0110           0
      5863 MEMB     62       POPC     O32      OBL     -0.630000       15.9994           0
      5864 MEMB     62       POPC     C32      CTL2    -0.220000       12.0110           0
      5865 MEMB     62       POPC     H2X      HAL2     0.900000E-01   1.00800           0
      5866 MEMB     62       POPC     H2Y      HAL2     0.900000E-01   1.00800           0
      5867 MEMB     62       POPC     C23      CTL2    -0.180000       12.0110           0
      5868 MEMB     62       POPC     H3R      HAL2     0.900000E-01   1.00800           0
      5869 MEMB     62       POPC     H3S      HAL2     0.900000E-01   1.00800           0
      5870 MEMB     62       POPC     C24      CTL2    -0.180000       12.0110           0
      5871 MEMB     62       POPC     H4R      HAL2     0.900000E-01   1.00800           0
      5872 MEMB     62       POPC     H4S      HAL2     0.900000E-01   1.00800           0
      5873 MEMB     62       POPC     C25      CTL2    -0.180000       12.0110           0
      5874 MEMB     62       POPC     H5R      HAL2     0.900000E-01   1.00800           0
      5875 MEMB     62       POPC     H5S      HAL2     0.900000E-01   1.00800           0
      5876 MEMB     62       POPC     C26      CTL2    -0.180000       12.0110           0
      5877 MEMB     62       POPC     H6R      HAL2     0.900000E-01   1.00800           0
      5878 MEMB     62       POPC     H6S      HAL2     0.900000E-01   1.00800           0
      5879 MEMB     62       POPC     C27      CTL2    -0.180000       12.0110           0
      5880 MEMB     62       POPC     H7R      HAL2     0.900000E-01   1.00800           0
      5881 MEMB     62       POPC     H7S      HAL2     0.900000E-01   1.00800           0
      5882 MEMB     62       POPC     C28      CTL2    -0.180000       12.0110           0
      5883 MEMB     62       POPC     H8R      HAL2     0.900000E-01   1.00800           0
      5884 MEMB     62       POPC     H8S      HAL2     0.900000E-01   1.00800           0
      5885 MEMB     62       POPC     C29      CEL1    -0.150000       12.0110           0
      5886 MEMB     62       POPC     H91      HEL1     0.150000       1.00800           0
      5887 MEMB     62       POPC     C210     CEL1    -0.150000       12.0110           0
      5888 MEMB     62       POPC     H101     HEL1     0.150000       1.00800           0
      5889 MEMB     62       POPC     C211     CTL2    -0.180000       12.0110           0
      5890 MEMB     62       POPC     H11R     HAL2     0.900000E-01   1.00800           0
      5891 MEMB     62       POPC     H11S     HAL2     0.900000E-01   1.00800           0
      5892 MEMB     62       POPC     C212     CTL2    -0.180000       12.0110           0
      5893 MEMB     62       POPC     H12R     HAL2     0.900000E-01   1.00800           0
      5894 MEMB     62       POPC     H12S     HAL2     0.900000E-01   1.00800           0
      5895 MEMB     62       POPC     C213     CTL2    -0.180000       12.0110           0
      5896 MEMB     62       POPC     H13R     HAL2     0.900000E-01   1.00800           0
      5897 MEMB     62       POPC     H13S     HAL2     0.900000E-01   1.00800           0
      5898 MEMB     62       POPC     C214     CTL2    -0.180000       12.0110           0
      5899 MEMB     62       POPC     H14R     HAL2     0.900000E-01   1.00800           0
      5900 MEMB     62       POPC     H14S     HAL2     0.900000E-01   1.00800           0
      5901 MEMB     62       POPC     C215     CTL2    -0.180000       12.0110           0
      5902 MEMB     62       POPC     H15R     HAL2     0.900000E-01   1.00800           0
      5903 MEMB     62       POPC     H15S     HAL2     0.900000E-01   1.00800           0
      5904 MEMB     62       POPC     C216     CTL2    -0.180000       12.0110           0
      5905 MEMB     62       POPC     H16R     HAL2     0.900000E-01   1.00800           0
      5906 MEMB     62       POPC     H16S     HAL2     0.900000E-01   1.00800           0
      5907 MEMB     62       POPC     C217     CTL2    -0.180000       12.0110           0
      5908 MEMB     62       POPC     H17R     HAL2     0.900000E-01   1.00800           0
      5909 MEMB     62       POPC     H17S     HAL2     0.900000E-01   1.00800           0
      5910 MEMB     62       POPC     C218     CTL3    -0.270000       12.0110           0
      5911 MEMB     62       POPC     H18R     HAL3     0.900000E-01   1.00800           0
      5912 MEMB     62       POPC     H18S     HAL3     0.900000E-01   1.00800           0
      5913 MEMB     62       POPC     H18T     HAL3     0.900000E-01   1.00800           0
      5914 MEMB     62       POPC     C33      CTL2    -0.180000       12.0110           0
      5915 MEMB     62       POPC     H3X      HAL2     0.900000E-01   1.00800           0
      5916 MEMB     62       POPC     H3Y      HAL2     0.900000E-01   1.00800           0
      5917 MEMB     62       POPC     C34      CTL2    -0.180000       12.0110           0
      5918 MEMB     62       POPC     H4X      HAL2     0.900000E-01   1.00800           0
      5919 MEMB     62       POPC     H4Y      HAL2     0.900000E-01   1.00800           0
      5920 MEMB     62       POPC     C35      CTL2    -0.180000       12.0110           0
      5921 MEMB     62       POPC     H5X      HAL2     0.900000E-01   1.00800           0
      5922 MEMB     62       POPC     H5Y      HAL2     0.900000E-01   1.00800           0
      5923 MEMB     62       POPC     C36      CTL2    -0.180000       12.0110           0
      5924 MEMB     62       POPC     H6X      HAL2     0.900000E-01   1.00800           0
      5925 MEMB     62       POPC     H6Y      HAL2     0.900000E-01   1.00800           0
      5926 MEMB     62       POPC     C37      CTL2    -0.180000       12.0110           0
      5927 MEMB     62       POPC     H7X      HAL2     0.900000E-01   1.00800           0
      5928 MEMB     62       POPC     H7Y      HAL2     0.900000E-01   1.00800           0
      5929 MEMB     62       POPC     C38      CTL2    -0.180000       12.0110           0
      5930 MEMB     62       POPC     H8X      HAL2     0.900000E-01   1.00800           0
      5931 MEMB     62       POPC     H8Y      HAL2     0.900000E-01   1.00800           0
      5932 MEMB     62       POPC     C39      CTL2    -0.180000       12.0110           0
      5933 MEMB     62       POPC     H9X      HAL2     0.900000E-01   1.00800           0
      5934 MEMB     62       POPC     H9Y      HAL2     0.900000E-01   1.00800           0
      5935 MEMB     62       POPC     C310     CTL2    -0.180000       12.0110           0
      5936 MEMB     62       POPC     H10X     HAL2     0.900000E-01   1.00800           0
      5937 MEMB     62       POPC     H10Y     HAL2     0.900000E-01   1.00800           0
      5938 MEMB     62       POPC     C311     CTL2    -0.180000       12.0110           0
      5939 MEMB     62       POPC     H11X     HAL2     0.900000E-01   1.00800           0
      5940 MEMB     62       POPC     H11Y     HAL2     0.900000E-01   1.00800           0
      5941 MEMB     62       POPC     C312     CTL2    -0.180000       12.0110           0
      5942 MEMB     62       POPC     H12X     HAL2     0.900000E-01   1.00800           0
      5943 MEMB     62       POPC     H12Y     HAL2     0.900000E-01   1.00800           0
      5944 MEMB     62       POPC     C313     CTL2    -0.180000       12.0110           0
      5945 MEMB     62       POPC     H13X     HAL2     0.900000E-01   1.00800           0
      5946 MEMB     62       POPC     H13Y     HAL2     0.900000E-01   1.00800           0
      5947 MEMB     62       POPC     C314     CTL2    -0.180000       12.0110           0
      5948 MEMB     62       POPC     H14X     HAL2     0.900000E-01   1.00800           0
      5949 MEMB     62       POPC     H14Y     HAL2     0.900000E-01   1.00800           0
      5950 MEMB     62       POPC     C315     CTL2    -0.180000       12.0110           0
      5951 MEMB     62       POPC     H15X     HAL2     0.900000E-01   1.00800           0
      5952 MEMB     62       POPC     H15Y     HAL2     0.900000E-01   1.00800           0
      5953 MEMB     62       POPC     C316     CTL3    -0.270000       12.0110           0
      5954 MEMB     62       POPC     H16X     HAL3     0.900000E-01   1.00800           0
      5955 MEMB     62       POPC     H16Y     HAL3     0.900000E-01   1.00800           0
      5956 MEMB     62       POPC     H16Z     HAL3     0.900000E-01   1.00800           0
      5957 MEMB     63       POPC     N        NTL     -0.600000       14.0070           0
      5958 MEMB     63       POPC     C12      CTL2    -0.100000       12.0110           0
      5959 MEMB     63       POPC     H12A     HL       0.250000       1.00800           0
      5960 MEMB     63       POPC     H12B     HL       0.250000       1.00800           0
      5961 MEMB     63       POPC     C13      CTL5    -0.350000       12.0110           0
      5962 MEMB     63       POPC     H13A     HL       0.250000       1.00800           0
      5963 MEMB     63       POPC     H13B     HL       0.250000       1.00800           0
      5964 MEMB     63       POPC     H13C     HL       0.250000       1.00800           0
      5965 MEMB     63       POPC     C14      CTL5    -0.350000       12.0110           0
      5966 MEMB     63       POPC     H14A     HL       0.250000       1.00800           0
      5967 MEMB     63       POPC     H14B     HL       0.250000       1.00800           0
      5968 MEMB     63       POPC     H14C     HL       0.250000       1.00800           0
      5969 MEMB     63       POPC     C15      CTL5    -0.350000       12.0110           0
      5970 MEMB     63       POPC     H15A     HL       0.250000       1.00800           0
      5971 MEMB     63       POPC     H15B     HL       0.250000       1.00800           0
      5972 MEMB     63       POPC     H15C     HL       0.250000       1.00800           0
      5973 MEMB     63       POPC     C11      CTL2    -0.800000E-01   12.0110           0
      5974 MEMB     63       POPC     H11A     HAL2     0.900000E-01   1.00800           0
      5975 MEMB     63       POPC     H11B     HAL2     0.900000E-01   1.00800           0
      5976 MEMB     63       POPC     P        PL        1.50000       30.9740           0
      5977 MEMB     63       POPC     O13      O2L     -0.780000       15.9994           0
      5978 MEMB     63       POPC     O14      O2L     -0.780000       15.9994           0
      5979 MEMB     63       POPC     O12      OSLP    -0.570000       15.9994           0
      5980 MEMB     63       POPC     O11      OSLP    -0.570000       15.9994           0
      5981 MEMB     63       POPC     C1       CTL2    -0.800000E-01   12.0110           0
      5982 MEMB     63       POPC     HA       HAL2     0.900000E-01   1.00800           0
      5983 MEMB     63       POPC     HB       HAL2     0.900000E-01   1.00800           0
      5984 MEMB     63       POPC     C2       CTL1     0.170000       12.0110           0
      5985 MEMB     63       POPC     HS       HAL1     0.900000E-01   1.00800           0
      5986 MEMB     63       POPC     O21      OSL     -0.490000       15.9994           0
      5987 MEMB     63       POPC     C21      CL       0.900000       12.0110           0
      5988 MEMB     63       POPC     O22      OBL     -0.630000       15.9994           0
      5989 MEMB     63       POPC     C22      CTL2    -0.220000       12.0110           0
      5990 MEMB     63       POPC     H2R      HAL2     0.900000E-01   1.00800           0
      5991 MEMB     63       POPC     H2S      HAL2     0.900000E-01   1.00800           0
      5992 MEMB     63       POPC     C3       CTL2     0.800000E-01   12.0110           0
      5993 MEMB     63       POPC     HX       HAL2     0.900000E-01   1.00800           0
      5994 MEMB     63       POPC     HY       HAL2     0.900000E-01   1.00800           0
      5995 MEMB     63       POPC     O31      OSL     -0.490000       15.9994           0
      5996 MEMB     63       POPC     C31      CL       0.900000       12.0110           0
      5997 MEMB     63       POPC     O32      OBL     -0.630000       15.9994           0
      5998 MEMB     63       POPC     C32      CTL2    -0.220000       12.0110           0
      5999 MEMB     63       POPC     H2X      HAL2     0.900000E-01   1.00800           0
      6000 MEMB     63       POPC     H2Y      HAL2     0.900000E-01   1.00800           0
      6001 MEMB     63       POPC     C23      CTL2    -0.180000       12.0110           0
      6002 MEMB     63       POPC     H3R      HAL2     0.900000E-01   1.00800           0
      6003 MEMB     63       POPC     H3S      HAL2     0.900000E-01   1.00800           0
      6004 MEMB     63       POPC     C24      CTL2    -0.180000       12.0110           0
      6005 MEMB     63       POPC     H4R      HAL2     0.900000E-01   1.00800           0
      6006 MEMB     63       POPC     H4S      HAL2     0.900000E-01   1.00800           0
      6007 MEMB     63       POPC     C25      CTL2    -0.180000       12.0110           0
      6008 MEMB     63       POPC     H5R      HAL2     0.900000E-01   1.00800           0
      6009 MEMB     63       POPC     H5S      HAL2     0.900000E-01   1.00800           0
      6010 MEMB     63       POPC     C26      CTL2    -0.180000       12.0110           0
      6011 MEMB     63       POPC     H6R      HAL2     0.900000E-01   1.00800           0
      6012 MEMB     63       POPC     H6S      HAL2     0.900000E-01   1.00800           0
      6013 MEMB     63       POPC     C27      CTL2    -0.180000       12.0110           0
      6014 MEMB     63       POPC     H7R      HAL2     0.900000E-01   1.00800           0
      6015 MEMB     63       POPC     H7S      HAL2     0.900000E-01   1.00800           0
      6016 MEMB     63       POPC     C28      CTL2    -0.180000       12.0110           0
      6017 MEMB     63       POPC     H8R      HAL2     0.900000E-01   1.00800           0
      6018 MEMB     63       POPC     H8S      HAL2     0.900000E-01   1.00800           0
      6019 MEMB     63       POPC     C29      CEL1    -0.150000       12.0110           0
      6020 MEMB     63       POPC     H91      HEL1     0.150000       1.00800           0
      6021 MEMB     63       POPC     C210     CEL1    -0.150000       12.0110           0
      6022 MEMB     63       POPC     H101     HEL1     0.150000       1.00800           0
      6023 MEMB     63       POPC     C211     CTL2    -0.180000       12.0110           0
      6024 MEMB     63       POPC     H11R     HAL2     0.900000E-01   1.00800           0
      6025 MEMB     63       POPC     H11S     HAL2     0.900000E-01   1.00800           0
      6026 MEMB     63       POPC     C212     CTL2    -0.180000       12.0110           0
      6027 MEMB     63       POPC     H12R     HAL2     0.900000E-01   1.00800           0
      6028 MEMB     63       POPC     H12S     HAL2     0.900000E-01   1.00800           0
      6029 MEMB     63       POPC     C213     CTL2    -0.180000       12.0110           0
      6030 MEMB     63       POPC     H13R     HAL2     0.900000E-01   1.00800           0
      6031 MEMB     63       POPC     H13S     HAL2     0.900000E-01   1.00800           0
      6032 MEMB     63       POPC     C214     CTL2    -0.180000       12.0110           0
      6033 MEMB     63       POPC     H14R     HAL2     0.900000E-01   1.00800           0
      6034 MEMB     63       POPC     H14S     HAL2     0.900000E-01   1.00800           0
      6035 MEMB     63       POPC     C215     CTL2    -0.180000       12.0110           0
      6036 MEMB     63       POPC     H15R     HAL2     0.900000E-01   1.00800           0
      6037 MEMB     63       POPC     H15S     HAL2     0.900000E-01   1.00800           0
      6038 MEMB     63       POPC     C216     CTL2    -0.180000       12.0110           0
      6039 MEMB     63       POPC     H16R     HAL2     0.900000E-01   1.00800           0
      6040 MEMB     63       POPC     H16S     HAL2     0.900000E-01   1.00800           0
      6041 MEMB     63       POPC     C217     CTL2    -0.180000       12.0110           0
      6042 MEMB     63       POPC     H17R     HAL2     0.900000E-01   1.00800           0
      6043 MEMB     63       POPC     H17S     HAL2     0.900000E-01   1.00800           0
      6044 MEMB     63       POPC     C218     CTL3    -0.270000       12.0110           0
      6045 MEMB     63       POPC     H18R     HAL3     0.900000E-01   1.00800           0
      6046 MEMB     63       POPC     H18S     HAL3     0.900000E-01   1.00800           0
      6047 MEMB     63       POPC     H18T     HAL3     0.900000E-01   1.00800           0
      6048 MEMB     63       POPC     C33      CTL2    -0.180000       12.0110           0
      6049 MEMB     63       POPC     H3X      HAL2     0.900000E-01   1.00800           0
      6050 MEMB     63       POPC     H3Y      HAL2     0.900000E-01   1.00800           0
      6051 MEMB     63       POPC     C34      CTL2    -0.180000       12.0110           0
      6052 MEMB     63       POPC     H4X      HAL2     0.900000E-01   1.00800           0
      6053 MEMB     63       POPC     H4Y      HAL2     0.900000E-01   1.00800           0
      6054 MEMB     63       POPC     C35      CTL2    -0.180000       12.0110           0
      6055 MEMB     63       POPC     H5X      HAL2     0.900000E-01   1.00800           0
      6056 MEMB     63       POPC     H5Y      HAL2     0.900000E-01   1.00800           0
      6057 MEMB     63       POPC     C36      CTL2    -0.180000       12.0110           0
      6058 MEMB     63       POPC     H6X      HAL2     0.900000E-01   1.00800           0
      6059 MEMB     63       POPC     H6Y      HAL2     0.900000E-01   1.00800           0
      6060 MEMB     63       POPC     C37      CTL2    -0.180000       12.0110           0
      6061 MEMB     63       POPC     H7X      HAL2     0.900000E-01   1.00800           0
      6062 MEMB     63       POPC     H7Y      HAL2     0.900000E-01   1.00800           0
      6063 MEMB     63       POPC     C38      CTL2    -0.180000       12.0110           0
      6064 MEMB     63       POPC     H8X      HAL2     0.900000E-01   1.00800           0
      6065 MEMB     63       POPC     H8Y      HAL2     0.900000E-01   1.00800           0
      6066 MEMB     63       POPC     C39      CTL2    -0.180000       12.0110           0
      6067 MEMB     63       POPC     H9X      HAL2     0.900000E-01   1.00800           0
      6068 MEMB     63       POPC     H9Y      HAL2     0.900000E-01   1.00800           0
      6069 MEMB     63       POPC     C310     CTL2    -0.180000       12.0110           0
      6070 MEMB     63       POPC     H10X     HAL2     0.900000E-01   1.00800           0
      6071 MEMB     63       POPC     H10Y     HAL2     0.900000E-01   1.00800           0
      6072 MEMB     63       POPC     C311     CTL2    -0.180000       12.0110           0
      6073 MEMB     63       POPC     H11X     HAL2     0.900000E-01   1.00800           0
      6074 MEMB     63       POPC     H11Y     HAL2     0.900000E-01   1.00800           0
      6075 MEMB     63       POPC     C312     CTL2    -0.180000       12.0110           0
      6076 MEMB     63       POPC     H12X     HAL2     0.900000E-01   1.00800           0
      6077 MEMB     63       POPC     H12Y     HAL2     0.900000E-01   1.00800           0
      6078 MEMB     63       POPC     C313     CTL2    -0.180000       12.0110           0
      6079 MEMB     63       POPC     H13X     HAL2     0.900000E-01   1.00800           0
      6080 MEMB     63       POPC     H13Y     HAL2     0.900000E-01   1.00800           0
      6081 MEMB     63       POPC     C314     CTL2    -0.180000       12.0110           0
      6082 MEMB     63       POPC     H14X     HAL2     0.900000E-01   1.00800           0
      6083 MEMB     63       POPC     H14Y     HAL2     0.900000E-01   1.00800           0
      6084 MEMB     63       POPC     C315     CTL2    -0.180000       12.0110           0
      6085 MEMB     63       POPC     H15X     HAL2     0.900000E-01   1.00800           0
      6086 MEMB     63       POPC     H15Y     HAL2     0.900000E-01   1.00800           0
      6087 MEMB     63       POPC     C316     CTL3    -0.270000       12.0110           0
      6088 MEMB     63       POPC     H16X     HAL3     0.900000E-01   1.00800           0
      6089 MEMB     63       POPC     H16Y     HAL3     0.900000E-01   1.00800           0
      6090 MEMB     63       POPC     H16Z     HAL3     0.900000E-01   1.00800           0
      6091 MEMB     64       POPE     N        NH3L    -0.300000       14.0070           0
      6092 MEMB     64       POPE     HN1      HCL      0.330000       1.00800           0
      6093 MEMB     64       POPE     HN2      HCL      0.330000       1.00800           0
      6094 MEMB     64       POPE     HN3      HCL      0.330000       1.00800           0
      6095 MEMB     64       POPE     C12      CTL2     0.130000       12.0110           0
      6096 MEMB     64       POPE     H12A     HAL2     0.900000E-01   1.00800           0
      6097 MEMB     64       POPE     H12B     HAL2     0.900000E-01   1.00800           0
      6098 MEMB     64       POPE     C11      CTL2    -0.800000E-01   12.0110           0
      6099 MEMB     64       POPE     H11A     HAL2     0.900000E-01   1.00800           0
      6100 MEMB     64       POPE     H11B     HAL2     0.900000E-01   1.00800           0
      6101 MEMB     64       POPE     P        PL        1.50000       30.9740           0
      6102 MEMB     64       POPE     O13      O2L     -0.780000       15.9994           0
      6103 MEMB     64       POPE     O14      O2L     -0.780000       15.9994           0
      6104 MEMB     64       POPE     O11      OSLP    -0.570000       15.9994           0
      6105 MEMB     64       POPE     O12      OSLP    -0.570000       15.9994           0
      6106 MEMB     64       POPE     C1       CTL2    -0.800000E-01   12.0110           0
      6107 MEMB     64       POPE     HA       HAL2     0.900000E-01   1.00800           0
      6108 MEMB     64       POPE     HB       HAL2     0.900000E-01   1.00800           0
      6109 MEMB     64       POPE     C2       CTL1     0.170000       12.0110           0
      6110 MEMB     64       POPE     HS       HAL1     0.900000E-01   1.00800           0
      6111 MEMB     64       POPE     O21      OSL     -0.490000       15.9994           0
      6112 MEMB     64       POPE     C21      CL       0.900000       12.0110           0
      6113 MEMB     64       POPE     O22      OBL     -0.630000       15.9994           0
      6114 MEMB     64       POPE     C22      CTL2    -0.220000       12.0110           0
      6115 MEMB     64       POPE     H2R      HAL2     0.900000E-01   1.00800           0
      6116 MEMB     64       POPE     H2S      HAL2     0.900000E-01   1.00800           0
      6117 MEMB     64       POPE     C3       CTL2     0.800000E-01   12.0110           0
      6118 MEMB     64       POPE     HX       HAL2     0.900000E-01   1.00800           0
      6119 MEMB     64       POPE     HY       HAL2     0.900000E-01   1.00800           0
      6120 MEMB     64       POPE     O31      OSL     -0.490000       15.9994           0
      6121 MEMB     64       POPE     C31      CL       0.900000       12.0110           0
      6122 MEMB     64       POPE     O32      OBL     -0.630000       15.9994           0
      6123 MEMB     64       POPE     C32      CTL2    -0.220000       12.0110           0
      6124 MEMB     64       POPE     H2X      HAL2     0.900000E-01   1.00800           0
      6125 MEMB     64       POPE     H2Y      HAL2     0.900000E-01   1.00800           0
      6126 MEMB     64       POPE     C23      CTL2    -0.180000       12.0110           0
      6127 MEMB     64       POPE     H3R      HAL2     0.900000E-01   1.00800           0
      6128 MEMB     64       POPE     H3S      HAL2     0.900000E-01   1.00800           0
      6129 MEMB     64       POPE     C24      CTL2    -0.180000       12.0110           0
      6130 MEMB     64       POPE     H4R      HAL2     0.900000E-01   1.00800           0
      6131 MEMB     64       POPE     H4S      HAL2     0.900000E-01   1.00800           0
      6132 MEMB     64       POPE     C25      CTL2    -0.180000       12.0110           0
      6133 MEMB     64       POPE     H5R      HAL2     0.900000E-01   1.00800           0
      6134 MEMB     64       POPE     H5S      HAL2     0.900000E-01   1.00800           0
      6135 MEMB     64       POPE     C26      CTL2    -0.180000       12.0110           0
      6136 MEMB     64       POPE     H6R      HAL2     0.900000E-01   1.00800           0
      6137 MEMB     64       POPE     H6S      HAL2     0.900000E-01   1.00800           0
      6138 MEMB     64       POPE     C27      CTL2    -0.180000       12.0110           0
      6139 MEMB     64       POPE     H7R      HAL2     0.900000E-01   1.00800           0
      6140 MEMB     64       POPE     H7S      HAL2     0.900000E-01   1.00800           0
      6141 MEMB     64       POPE     C28      CTL2    -0.180000       12.0110           0
      6142 MEMB     64       POPE     H8R      HAL2     0.900000E-01   1.00800           0
      6143 MEMB     64       POPE     H8S      HAL2     0.900000E-01   1.00800           0
      6144 MEMB     64       POPE     C29      CEL1    -0.150000       12.0110           0
      6145 MEMB     64       POPE     H91      HEL1     0.150000       1.00800           0
      6146 MEMB     64       POPE     C210     CEL1    -0.150000       12.0110           0
      6147 MEMB     64       POPE     H101     HEL1     0.150000       1.00800           0
      6148 MEMB     64       POPE     C211     CTL2    -0.180000       12.0110           0
      6149 MEMB     64       POPE     H11R     HAL2     0.900000E-01   1.00800           0
      6150 MEMB     64       POPE     H11S     HAL2     0.900000E-01   1.00800           0
      6151 MEMB     64       POPE     C212     CTL2    -0.180000       12.0110           0
      6152 MEMB     64       POPE     H12R     HAL2     0.900000E-01   1.00800           0
      6153 MEMB     64       POPE     H12S     HAL2     0.900000E-01   1.00800           0
      6154 MEMB     64       POPE     C213     CTL2    -0.180000       12.0110           0
      6155 MEMB     64       POPE     H13R     HAL2     0.900000E-01   1.00800           0
      6156 MEMB     64       POPE     H13S     HAL2     0.900000E-01   1.00800           0
      6157 MEMB     64       POPE     C214     CTL2    -0.180000       12.0110           0
      6158 MEMB     64       POPE     H14R     HAL2     0.900000E-01   1.00800           0
      6159 MEMB     64       POPE     H14S     HAL2     0.900000E-01   1.00800           0
      6160 MEMB     64       POPE     C215     CTL2    -0.180000       12.0110           0
      6161 MEMB     64       POPE     H15R     HAL2     0.900000E-01   1.00800           0
      6162 MEMB     64       POPE     H15S     HAL2     0.900000E-01   1.00800           0
      6163 MEMB     64       POPE     C216     CTL2    -0.180000       12.0110           0
      6164 MEMB     64       POPE     H16R     HAL2     0.900000E-01   1.00800           0
      6165 MEMB     64       POPE     H16S     HAL2     0.900000E-01   1.00800           0
      6166 MEMB     64       POPE     C217     CTL2    -0.180000       12.0110           0
      6167 MEMB     64       POPE     H17R     HAL2     0.900000E-01   1.00800           0
      6168 MEMB     64       POPE     H17S     HAL2     0.900000E-01   1.00800           0
      6169 MEMB     64       POPE     C218     CTL3    -0.270000       12.0110           0
      6170 MEMB     64       POPE     H18R     HAL3     0.900000E-01   1.00800           0
      6171 MEMB     64       POPE     H18S     HAL3     0.900000E-01   1.00800           0
      6172 MEMB     64       POPE     H18T     HAL3     0.900000E-01   1.00800           0
      6173 MEMB     64       POPE     C33      CTL2    -0.180000       12.0110           0
      6174 MEMB     64       POPE     H3X      HAL2     0.900000E-01   1.00800           0
      6175 MEMB     64       POPE     H3Y      HAL2     0.900000E-01   1.00800           0
      6176 MEMB     64       POPE     C34      CTL2    -0.180000       12.0110           0
      6177 MEMB     64       POPE     H4X      HAL2     0.900000E-01   1.00800           0
      6178 MEMB     64       POPE     H4Y      HAL2     0.900000E-01   1.00800           0
      6179 MEMB     64       POPE     C35      CTL2    -0.180000       12.0110           0
      6180 MEMB     64       POPE     H5X      HAL2     0.900000E-01   1.00800           0
      6181 MEMB     64       POPE     H5Y      HAL2     0.900000E-01   1.00800           0
      6182 MEMB     64       POPE     C36      CTL2    -0.180000       12.0110           0
      6183 MEMB     64       POPE     H6X      HAL2     0.900000E-01   1.00800           0
      6184 MEMB     64       POPE     H6Y      HAL2     0.900000E-01   1.00800           0
      6185 MEMB     64       POPE     C37      CTL2    -0.180000       12.0110           0
      6186 MEMB     64       POPE     H7X      HAL2     0.900000E-01   1.00800           0
      6187 MEMB     64       POPE     H7Y      HAL2     0.900000E-01   1.00800           0
      6188 MEMB     64       POPE     C38      CTL2    -0.180000       12.0110           0
      6189 MEMB     64       POPE     H8X      HAL2     0.900000E-01   1.00800           0
      6190 MEMB     64       POPE     H8Y      HAL2     0.900000E-01   1.00800           0
      6191 MEMB     64       POPE     C39      CTL2    -0.180000       12.0110           0
      6192 MEMB     64       POPE     H9X      HAL2     0.900000E-01   1.00800           0
      6193 MEMB     64       POPE     H9Y      HAL2     0.900000E-01   1.00800           0
      6194 MEMB     64       POPE     C310     CTL2    -0.180000       12.0110           0
      6195 MEMB     64       POPE     H10X     HAL2     0.900000E-01   1.00800           0
      6196 MEMB     64       POPE     H10Y     HAL2     0.900000E-01   1.00800           0
      6197 MEMB     64       POPE     C311     CTL2    -0.180000       12.0110           0
      6198 MEMB     64       POPE     H11X     HAL2     0.900000E-01   1.00800           0
      6199 MEMB     64       POPE     H11Y     HAL2     0.900000E-01   1.00800           0
      6200 MEMB     64       POPE     C312     CTL2    -0.180000       12.0110           0
      6201 MEMB     64       POPE     H12X     HAL2     0.900000E-01   1.00800           0
      6202 MEMB     64       POPE     H12Y     HAL2     0.900000E-01   1.00800           0
      6203 MEMB     64       POPE     C313     CTL2    -0.180000       12.0110           0
      6204 MEMB     64       POPE     H13X     HAL2     0.900000E-01   1.00800           0
      6205 MEMB     64       POPE     H13Y     HAL2     0.900000E-01   1.00800           0
      6206 MEMB     64       POPE     C314     CTL2    -0.180000       12.0110           0
      6207 MEMB     64       POPE     H14X     HAL2     0.900000E-01   1.00800           0
      6208 MEMB     64       POPE     H14Y     HAL2     0.900000E-01   1.00800           0
      6209 MEMB     64       POPE     C315     CTL2    -0.180000       12.0110           0
      6210 MEMB     64       POPE     H15X     HAL2     0.900000E-01   1.00800           0
      6211 MEMB     64       POPE     H15Y     HAL2     0.900000E-01   1.00800           0
      6212 MEMB     64       POPE     C316     CTL3    -0.270000       12.0110           0
      6213 MEMB     64       POPE     H16X     HAL3     0.900000E-01   1.00800           0
      6214 MEMB     64       POPE     H16Y     HAL3     0.900000E-01   1.00800           0
      6215 MEMB     64       POPE     H16Z     HAL3     0.900000E-01   1.00800           0
      6216 MEMB     65       POPE     N        NH3L    -0.300000       14.0070           0
      6217 MEMB     65       POPE     HN1      HCL      0.330000       1.00800           0
      6218 MEMB     65       POPE     HN2      HCL      0.330000       1.00800           0
      6219 MEMB     65       POPE     HN3      HCL      0.330000       1.00800           0
      6220 MEMB     65       POPE     C12      CTL2     0.130000       12.0110           0
      6221 MEMB     65       POPE     H12A     HAL2     0.900000E-01   1.00800           0
      6222 MEMB     65       POPE     H12B     HAL2     0.900000E-01   1.00800           0
      6223 MEMB     65       POPE     C11      CTL2    -0.800000E-01   12.0110           0
      6224 MEMB     65       POPE     H11A     HAL2     0.900000E-01   1.00800           0
      6225 MEMB     65       POPE     H11B     HAL2     0.900000E-01   1.00800           0
      6226 MEMB     65       POPE     P        PL        1.50000       30.9740           0
      6227 MEMB     65       POPE     O13      O2L     -0.780000       15.9994           0
      6228 MEMB     65       POPE     O14      O2L     -0.780000       15.9994           0
      6229 MEMB     65       POPE     O11      OSLP    -0.570000       15.9994           0
      6230 MEMB     65       POPE     O12      OSLP    -0.570000       15.9994           0
      6231 MEMB     65       POPE     C1       CTL2    -0.800000E-01   12.0110           0
      6232 MEMB     65       POPE     HA       HAL2     0.900000E-01   1.00800           0
      6233 MEMB     65       POPE     HB       HAL2     0.900000E-01   1.00800           0
      6234 MEMB     65       POPE     C2       CTL1     0.170000       12.0110           0
      6235 MEMB     65       POPE     HS       HAL1     0.900000E-01   1.00800           0
      6236 MEMB     65       POPE     O21      OSL     -0.490000       15.9994           0
      6237 MEMB     65       POPE     C21      CL       0.900000       12.0110           0
      6238 MEMB     65       POPE     O22      OBL     -0.630000       15.9994           0
      6239 MEMB     65       POPE     C22      CTL2    -0.220000       12.0110           0
      6240 MEMB     65       POPE     H2R      HAL2     0.900000E-01   1.00800           0
      6241 MEMB     65       POPE     H2S      HAL2     0.900000E-01   1.00800           0
      6242 MEMB     65       POPE     C3       CTL2     0.800000E-01   12.0110           0
      6243 MEMB     65       POPE     HX       HAL2     0.900000E-01   1.00800           0
      6244 MEMB     65       POPE     HY       HAL2     0.900000E-01   1.00800           0
      6245 MEMB     65       POPE     O31      OSL     -0.490000       15.9994           0
      6246 MEMB     65       POPE     C31      CL       0.900000       12.0110           0
      6247 MEMB     65       POPE     O32      OBL     -0.630000       15.9994           0
      6248 MEMB     65       POPE     C32      CTL2    -0.220000       12.0110           0
      6249 MEMB     65       POPE     H2X      HAL2     0.900000E-01   1.00800           0
      6250 MEMB     65       POPE     H2Y      HAL2     0.900000E-01   1.00800           0
      6251 MEMB     65       POPE     C23      CTL2    -0.180000       12.0110           0
      6252 MEMB     65       POPE     H3R      HAL2     0.900000E-01   1.00800           0
      6253 MEMB     65       POPE     H3S      HAL2     0.900000E-01   1.00800           0
      6254 MEMB     65       POPE     C24      CTL2    -0.180000       12.0110           0
      6255 MEMB     65       POPE     H4R      HAL2     0.900000E-01   1.00800           0
      6256 MEMB     65       POPE     H4S      HAL2     0.900000E-01   1.00800           0
      6257 MEMB     65       POPE     C25      CTL2    -0.180000       12.0110           0
      6258 MEMB     65       POPE     H5R      HAL2     0.900000E-01   1.00800           0
      6259 MEMB     65       POPE     H5S      HAL2     0.900000E-01   1.00800           0
      6260 MEMB     65       POPE     C26      CTL2    -0.180000       12.0110           0
      6261 MEMB     65       POPE     H6R      HAL2     0.900000E-01   1.00800           0
      6262 MEMB     65       POPE     H6S      HAL2     0.900000E-01   1.00800           0
      6263 MEMB     65       POPE     C27      CTL2    -0.180000       12.0110           0
      6264 MEMB     65       POPE     H7R      HAL2     0.900000E-01   1.00800           0
      6265 MEMB     65       POPE     H7S      HAL2     0.900000E-01   1.00800           0
      6266 MEMB     65       POPE     C28      CTL2    -0.180000       12.0110           0
      6267 MEMB     65       POPE     H8R      HAL2     0.900000E-01   1.00800           0
      6268 MEMB     65       POPE     H8S      HAL2     0.900000E-01   1.00800           0
      6269 MEMB     65       POPE     C29      CEL1    -0.150000       12.0110           0
      6270 MEMB     65       POPE     H91      HEL1     0.150000       1.00800           0
      6271 MEMB     65       POPE     C210     CEL1    -0.150000       12.0110           0
      6272 MEMB     65       POPE     H101     HEL1     0.150000       1.00800           0
      6273 MEMB     65       POPE     C211     CTL2    -0.180000       12.0110           0
      6274 MEMB     65       POPE     H11R     HAL2     0.900000E-01   1.00800           0
      6275 MEMB     65       POPE     H11S     HAL2     0.900000E-01   1.00800           0
      6276 MEMB     65       POPE     C212     CTL2    -0.180000       12.0110           0
      6277 MEMB     65       POPE     H12R     HAL2     0.900000E-01   1.00800           0
      6278 MEMB     65       POPE     H12S     HAL2     0.900000E-01   1.00800           0
      6279 MEMB     65       POPE     C213     CTL2    -0.180000       12.0110           0
      6280 MEMB     65       POPE     H13R     HAL2     0.900000E-01   1.00800           0
      6281 MEMB     65       POPE     H13S     HAL2     0.900000E-01   1.00800           0
      6282 MEMB     65       POPE     C214     CTL2    -0.180000       12.0110           0
      6283 MEMB     65       POPE     H14R     HAL2     0.900000E-01   1.00800           0
      6284 MEMB     65       POPE     H14S     HAL2     0.900000E-01   1.00800           0
      6285 MEMB     65       POPE     C215     CTL2    -0.180000       12.0110           0
      6286 MEMB     65       POPE     H15R     HAL2     0.900000E-01   1.00800           0
      6287 MEMB     65       POPE     H15S     HAL2     0.900000E-01   1.00800           0
      6288 MEMB     65       POPE     C216     CTL2    -0.180000       12.0110           0
      6289 MEMB     65       POPE     H16R     HAL2     0.900000E-01   1.00800           0
      6290 MEMB     65       POPE     H16S     HAL2     0.900000E-01   1.00800           0
      6291 MEMB     65       POPE     C217     CTL2    -0.180000       12.0110           0
      6292 MEMB     65       POPE     H17R     HAL2     0.900000E-01   1.00800           0
      6293 MEMB     65       POPE     H17S     HAL2     0.900000E-01   1.00800           0
      6294 MEMB     65       POPE     C218     CTL3    -0.270000       12.0110           0
      6295 MEMB     65       POPE     H18R     HAL3     0.900000E-01   1.00800           0
      6296 MEMB     65       POPE     H18S     HAL3     0.900000E-01   1.00800           0
      6297 MEMB     65       POPE     H18T     HAL3     0.900000E-01   1.00800           0
      6298 MEMB     65       POPE     C33      CTL2    -0.180000       12.0110           0
      6299 MEMB     65       POPE     H3X      HAL2     0.900000E-01   1.00800           0
      6300 MEMB     65       POPE     H3Y      HAL2     0.900000E-01   1.00800           0
      6301 MEMB     65       POPE     C34      CTL2    -0.180000       12.0110           0
      6302 MEMB     65       POPE     H4X      HAL2     0.900000E-01   1.00800           0
      6303 MEMB     65       POPE     H4Y      HAL2     0.900000E-01   1.00800           0
      6304 MEMB     65       POPE     C35      CTL2    -0.180000       12.0110           0
      6305 MEMB     65       POPE     H5X      HAL2     0.900000E-01   1.00800           0
      6306 MEMB     65       POPE     H5Y      HAL2     0.900000E-01   1.00800           0
      6307 MEMB     65       POPE     C36      CTL2    -0.180000       12.0110           0
      6308 MEMB     65       POPE     H6X      HAL2     0.900000E-01   1.00800           0
      6309 MEMB     65       POPE     H6Y      HAL2     0.900000E-01   1.00800           0
      6310 MEMB     65       POPE     C37      CTL2    -0.180000       12.0110           0
      6311 MEMB     65       POPE     H7X      HAL2     0.900000E-01   1.00800           0
      6312 MEMB     65       POPE     H7Y      HAL2     0.900000E-01   1.00800           0
      6313 MEMB     65       POPE     C38      CTL2    -0.180000       12.0110           0
      6314 MEMB     65       POPE     H8X      HAL2     0.900000E-01   1.00800           0
      6315 MEMB     65       POPE     H8Y      HAL2     0.900000E-01   1.00800           0
      6316 MEMB     65       POPE     C39      CTL2    -0.180000       12.0110           0
      6317 MEMB     65       POPE     H9X      HAL2     0.900000E-01   1.00800           0
      6318 MEMB     65       POPE     H9Y      HAL2     0.900000E-01   1.00800           0
      6319 MEMB     65       POPE     C310     CTL2    -0.180000       12.0110           0
      6320 MEMB     65       POPE     H10X     HAL2     0.900000E-01   1.00800           0
      6321 MEMB     65       POPE     H10Y     HAL2     0.900000E-01   1.00800           0
      6322 MEMB     65       POPE     C311     CTL2    -0.180000       12.0110           0
      6323 MEMB     65       POPE     H11X     HAL2     0.900000E-01   1.00800           0
      6324 MEMB     65       POPE     H11Y     HAL2     0.900000E-01   1.00800           0
      6325 MEMB     65       POPE     C312     CTL2    -0.180000       12.0110           0
      6326 MEMB     65       POPE     H12X     HAL2     0.900000E-01   1.00800           0
      6327 MEMB     65       POPE     H12Y     HAL2     0.900000E-01   1.00800           0
      6328 MEMB     65       POPE     C313     CTL2    -0.180000       12.0110           0
      6329 MEMB     65       POPE     H13X     HAL2     0.900000E-01   1.00800           0
      6330 MEMB     65       POPE     H13Y     HAL2     0.900000E-01   1.00800           0
      6331 MEMB     65       POPE     C314     CTL2    -0.180000       12.0110           0
      6332 MEMB     65       POPE     H14X     HAL2     0.900000E-01   1.00800           0
      6333 MEMB     65       POPE     H14Y     HAL2     0.900000E-01   1.00800           0
      6334 MEMB     65       POPE     C315     CTL2    -0.180000       12.0110           0
      6335 MEMB     65       POPE     H15X     HAL2     0.900000E-01   1.00800           0
      6336 MEMB     65       POPE     H15Y     HAL2     0.900000E-01   1.00800           0
      6337 MEMB     65       POPE     C316     CTL3    -0.270000       12.0110           0
      6338 MEMB     65       POPE     H16X     HAL3     0.900000E-01   1.00800           0
      6339 MEMB     65       POPE     H16Y     HAL3     0.900000E-01   1.00800           0
      6340 MEMB     65       POPE     H16Z     HAL3     0.900000E-01   1.00800           0
      6341 MEMB     66       POPE     N        NH3L    -0.300000       14.0070           0
      6342 MEMB     66       POPE     HN1      HCL      0.330000       1.00800           0
      6343 MEMB     66       POPE     HN2      HCL      0.330000       1.00800           0
      6344 MEMB     66       POPE     HN3      HCL      0.330000       1.00800           0
      6345 MEMB     66       POPE     C12      CTL2     0.130000       12.0110           0
      6346 MEMB     66       POPE     H12A     HAL2     0.900000E-01   1.00800           0
      6347 MEMB     66       POPE     H12B     HAL2     0.900000E-01   1.00800           0
      6348 MEMB     66       POPE     C11      CTL2    -0.800000E-01   12.0110           0
      6349 MEMB     66       POPE     H11A     HAL2     0.900000E-01   1.00800           0
      6350 MEMB     66       POPE     H11B     HAL2     0.900000E-01   1.00800           0
      6351 MEMB     66       POPE     P        PL        1.50000       30.9740           0
      6352 MEMB     66       POPE     O13      O2L     -0.780000       15.9994           0
      6353 MEMB     66       POPE     O14      O2L     -0.780000       15.9994           0
      6354 MEMB     66       POPE     O11      OSLP    -0.570000       15.9994           0
      6355 MEMB     66       POPE     O12      OSLP    -0.570000       15.9994           0
      6356 MEMB     66       POPE     C1       CTL2    -0.800000E-01   12.0110           0
      6357 MEMB     66       POPE     HA       HAL2     0.900000E-01   1.00800           0
      6358 MEMB     66       POPE     HB       HAL2     0.900000E-01   1.00800           0
      6359 MEMB     66       POPE     C2       CTL1     0.170000       12.0110           0
      6360 MEMB     66       POPE     HS       HAL1     0.900000E-01   1.00800           0
      6361 MEMB     66       POPE     O21      OSL     -0.490000       15.9994           0
      6362 MEMB     66       POPE     C21      CL       0.900000       12.0110           0
      6363 MEMB     66       POPE     O22      OBL     -0.630000       15.9994           0
      6364 MEMB     66       POPE     C22      CTL2    -0.220000       12.0110           0
      6365 MEMB     66       POPE     H2R      HAL2     0.900000E-01   1.00800           0
      6366 MEMB     66       POPE     H2S      HAL2     0.900000E-01   1.00800           0
      6367 MEMB     66       POPE     C3       CTL2     0.800000E-01   12.0110           0
      6368 MEMB     66       POPE     HX       HAL2     0.900000E-01   1.00800           0
      6369 MEMB     66       POPE     HY       HAL2     0.900000E-01   1.00800           0
      6370 MEMB     66       POPE     O31      OSL     -0.490000       15.9994           0
      6371 MEMB     66       POPE     C31      CL       0.900000       12.0110           0
      6372 MEMB     66       POPE     O32      OBL     -0.630000       15.9994           0
      6373 MEMB     66       POPE     C32      CTL2    -0.220000       12.0110           0
      6374 MEMB     66       POPE     H2X      HAL2     0.900000E-01   1.00800           0
      6375 MEMB     66       POPE     H2Y      HAL2     0.900000E-01   1.00800           0
      6376 MEMB     66       POPE     C23      CTL2    -0.180000       12.0110           0
      6377 MEMB     66       POPE     H3R      HAL2     0.900000E-01   1.00800           0
      6378 MEMB     66       POPE     H3S      HAL2     0.900000E-01   1.00800           0
      6379 MEMB     66       POPE     C24      CTL2    -0.180000       12.0110           0
      6380 MEMB     66       POPE     H4R      HAL2     0.900000E-01   1.00800           0
      6381 MEMB     66       POPE     H4S      HAL2     0.900000E-01   1.00800           0
      6382 MEMB     66       POPE     C25      CTL2    -0.180000       12.0110           0
      6383 MEMB     66       POPE     H5R      HAL2     0.900000E-01   1.00800           0
      6384 MEMB     66       POPE     H5S      HAL2     0.900000E-01   1.00800           0
      6385 MEMB     66       POPE     C26      CTL2    -0.180000       12.0110           0
      6386 MEMB     66       POPE     H6R      HAL2     0.900000E-01   1.00800           0
      6387 MEMB     66       POPE     H6S      HAL2     0.900000E-01   1.00800           0
      6388 MEMB     66       POPE     C27      CTL2    -0.180000       12.0110           0
      6389 MEMB     66       POPE     H7R      HAL2     0.900000E-01   1.00800           0
      6390 MEMB     66       POPE     H7S      HAL2     0.900000E-01   1.00800           0
      6391 MEMB     66       POPE     C28      CTL2    -0.180000       12.0110           0
      6392 MEMB     66       POPE     H8R      HAL2     0.900000E-01   1.00800           0
      6393 MEMB     66       POPE     H8S      HAL2     0.900000E-01   1.00800           0
      6394 MEMB     66       POPE     C29      CEL1    -0.150000       12.0110           0
      6395 MEMB     66       POPE     H91      HEL1     0.150000       1.00800           0
      6396 MEMB     66       POPE     C210     CEL1    -0.150000       12.0110           0
      6397 MEMB     66       POPE     H101     HEL1     0.150000       1.00800           0
      6398 MEMB     66       POPE     C211     CTL2    -0.180000       12.0110           0
      6399 MEMB     66       POPE     H11R     HAL2     0.900000E-01   1.00800           0
      6400 MEMB     66       POPE     H11S     HAL2     0.900000E-01   1.00800           0
      6401 MEMB     66       POPE     C212     CTL2    -0.180000       12.0110           0
      6402 MEMB     66       POPE     H12R     HAL2     0.900000E-01   1.00800           0
      6403 MEMB     66       POPE     H12S     HAL2     0.900000E-01   1.00800           0
      6404 MEMB     66       POPE     C213     CTL2    -0.180000       12.0110           0
      6405 MEMB     66       POPE     H13R     HAL2     0.900000E-01   1.00800           0
      6406 MEMB     66       POPE     H13S     HAL2     0.900000E-01   1.00800           0
      6407 MEMB     66       POPE     C214     CTL2    -0.180000       12.0110           0
      6408 MEMB     66       POPE     H14R     HAL2     0.900000E-01   1.00800           0
      6409 MEMB     66       POPE     H14S     HAL2     0.900000E-01   1.00800           0
      6410 MEMB     66       POPE     C215     CTL2    -0.180000       12.0110           0
      6411 MEMB     66       POPE     H15R     HAL2     0.900000E-01   1.00800           0
      6412 MEMB     66       POPE     H15S     HAL2     0.900000E-01   1.00800           0
      6413 MEMB     66       POPE     C216     CTL2    -0.180000       12.0110           0
      6414 MEMB     66       POPE     H16R     HAL2     0.900000E-01   1.00800           0
      6415 MEMB     66       POPE     H16S     HAL2     0.900000E-01   1.00800           0
      6416 MEMB     66       POPE     C217     CTL2    -0.180000       12.0110           0
      6417 MEMB     66       POPE     H17R     HAL2     0.900000E-01   1.00800           0
      6418 MEMB     66       POPE     H17S     HAL2     0.900000E-01   1.00800           0
      6419 MEMB     66       POPE     C218     CTL3    -0.270000       12.0110           0
      6420 MEMB     66       POPE     H18R     HAL3     0.900000E-01   1.00800           0
      6421 MEMB     66       POPE     H18S     HAL3     0.900000E-01   1.00800           0
      6422 MEMB     66       POPE     H18T     HAL3     0.900000E-01   1.00800           0
      6423 MEMB     66       POPE     C33      CTL2    -0.180000       12.0110           0
      6424 MEMB     66       POPE     H3X      HAL2     0.900000E-01   1.00800           0
      6425 MEMB     66       POPE     H3Y      HAL2     0.900000E-01   1.00800           0
      6426 MEMB     66       POPE     C34      CTL2    -0.180000       12.0110           0
      6427 MEMB     66       POPE     H4X      HAL2     0.900000E-01   1.00800           0
      6428 MEMB     66       POPE     H4Y      HAL2     0.900000E-01   1.00800           0
      6429 MEMB     66       POPE     C35      CTL2    -0.180000       12.0110           0
      6430 MEMB     66       POPE     H5X      HAL2     0.900000E-01   1.00800           0
      6431 MEMB     66       POPE     H5Y      HAL2     0.900000E-01   1.00800           0
      6432 MEMB     66       POPE     C36      CTL2    -0.180000       12.0110           0
      6433 MEMB     66       POPE     H6X      HAL2     0.900000E-01   1.00800           0
      6434 MEMB     66       POPE     H6Y      HAL2     0.900000E-01   1.00800           0
      6435 MEMB     66       POPE     C37      CTL2    -0.180000       12.0110           0
      6436 MEMB     66       POPE     H7X      HAL2     0.900000E-01   1.00800           0
      6437 MEMB     66       POPE     H7Y      HAL2     0.900000E-01   1.00800           0
      6438 MEMB     66       POPE     C38      CTL2    -0.180000       12.0110           0
      6439 MEMB     66       POPE     H8X      HAL2     0.900000E-01   1.00800           0
      6440 MEMB     66       POPE     H8Y      HAL2     0.900000E-01   1.00800           0
      6441 MEMB     66       POPE     C39      CTL2    -0.180000       12.0110           0
      6442 MEMB     66       POPE     H9X      HAL2     0.900000E-01   1.00800           0
      6443 MEMB     66       POPE     H9Y      HAL2     0.900000E-01   1.00800           0
      6444 MEMB     66       POPE     C310     CTL2    -0.180000       12.0110           0
      6445 MEMB     66       POPE     H10X     HAL2     0.900000E-01   1.00800           0
      6446 MEMB     66       POPE     H10Y     HAL2     0.900000E-01   1.00800           0
      6447 MEMB     66       POPE     C311     CTL2    -0.180000       12.0110           0
      6448 MEMB     66       POPE     H11X     HAL2     0.900000E-01   1.00800           0
      6449 MEMB     66       POPE     H11Y     HAL2     0.900000E-01   1.00800           0
      6450 MEMB     66       POPE     C312     CTL2    -0.180000       12.0110           0
      6451 MEMB     66       POPE     H12X     HAL2     0.900000E-01   1.00800           0
      6452 MEMB     66       POPE     H12Y     HAL2     0.900000E-01   1.00800           0
      6453 MEMB     66       POPE     C313     CTL2    -0.180000       12.0110           0
      6454 MEMB     66       POPE     H13X     HAL2     0.900000E-01   1.00800           0
      6455 MEMB     66       POPE     H13Y     HAL2     0.900000E-01   1.00800           0
      6456 MEMB     66       POPE     C314     CTL2    -0.180000       12.0110           0
      6457 MEMB     66       POPE     H14X     HAL2     0.900000E-01   1.00800           0
      6458 MEMB     66       POPE     H14Y     HAL2     0.900000E-01   1.00800           0
      6459 MEMB     66       POPE     C315     CTL2    -0.180000       12.0110           0
      6460 MEMB     66       POPE     H15X     HAL2     0.900000E-01   1.00800           0
      6461 MEMB     66       POPE     H15Y     HAL2     0.900000E-01   1.00800           0
      6462 MEMB     66       POPE     C316     CTL3    -0.270000       12.0110           0
      6463 MEMB     66       POPE     H16X     HAL3     0.900000E-01   1.00800           0
      6464 MEMB     66       POPE     H16Y     HAL3     0.900000E-01   1.00800           0
      6465 MEMB     66       POPE     H16Z     HAL3     0.900000E-01   1.00800           0
      6466 MEMB     67       POPC     N        NTL     -0.600000       14.0070           0
      6467 MEMB     67       POPC     C12      CTL2    -0.100000       12.0110           0
      6468 MEMB     67       POPC     H12A     HL       0.250000       1.00800           0
      6469 MEMB     67       POPC     H12B     HL       0.250000       1.00800           0
      6470 MEMB     67       POPC     C13      CTL5    -0.350000       12.0110           0
      6471 MEMB     67       POPC     H13A     HL       0.250000       1.00800           0
      6472 MEMB     67       POPC     H13B     HL       0.250000       1.00800           0
      6473 MEMB     67       POPC     H13C     HL       0.250000       1.00800           0
      6474 MEMB     67       POPC     C14      CTL5    -0.350000       12.0110           0
      6475 MEMB     67       POPC     H14A     HL       0.250000       1.00800           0
      6476 MEMB     67       POPC     H14B     HL       0.250000       1.00800           0
      6477 MEMB     67       POPC     H14C     HL       0.250000       1.00800           0
      6478 MEMB     67       POPC     C15      CTL5    -0.350000       12.0110           0
      6479 MEMB     67       POPC     H15A     HL       0.250000       1.00800           0
      6480 MEMB     67       POPC     H15B     HL       0.250000       1.00800           0
      6481 MEMB     67       POPC     H15C     HL       0.250000       1.00800           0
      6482 MEMB     67       POPC     C11      CTL2    -0.800000E-01   12.0110           0
      6483 MEMB     67       POPC     H11A     HAL2     0.900000E-01   1.00800           0
      6484 MEMB     67       POPC     H11B     HAL2     0.900000E-01   1.00800           0
      6485 MEMB     67       POPC     P        PL        1.50000       30.9740           0
      6486 MEMB     67       POPC     O13      O2L     -0.780000       15.9994           0
      6487 MEMB     67       POPC     O14      O2L     -0.780000       15.9994           0
      6488 MEMB     67       POPC     O12      OSLP    -0.570000       15.9994           0
      6489 MEMB     67       POPC     O11      OSLP    -0.570000       15.9994           0
      6490 MEMB     67       POPC     C1       CTL2    -0.800000E-01   12.0110           0
      6491 MEMB     67       POPC     HA       HAL2     0.900000E-01   1.00800           0
      6492 MEMB     67       POPC     HB       HAL2     0.900000E-01   1.00800           0
      6493 MEMB     67       POPC     C2       CTL1     0.170000       12.0110           0
      6494 MEMB     67       POPC     HS       HAL1     0.900000E-01   1.00800           0
      6495 MEMB     67       POPC     O21      OSL     -0.490000       15.9994           0
      6496 MEMB     67       POPC     C21      CL       0.900000       12.0110           0
      6497 MEMB     67       POPC     O22      OBL     -0.630000       15.9994           0
      6498 MEMB     67       POPC     C22      CTL2    -0.220000       12.0110           0
      6499 MEMB     67       POPC     H2R      HAL2     0.900000E-01   1.00800           0
      6500 MEMB     67       POPC     H2S      HAL2     0.900000E-01   1.00800           0
      6501 MEMB     67       POPC     C3       CTL2     0.800000E-01   12.0110           0
      6502 MEMB     67       POPC     HX       HAL2     0.900000E-01   1.00800           0
      6503 MEMB     67       POPC     HY       HAL2     0.900000E-01   1.00800           0
      6504 MEMB     67       POPC     O31      OSL     -0.490000       15.9994           0
      6505 MEMB     67       POPC     C31      CL       0.900000       12.0110           0
      6506 MEMB     67       POPC     O32      OBL     -0.630000       15.9994           0
      6507 MEMB     67       POPC     C32      CTL2    -0.220000       12.0110           0
      6508 MEMB     67       POPC     H2X      HAL2     0.900000E-01   1.00800           0
      6509 MEMB     67       POPC     H2Y      HAL2     0.900000E-01   1.00800           0
      6510 MEMB     67       POPC     C23      CTL2    -0.180000       12.0110           0
      6511 MEMB     67       POPC     H3R      HAL2     0.900000E-01   1.00800           0
      6512 MEMB     67       POPC     H3S      HAL2     0.900000E-01   1.00800           0
      6513 MEMB     67       POPC     C24      CTL2    -0.180000       12.0110           0
      6514 MEMB     67       POPC     H4R      HAL2     0.900000E-01   1.00800           0
      6515 MEMB     67       POPC     H4S      HAL2     0.900000E-01   1.00800           0
      6516 MEMB     67       POPC     C25      CTL2    -0.180000       12.0110           0
      6517 MEMB     67       POPC     H5R      HAL2     0.900000E-01   1.00800           0
      6518 MEMB     67       POPC     H5S      HAL2     0.900000E-01   1.00800           0
      6519 MEMB     67       POPC     C26      CTL2    -0.180000       12.0110           0
      6520 MEMB     67       POPC     H6R      HAL2     0.900000E-01   1.00800           0
      6521 MEMB     67       POPC     H6S      HAL2     0.900000E-01   1.00800           0
      6522 MEMB     67       POPC     C27      CTL2    -0.180000       12.0110           0
      6523 MEMB     67       POPC     H7R      HAL2     0.900000E-01   1.00800           0
      6524 MEMB     67       POPC     H7S      HAL2     0.900000E-01   1.00800           0
      6525 MEMB     67       POPC     C28      CTL2    -0.180000       12.0110           0
      6526 MEMB     67       POPC     H8R      HAL2     0.900000E-01   1.00800           0
      6527 MEMB     67       POPC     H8S      HAL2     0.900000E-01   1.00800           0
      6528 MEMB     67       POPC     C29      CEL1    -0.150000       12.0110           0
      6529 MEMB     67       POPC     H91      HEL1     0.150000       1.00800           0
      6530 MEMB     67       POPC     C210     CEL1    -0.150000       12.0110           0
      6531 MEMB     67       POPC     H101     HEL1     0.150000       1.00800           0
      6532 MEMB     67       POPC     C211     CTL2    -0.180000       12.0110           0
      6533 MEMB     67       POPC     H11R     HAL2     0.900000E-01   1.00800           0
      6534 MEMB     67       POPC     H11S     HAL2     0.900000E-01   1.00800           0
      6535 MEMB     67       POPC     C212     CTL2    -0.180000       12.0110           0
      6536 MEMB     67       POPC     H12R     HAL2     0.900000E-01   1.00800           0
      6537 MEMB     67       POPC     H12S     HAL2     0.900000E-01   1.00800           0
      6538 MEMB     67       POPC     C213     CTL2    -0.180000       12.0110           0
      6539 MEMB     67       POPC     H13R     HAL2     0.900000E-01   1.00800           0
      6540 MEMB     67       POPC     H13S     HAL2     0.900000E-01   1.00800           0
      6541 MEMB     67       POPC     C214     CTL2    -0.180000       12.0110           0
      6542 MEMB     67       POPC     H14R     HAL2     0.900000E-01   1.00800           0
      6543 MEMB     67       POPC     H14S     HAL2     0.900000E-01   1.00800           0
      6544 MEMB     67       POPC     C215     CTL2    -0.180000       12.0110           0
      6545 MEMB     67       POPC     H15R     HAL2     0.900000E-01   1.00800           0
      6546 MEMB     67       POPC     H15S     HAL2     0.900000E-01   1.00800           0
      6547 MEMB     67       POPC     C216     CTL2    -0.180000       12.0110           0
      6548 MEMB     67       POPC     H16R     HAL2     0.900000E-01   1.00800           0
      6549 MEMB     67       POPC     H16S     HAL2     0.900000E-01   1.00800           0
      6550 MEMB     67       POPC     C217     CTL2    -0.180000       12.0110           0
      6551 MEMB     67       POPC     H17R     HAL2     0.900000E-01   1.00800           0
      6552 MEMB     67       POPC     H17S     HAL2     0.900000E-01   1.00800           0
      6553 MEMB     67       POPC     C218     CTL3    -0.270000       12.0110           0
      6554 MEMB     67       POPC     H18R     HAL3     0.900000E-01   1.00800           0
      6555 MEMB     67       POPC     H18S     HAL3     0.900000E-01   1.00800           0
      6556 MEMB     67       POPC     H18T     HAL3     0.900000E-01   1.00800           0
      6557 MEMB     67       POPC     C33      CTL2    -0.180000       12.0110           0
      6558 MEMB     67       POPC     H3X      HAL2     0.900000E-01   1.00800           0
      6559 MEMB     67       POPC     H3Y      HAL2     0.900000E-01   1.00800           0
      6560 MEMB     67       POPC     C34      CTL2    -0.180000       12.0110           0
      6561 MEMB     67       POPC     H4X      HAL2     0.900000E-01   1.00800           0
      6562 MEMB     67       POPC     H4Y      HAL2     0.900000E-01   1.00800           0
      6563 MEMB     67       POPC     C35      CTL2    -0.180000       12.0110           0
      6564 MEMB     67       POPC     H5X      HAL2     0.900000E-01   1.00800           0
      6565 MEMB     67       POPC     H5Y      HAL2     0.900000E-01   1.00800           0
      6566 MEMB     67       POPC     C36      CTL2    -0.180000       12.0110           0
      6567 MEMB     67       POPC     H6X      HAL2     0.900000E-01   1.00800           0
      6568 MEMB     67       POPC     H6Y      HAL2     0.900000E-01   1.00800           0
      6569 MEMB     67       POPC     C37      CTL2    -0.180000       12.0110           0
      6570 MEMB     67       POPC     H7X      HAL2     0.900000E-01   1.00800           0
      6571 MEMB     67       POPC     H7Y      HAL2     0.900000E-01   1.00800           0
      6572 MEMB     67       POPC     C38      CTL2    -0.180000       12.0110           0
      6573 MEMB     67       POPC     H8X      HAL2     0.900000E-01   1.00800           0
      6574 MEMB     67       POPC     H8Y      HAL2     0.900000E-01   1.00800           0
      6575 MEMB     67       POPC     C39      CTL2    -0.180000       12.0110           0
      6576 MEMB     67       POPC     H9X      HAL2     0.900000E-01   1.00800           0
      6577 MEMB     67       POPC     H9Y      HAL2     0.900000E-01   1.00800           0
      6578 MEMB     67       POPC     C310     CTL2    -0.180000       12.0110           0
      6579 MEMB     67       POPC     H10X     HAL2     0.900000E-01   1.00800           0
      6580 MEMB     67       POPC     H10Y     HAL2     0.900000E-01   1.00800           0
      6581 MEMB     67       POPC     C311     CTL2    -0.180000       12.0110           0
      6582 MEMB     67       POPC     H11X     HAL2     0.900000E-01   1.00800           0
      6583 MEMB     67       POPC     H11Y     HAL2     0.900000E-01   1.00800           0
      6584 MEMB     67       POPC     C312     CTL2    -0.180000       12.0110           0
      6585 MEMB     67       POPC     H12X     HAL2     0.900000E-01   1.00800           0
      6586 MEMB     67       POPC     H12Y     HAL2     0.900000E-01   1.00800           0
      6587 MEMB     67       POPC     C313     CTL2    -0.180000       12.0110           0
      6588 MEMB     67       POPC     H13X     HAL2     0.900000E-01   1.00800           0
      6589 MEMB     67       POPC     H13Y     HAL2     0.900000E-01   1.00800           0
      6590 MEMB     67       POPC     C314     CTL2    -0.180000       12.0110           0
      6591 MEMB     67       POPC     H14X     HAL2     0.900000E-01   1.00800           0
      6592 MEMB     67       POPC     H14Y     HAL2     0.900000E-01   1.00800           0
      6593 MEMB     67       POPC     C315     CTL2    -0.180000       12.0110           0
      6594 MEMB     67       POPC     H15X     HAL2     0.900000E-01   1.00800           0
      6595 MEMB     67       POPC     H15Y     HAL2     0.900000E-01   1.00800           0
      6596 MEMB     67       POPC     C316     CTL3    -0.270000       12.0110           0
      6597 MEMB     67       POPC     H16X     HAL3     0.900000E-01   1.00800           0
      6598 MEMB     67       POPC     H16Y     HAL3     0.900000E-01   1.00800           0
      6599 MEMB     67       POPC     H16Z     HAL3     0.900000E-01   1.00800           0
      6600 MEMB     68       POPC     N        NTL     -0.600000       14.0070           0
      6601 MEMB     68       POPC     C12      CTL2    -0.100000       12.0110           0
      6602 MEMB     68       POPC     H12A     HL       0.250000       1.00800           0
      6603 MEMB     68       POPC     H12B     HL       0.250000       1.00800           0
      6604 MEMB     68       POPC     C13      CTL5    -0.350000       12.0110           0
      6605 MEMB     68       POPC     H13A     HL       0.250000       1.00800           0
      6606 MEMB     68       POPC     H13B     HL       0.250000       1.00800           0
      6607 MEMB     68       POPC     H13C     HL       0.250000       1.00800           0
      6608 MEMB     68       POPC     C14      CTL5    -0.350000       12.0110           0
      6609 MEMB     68       POPC     H14A     HL       0.250000       1.00800           0
      6610 MEMB     68       POPC     H14B     HL       0.250000       1.00800           0
      6611 MEMB     68       POPC     H14C     HL       0.250000       1.00800           0
      6612 MEMB     68       POPC     C15      CTL5    -0.350000       12.0110           0
      6613 MEMB     68       POPC     H15A     HL       0.250000       1.00800           0
      6614 MEMB     68       POPC     H15B     HL       0.250000       1.00800           0
      6615 MEMB     68       POPC     H15C     HL       0.250000       1.00800           0
      6616 MEMB     68       POPC     C11      CTL2    -0.800000E-01   12.0110           0
      6617 MEMB     68       POPC     H11A     HAL2     0.900000E-01   1.00800           0
      6618 MEMB     68       POPC     H11B     HAL2     0.900000E-01   1.00800           0
      6619 MEMB     68       POPC     P        PL        1.50000       30.9740           0
      6620 MEMB     68       POPC     O13      O2L     -0.780000       15.9994           0
      6621 MEMB     68       POPC     O14      O2L     -0.780000       15.9994           0
      6622 MEMB     68       POPC     O12      OSLP    -0.570000       15.9994           0
      6623 MEMB     68       POPC     O11      OSLP    -0.570000       15.9994           0
      6624 MEMB     68       POPC     C1       CTL2    -0.800000E-01   12.0110           0
      6625 MEMB     68       POPC     HA       HAL2     0.900000E-01   1.00800           0
      6626 MEMB     68       POPC     HB       HAL2     0.900000E-01   1.00800           0
      6627 MEMB     68       POPC     C2       CTL1     0.170000       12.0110           0
      6628 MEMB     68       POPC     HS       HAL1     0.900000E-01   1.00800           0
      6629 MEMB     68       POPC     O21      OSL     -0.490000       15.9994           0
      6630 MEMB     68       POPC     C21      CL       0.900000       12.0110           0
      6631 MEMB     68       POPC     O22      OBL     -0.630000       15.9994           0
      6632 MEMB     68       POPC     C22      CTL2    -0.220000       12.0110           0
      6633 MEMB     68       POPC     H2R      HAL2     0.900000E-01   1.00800           0
      6634 MEMB     68       POPC     H2S      HAL2     0.900000E-01   1.00800           0
      6635 MEMB     68       POPC     C3       CTL2     0.800000E-01   12.0110           0
      6636 MEMB     68       POPC     HX       HAL2     0.900000E-01   1.00800           0
      6637 MEMB     68       POPC     HY       HAL2     0.900000E-01   1.00800           0
      6638 MEMB     68       POPC     O31      OSL     -0.490000       15.9994           0
      6639 MEMB     68       POPC     C31      CL       0.900000       12.0110           0
      6640 MEMB     68       POPC     O32      OBL     -0.630000       15.9994           0
      6641 MEMB     68       POPC     C32      CTL2    -0.220000       12.0110           0
      6642 MEMB     68       POPC     H2X      HAL2     0.900000E-01   1.00800           0
      6643 MEMB     68       POPC     H2Y      HAL2     0.900000E-01   1.00800           0
      6644 MEMB     68       POPC     C23      CTL2    -0.180000       12.0110           0
      6645 MEMB     68       POPC     H3R      HAL2     0.900000E-01   1.00800           0
      6646 MEMB     68       POPC     H3S      HAL2     0.900000E-01   1.00800           0
      6647 MEMB     68       POPC     C24      CTL2    -0.180000       12.0110           0
      6648 MEMB     68       POPC     H4R      HAL2     0.900000E-01   1.00800           0
      6649 MEMB     68       POPC     H4S      HAL2     0.900000E-01   1.00800           0
      6650 MEMB     68       POPC     C25      CTL2    -0.180000       12.0110           0
      6651 MEMB     68       POPC     H5R      HAL2     0.900000E-01   1.00800           0
      6652 MEMB     68       POPC     H5S      HAL2     0.900000E-01   1.00800           0
      6653 MEMB     68       POPC     C26      CTL2    -0.180000       12.0110           0
      6654 MEMB     68       POPC     H6R      HAL2     0.900000E-01   1.00800           0
      6655 MEMB     68       POPC     H6S      HAL2     0.900000E-01   1.00800           0
      6656 MEMB     68       POPC     C27      CTL2    -0.180000       12.0110           0
      6657 MEMB     68       POPC     H7R      HAL2     0.900000E-01   1.00800           0
      6658 MEMB     68       POPC     H7S      HAL2     0.900000E-01   1.00800           0
      6659 MEMB     68       POPC     C28      CTL2    -0.180000       12.0110           0
      6660 MEMB     68       POPC     H8R      HAL2     0.900000E-01   1.00800           0
      6661 MEMB     68       POPC     H8S      HAL2     0.900000E-01   1.00800           0
      6662 MEMB     68       POPC     C29      CEL1    -0.150000       12.0110           0
      6663 MEMB     68       POPC     H91      HEL1     0.150000       1.00800           0
      6664 MEMB     68       POPC     C210     CEL1    -0.150000       12.0110           0
      6665 MEMB     68       POPC     H101     HEL1     0.150000       1.00800           0
      6666 MEMB     68       POPC     C211     CTL2    -0.180000       12.0110           0
      6667 MEMB     68       POPC     H11R     HAL2     0.900000E-01   1.00800           0
      6668 MEMB     68       POPC     H11S     HAL2     0.900000E-01   1.00800           0
      6669 MEMB     68       POPC     C212     CTL2    -0.180000       12.0110           0
      6670 MEMB     68       POPC     H12R     HAL2     0.900000E-01   1.00800           0
      6671 MEMB     68       POPC     H12S     HAL2     0.900000E-01   1.00800           0
      6672 MEMB     68       POPC     C213     CTL2    -0.180000       12.0110           0
      6673 MEMB     68       POPC     H13R     HAL2     0.900000E-01   1.00800           0
      6674 MEMB     68       POPC     H13S     HAL2     0.900000E-01   1.00800           0
      6675 MEMB     68       POPC     C214     CTL2    -0.180000       12.0110           0
      6676 MEMB     68       POPC     H14R     HAL2     0.900000E-01   1.00800           0
      6677 MEMB     68       POPC     H14S     HAL2     0.900000E-01   1.00800           0
      6678 MEMB     68       POPC     C215     CTL2    -0.180000       12.0110           0
      6679 MEMB     68       POPC     H15R     HAL2     0.900000E-01   1.00800           0
      6680 MEMB     68       POPC     H15S     HAL2     0.900000E-01   1.00800           0
      6681 MEMB     68       POPC     C216     CTL2    -0.180000       12.0110           0
      6682 MEMB     68       POPC     H16R     HAL2     0.900000E-01   1.00800           0
      6683 MEMB     68       POPC     H16S     HAL2     0.900000E-01   1.00800           0
      6684 MEMB     68       POPC     C217     CTL2    -0.180000       12.0110           0
      6685 MEMB     68       POPC     H17R     HAL2     0.900000E-01   1.00800           0
      6686 MEMB     68       POPC     H17S     HAL2     0.900000E-01   1.00800           0
      6687 MEMB     68       POPC     C218     CTL3    -0.270000       12.0110           0
      6688 MEMB     68       POPC     H18R     HAL3     0.900000E-01   1.00800           0
      6689 MEMB     68       POPC     H18S     HAL3     0.900000E-01   1.00800           0
      6690 MEMB     68       POPC     H18T     HAL3     0.900000E-01   1.00800           0
      6691 MEMB     68       POPC     C33      CTL2    -0.180000       12.0110           0
      6692 MEMB     68       POPC     H3X      HAL2     0.900000E-01   1.00800           0
      6693 MEMB     68       POPC     H3Y      HAL2     0.900000E-01   1.00800           0
      6694 MEMB     68       POPC     C34      CTL2    -0.180000       12.0110           0
      6695 MEMB     68       POPC     H4X      HAL2     0.900000E-01   1.00800           0
      6696 MEMB     68       POPC     H4Y      HAL2     0.900000E-01   1.00800           0
      6697 MEMB     68       POPC     C35      CTL2    -0.180000       12.0110           0
      6698 MEMB     68       POPC     H5X      HAL2     0.900000E-01   1.00800           0
      6699 MEMB     68       POPC     H5Y      HAL2     0.900000E-01   1.00800           0
      6700 MEMB     68       POPC     C36      CTL2    -0.180000       12.0110           0
      6701 MEMB     68       POPC     H6X      HAL2     0.900000E-01   1.00800           0
      6702 MEMB     68       POPC     H6Y      HAL2     0.900000E-01   1.00800           0
      6703 MEMB     68       POPC     C37      CTL2    -0.180000       12.0110           0
      6704 MEMB     68       POPC     H7X      HAL2     0.900000E-01   1.00800           0
      6705 MEMB     68       POPC     H7Y      HAL2     0.900000E-01   1.00800           0
      6706 MEMB     68       POPC     C38      CTL2    -0.180000       12.0110           0
      6707 MEMB     68       POPC     H8X      HAL2     0.900000E-01   1.00800           0
      6708 MEMB     68       POPC     H8Y      HAL2     0.900000E-01   1.00800           0
      6709 MEMB     68       POPC     C39      CTL2    -0.180000       12.0110           0
      6710 MEMB     68       POPC     H9X      HAL2     0.900000E-01   1.00800           0
      6711 MEMB     68       POPC     H9Y      HAL2     0.900000E-01   1.00800           0
      6712 MEMB     68       POPC     C310     CTL2    -0.180000       12.0110           0
      6713 MEMB     68       POPC     H10X     HAL2     0.900000E-01   1.00800           0
      6714 MEMB     68       POPC     H10Y     HAL2     0.900000E-01   1.00800           0
      6715 MEMB     68       POPC     C311     CTL2    -0.180000       12.0110           0
      6716 MEMB     68       POPC     H11X     HAL2     0.900000E-01   1.00800           0
      6717 MEMB     68       POPC     H11Y     HAL2     0.900000E-01   1.00800           0
      6718 MEMB     68       POPC     C312     CTL2    -0.180000       12.0110           0
      6719 MEMB     68       POPC     H12X     HAL2     0.900000E-01   1.00800           0
      6720 MEMB     68       POPC     H12Y     HAL2     0.900000E-01   1.00800           0
      6721 MEMB     68       POPC     C313     CTL2    -0.180000       12.0110           0
      6722 MEMB     68       POPC     H13X     HAL2     0.900000E-01   1.00800           0
      6723 MEMB     68       POPC     H13Y     HAL2     0.900000E-01   1.00800           0
      6724 MEMB     68       POPC     C314     CTL2    -0.180000       12.0110           0
      6725 MEMB     68       POPC     H14X     HAL2     0.900000E-01   1.00800           0
      6726 MEMB     68       POPC     H14Y     HAL2     0.900000E-01   1.00800           0
      6727 MEMB     68       POPC     C315     CTL2    -0.180000       12.0110           0
      6728 MEMB     68       POPC     H15X     HAL2     0.900000E-01   1.00800           0
      6729 MEMB     68       POPC     H15Y     HAL2     0.900000E-01   1.00800           0
      6730 MEMB     68       POPC     C316     CTL3    -0.270000       12.0110           0
      6731 MEMB     68       POPC     H16X     HAL3     0.900000E-01   1.00800           0
      6732 MEMB     68       POPC     H16Y     HAL3     0.900000E-01   1.00800           0
      6733 MEMB     68       POPC     H16Z     HAL3     0.900000E-01   1.00800           0
      6734 MEMB     69       POPE     N        NH3L    -0.300000       14.0070           0
      6735 MEMB     69       POPE     HN1      HCL      0.330000       1.00800           0
      6736 MEMB     69       POPE     HN2      HCL      0.330000       1.00800           0
      6737 MEMB     69       POPE     HN3      HCL      0.330000       1.00800           0
      6738 MEMB     69       POPE     C12      CTL2     0.130000       12.0110           0
      6739 MEMB     69       POPE     H12A     HAL2     0.900000E-01   1.00800           0
      6740 MEMB     69       POPE     H12B     HAL2     0.900000E-01   1.00800           0
      6741 MEMB     69       POPE     C11      CTL2    -0.800000E-01   12.0110           0
      6742 MEMB     69       POPE     H11A     HAL2     0.900000E-01   1.00800           0
      6743 MEMB     69       POPE     H11B     HAL2     0.900000E-01   1.00800           0
      6744 MEMB     69       POPE     P        PL        1.50000       30.9740           0
      6745 MEMB     69       POPE     O13      O2L     -0.780000       15.9994           0
      6746 MEMB     69       POPE     O14      O2L     -0.780000       15.9994           0
      6747 MEMB     69       POPE     O11      OSLP    -0.570000       15.9994           0
      6748 MEMB     69       POPE     O12      OSLP    -0.570000       15.9994           0
      6749 MEMB     69       POPE     C1       CTL2    -0.800000E-01   12.0110           0
      6750 MEMB     69       POPE     HA       HAL2     0.900000E-01   1.00800           0
      6751 MEMB     69       POPE     HB       HAL2     0.900000E-01   1.00800           0
      6752 MEMB     69       POPE     C2       CTL1     0.170000       12.0110           0
      6753 MEMB     69       POPE     HS       HAL1     0.900000E-01   1.00800           0
      6754 MEMB     69       POPE     O21      OSL     -0.490000       15.9994           0
      6755 MEMB     69       POPE     C21      CL       0.900000       12.0110           0
      6756 MEMB     69       POPE     O22      OBL     -0.630000       15.9994           0
      6757 MEMB     69       POPE     C22      CTL2    -0.220000       12.0110           0
      6758 MEMB     69       POPE     H2R      HAL2     0.900000E-01   1.00800           0
      6759 MEMB     69       POPE     H2S      HAL2     0.900000E-01   1.00800           0
      6760 MEMB     69       POPE     C3       CTL2     0.800000E-01   12.0110           0
      6761 MEMB     69       POPE     HX       HAL2     0.900000E-01   1.00800           0
      6762 MEMB     69       POPE     HY       HAL2     0.900000E-01   1.00800           0
      6763 MEMB     69       POPE     O31      OSL     -0.490000       15.9994           0
      6764 MEMB     69       POPE     C31      CL       0.900000       12.0110           0
      6765 MEMB     69       POPE     O32      OBL     -0.630000       15.9994           0
      6766 MEMB     69       POPE     C32      CTL2    -0.220000       12.0110           0
      6767 MEMB     69       POPE     H2X      HAL2     0.900000E-01   1.00800           0
      6768 MEMB     69       POPE     H2Y      HAL2     0.900000E-01   1.00800           0
      6769 MEMB     69       POPE     C23      CTL2    -0.180000       12.0110           0
      6770 MEMB     69       POPE     H3R      HAL2     0.900000E-01   1.00800           0
      6771 MEMB     69       POPE     H3S      HAL2     0.900000E-01   1.00800           0
      6772 MEMB     69       POPE     C24      CTL2    -0.180000       12.0110           0
      6773 MEMB     69       POPE     H4R      HAL2     0.900000E-01   1.00800           0
      6774 MEMB     69       POPE     H4S      HAL2     0.900000E-01   1.00800           0
      6775 MEMB     69       POPE     C25      CTL2    -0.180000       12.0110           0
      6776 MEMB     69       POPE     H5R      HAL2     0.900000E-01   1.00800           0
      6777 MEMB     69       POPE     H5S      HAL2     0.900000E-01   1.00800           0
      6778 MEMB     69       POPE     C26      CTL2    -0.180000       12.0110           0
      6779 MEMB     69       POPE     H6R      HAL2     0.900000E-01   1.00800           0
      6780 MEMB     69       POPE     H6S      HAL2     0.900000E-01   1.00800           0
      6781 MEMB     69       POPE     C27      CTL2    -0.180000       12.0110           0
      6782 MEMB     69       POPE     H7R      HAL2     0.900000E-01   1.00800           0
      6783 MEMB     69       POPE     H7S      HAL2     0.900000E-01   1.00800           0
      6784 MEMB     69       POPE     C28      CTL2    -0.180000       12.0110           0
      6785 MEMB     69       POPE     H8R      HAL2     0.900000E-01   1.00800           0
      6786 MEMB     69       POPE     H8S      HAL2     0.900000E-01   1.00800           0
      6787 MEMB     69       POPE     C29      CEL1    -0.150000       12.0110           0
      6788 MEMB     69       POPE     H91      HEL1     0.150000       1.00800           0
      6789 MEMB     69       POPE     C210     CEL1    -0.150000       12.0110           0
      6790 MEMB     69       POPE     H101     HEL1     0.150000       1.00800           0
      6791 MEMB     69       POPE     C211     CTL2    -0.180000       12.0110           0
      6792 MEMB     69       POPE     H11R     HAL2     0.900000E-01   1.00800           0
      6793 MEMB     69       POPE     H11S     HAL2     0.900000E-01   1.00800           0
      6794 MEMB     69       POPE     C212     CTL2    -0.180000       12.0110           0
      6795 MEMB     69       POPE     H12R     HAL2     0.900000E-01   1.00800           0
      6796 MEMB     69       POPE     H12S     HAL2     0.900000E-01   1.00800           0
      6797 MEMB     69       POPE     C213     CTL2    -0.180000       12.0110           0
      6798 MEMB     69       POPE     H13R     HAL2     0.900000E-01   1.00800           0
      6799 MEMB     69       POPE     H13S     HAL2     0.900000E-01   1.00800           0
      6800 MEMB     69       POPE     C214     CTL2    -0.180000       12.0110           0
      6801 MEMB     69       POPE     H14R     HAL2     0.900000E-01   1.00800           0
      6802 MEMB     69       POPE     H14S     HAL2     0.900000E-01   1.00800           0
      6803 MEMB     69       POPE     C215     CTL2    -0.180000       12.0110           0
      6804 MEMB     69       POPE     H15R     HAL2     0.900000E-01   1.00800           0
      6805 MEMB     69       POPE     H15S     HAL2     0.900000E-01   1.00800           0
      6806 MEMB     69       POPE     C216     CTL2    -0.180000       12.0110           0
      6807 MEMB     69       POPE     H16R     HAL2     0.900000E-01   1.00800           0
      6808 MEMB     69       POPE     H16S     HAL2     0.900000E-01   1.00800           0
      6809 MEMB     69       POPE     C217     CTL2    -0.180000       12.0110           0
      6810 MEMB     69       POPE     H17R     HAL2     0.900000E-01   1.00800           0
      6811 MEMB     69       POPE     H17S     HAL2     0.900000E-01   1.00800           0
      6812 MEMB     69       POPE     C218     CTL3    -0.270000       12.0110           0
      6813 MEMB     69       POPE     H18R     HAL3     0.900000E-01   1.00800           0
      6814 MEMB     69       POPE     H18S     HAL3     0.900000E-01   1.00800           0
      6815 MEMB     69       POPE     H18T     HAL3     0.900000E-01   1.00800           0
      6816 MEMB     69       POPE     C33      CTL2    -0.180000       12.0110           0
      6817 MEMB     69       POPE     H3X      HAL2     0.900000E-01   1.00800           0
      6818 MEMB     69       POPE     H3Y      HAL2     0.900000E-01   1.00800           0
      6819 MEMB     69       POPE     C34      CTL2    -0.180000       12.0110           0
      6820 MEMB     69       POPE     H4X      HAL2     0.900000E-01   1.00800           0
      6821 MEMB     69       POPE     H4Y      HAL2     0.900000E-01   1.00800           0
      6822 MEMB     69       POPE     C35      CTL2    -0.180000       12.0110           0
      6823 MEMB     69       POPE     H5X      HAL2     0.900000E-01   1.00800           0
      6824 MEMB     69       POPE     H5Y      HAL2     0.900000E-01   1.00800           0
      6825 MEMB     69       POPE     C36      CTL2    -0.180000       12.0110           0
      6826 MEMB     69       POPE     H6X      HAL2     0.900000E-01   1.00800           0
      6827 MEMB     69       POPE     H6Y      HAL2     0.900000E-01   1.00800           0
      6828 MEMB     69       POPE     C37      CTL2    -0.180000       12.0110           0
      6829 MEMB     69       POPE     H7X      HAL2     0.900000E-01   1.00800           0
      6830 MEMB     69       POPE     H7Y      HAL2     0.900000E-01   1.00800           0
      6831 MEMB     69       POPE     C38      CTL2    -0.180000       12.0110           0
      6832 MEMB     69       POPE     H8X      HAL2     0.900000E-01   1.00800           0
      6833 MEMB     69       POPE     H8Y      HAL2     0.900000E-01   1.00800           0
      6834 MEMB     69       POPE     C39      CTL2    -0.180000       12.0110           0
      6835 MEMB     69       POPE     H9X      HAL2     0.900000E-01   1.00800           0
      6836 MEMB     69       POPE     H9Y      HAL2     0.900000E-01   1.00800           0
      6837 MEMB     69       POPE     C310     CTL2    -0.180000       12.0110           0
      6838 MEMB     69       POPE     H10X     HAL2     0.900000E-01   1.00800           0
      6839 MEMB     69       POPE     H10Y     HAL2     0.900000E-01   1.00800           0
      6840 MEMB     69       POPE     C311     CTL2    -0.180000       12.0110           0
      6841 MEMB     69       POPE     H11X     HAL2     0.900000E-01   1.00800           0
      6842 MEMB     69       POPE     H11Y     HAL2     0.900000E-01   1.00800           0
      6843 MEMB     69       POPE     C312     CTL2    -0.180000       12.0110           0
      6844 MEMB     69       POPE     H12X     HAL2     0.900000E-01   1.00800           0
      6845 MEMB     69       POPE     H12Y     HAL2     0.900000E-01   1.00800           0
      6846 MEMB     69       POPE     C313     CTL2    -0.180000       12.0110           0
      6847 MEMB     69       POPE     H13X     HAL2     0.900000E-01   1.00800           0
      6848 MEMB     69       POPE     H13Y     HAL2     0.900000E-01   1.00800           0
      6849 MEMB     69       POPE     C314     CTL2    -0.180000       12.0110           0
      6850 MEMB     69       POPE     H14X     HAL2     0.900000E-01   1.00800           0
      6851 MEMB     69       POPE     H14Y     HAL2     0.900000E-01   1.00800           0
      6852 MEMB     69       POPE     C315     CTL2    -0.180000       12.0110           0
      6853 MEMB     69       POPE     H15X     HAL2     0.900000E-01   1.00800           0
      6854 MEMB     69       POPE     H15Y     HAL2     0.900000E-01   1.00800           0
      6855 MEMB     69       POPE     C316     CTL3    -0.270000       12.0110           0
      6856 MEMB     69       POPE     H16X     HAL3     0.900000E-01   1.00800           0
      6857 MEMB     69       POPE     H16Y     HAL3     0.900000E-01   1.00800           0
      6858 MEMB     69       POPE     H16Z     HAL3     0.900000E-01   1.00800           0
      6859 MEMB     70       POPE     N        NH3L    -0.300000       14.0070           0
      6860 MEMB     70       POPE     HN1      HCL      0.330000       1.00800           0
      6861 MEMB     70       POPE     HN2      HCL      0.330000       1.00800           0
      6862 MEMB     70       POPE     HN3      HCL      0.330000       1.00800           0
      6863 MEMB     70       POPE     C12      CTL2     0.130000       12.0110           0
      6864 MEMB     70       POPE     H12A     HAL2     0.900000E-01   1.00800           0
      6865 MEMB     70       POPE     H12B     HAL2     0.900000E-01   1.00800           0
      6866 MEMB     70       POPE     C11      CTL2    -0.800000E-01   12.0110           0
      6867 MEMB     70       POPE     H11A     HAL2     0.900000E-01   1.00800           0
      6868 MEMB     70       POPE     H11B     HAL2     0.900000E-01   1.00800           0
      6869 MEMB     70       POPE     P        PL        1.50000       30.9740           0
      6870 MEMB     70       POPE     O13      O2L     -0.780000       15.9994           0
      6871 MEMB     70       POPE     O14      O2L     -0.780000       15.9994           0
      6872 MEMB     70       POPE     O11      OSLP    -0.570000       15.9994           0
      6873 MEMB     70       POPE     O12      OSLP    -0.570000       15.9994           0
      6874 MEMB     70       POPE     C1       CTL2    -0.800000E-01   12.0110           0
      6875 MEMB     70       POPE     HA       HAL2     0.900000E-01   1.00800           0
      6876 MEMB     70       POPE     HB       HAL2     0.900000E-01   1.00800           0
      6877 MEMB     70       POPE     C2       CTL1     0.170000       12.0110           0
      6878 MEMB     70       POPE     HS       HAL1     0.900000E-01   1.00800           0
      6879 MEMB     70       POPE     O21      OSL     -0.490000       15.9994           0
      6880 MEMB     70       POPE     C21      CL       0.900000       12.0110           0
      6881 MEMB     70       POPE     O22      OBL     -0.630000       15.9994           0
      6882 MEMB     70       POPE     C22      CTL2    -0.220000       12.0110           0
      6883 MEMB     70       POPE     H2R      HAL2     0.900000E-01   1.00800           0
      6884 MEMB     70       POPE     H2S      HAL2     0.900000E-01   1.00800           0
      6885 MEMB     70       POPE     C3       CTL2     0.800000E-01   12.0110           0
      6886 MEMB     70       POPE     HX       HAL2     0.900000E-01   1.00800           0
      6887 MEMB     70       POPE     HY       HAL2     0.900000E-01   1.00800           0
      6888 MEMB     70       POPE     O31      OSL     -0.490000       15.9994           0
      6889 MEMB     70       POPE     C31      CL       0.900000       12.0110           0
      6890 MEMB     70       POPE     O32      OBL     -0.630000       15.9994           0
      6891 MEMB     70       POPE     C32      CTL2    -0.220000       12.0110           0
      6892 MEMB     70       POPE     H2X      HAL2     0.900000E-01   1.00800           0
      6893 MEMB     70       POPE     H2Y      HAL2     0.900000E-01   1.00800           0
      6894 MEMB     70       POPE     C23      CTL2    -0.180000       12.0110           0
      6895 MEMB     70       POPE     H3R      HAL2     0.900000E-01   1.00800           0
      6896 MEMB     70       POPE     H3S      HAL2     0.900000E-01   1.00800           0
      6897 MEMB     70       POPE     C24      CTL2    -0.180000       12.0110           0
      6898 MEMB     70       POPE     H4R      HAL2     0.900000E-01   1.00800           0
      6899 MEMB     70       POPE     H4S      HAL2     0.900000E-01   1.00800           0
      6900 MEMB     70       POPE     C25      CTL2    -0.180000       12.0110           0
      6901 MEMB     70       POPE     H5R      HAL2     0.900000E-01   1.00800           0
      6902 MEMB     70       POPE     H5S      HAL2     0.900000E-01   1.00800           0
      6903 MEMB     70       POPE     C26      CTL2    -0.180000       12.0110           0
      6904 MEMB     70       POPE     H6R      HAL2     0.900000E-01   1.00800           0
      6905 MEMB     70       POPE     H6S      HAL2     0.900000E-01   1.00800           0
      6906 MEMB     70       POPE     C27      CTL2    -0.180000       12.0110           0
      6907 MEMB     70       POPE     H7R      HAL2     0.900000E-01   1.00800           0
      6908 MEMB     70       POPE     H7S      HAL2     0.900000E-01   1.00800           0
      6909 MEMB     70       POPE     C28      CTL2    -0.180000       12.0110           0
      6910 MEMB     70       POPE     H8R      HAL2     0.900000E-01   1.00800           0
      6911 MEMB     70       POPE     H8S      HAL2     0.900000E-01   1.00800           0
      6912 MEMB     70       POPE     C29      CEL1    -0.150000       12.0110           0
      6913 MEMB     70       POPE     H91      HEL1     0.150000       1.00800           0
      6914 MEMB     70       POPE     C210     CEL1    -0.150000       12.0110           0
      6915 MEMB     70       POPE     H101     HEL1     0.150000       1.00800           0
      6916 MEMB     70       POPE     C211     CTL2    -0.180000       12.0110           0
      6917 MEMB     70       POPE     H11R     HAL2     0.900000E-01   1.00800           0
      6918 MEMB     70       POPE     H11S     HAL2     0.900000E-01   1.00800           0
      6919 MEMB     70       POPE     C212     CTL2    -0.180000       12.0110           0
      6920 MEMB     70       POPE     H12R     HAL2     0.900000E-01   1.00800           0
      6921 MEMB     70       POPE     H12S     HAL2     0.900000E-01   1.00800           0
      6922 MEMB     70       POPE     C213     CTL2    -0.180000       12.0110           0
      6923 MEMB     70       POPE     H13R     HAL2     0.900000E-01   1.00800           0
      6924 MEMB     70       POPE     H13S     HAL2     0.900000E-01   1.00800           0
      6925 MEMB     70       POPE     C214     CTL2    -0.180000       12.0110           0
      6926 MEMB     70       POPE     H14R     HAL2     0.900000E-01   1.00800           0
      6927 MEMB     70       POPE     H14S     HAL2     0.900000E-01   1.00800           0
      6928 MEMB     70       POPE     C215     CTL2    -0.180000       12.0110           0
      6929 MEMB     70       POPE     H15R     HAL2     0.900000E-01   1.00800           0
      6930 MEMB     70       POPE     H15S     HAL2     0.900000E-01   1.00800           0
      6931 MEMB     70       POPE     C216     CTL2    -0.180000       12.0110           0
      6932 MEMB     70       POPE     H16R     HAL2     0.900000E-01   1.00800           0
      6933 MEMB     70       POPE     H16S     HAL2     0.900000E-01   1.00800           0
      6934 MEMB     70       POPE     C217     CTL2    -0.180000       12.0110           0
      6935 MEMB     70       POPE     H17R     HAL2     0.900000E-01   1.00800           0
      6936 MEMB     70       POPE     H17S     HAL2     0.900000E-01   1.00800           0
      6937 MEMB     70       POPE     C218     CTL3    -0.270000       12.0110           0
      6938 MEMB     70       POPE     H18R     HAL3     0.900000E-01   1.00800           0
      6939 MEMB     70       POPE     H18S     HAL3     0.900000E-01   1.00800           0
      6940 MEMB     70       POPE     H18T     HAL3     0.900000E-01   1.00800           0
      6941 MEMB     70       POPE     C33      CTL2    -0.180000       12.0110           0
      6942 MEMB     70       POPE     H3X      HAL2     0.900000E-01   1.00800           0
      6943 MEMB     70       POPE     H3Y      HAL2     0.900000E-01   1.00800           0
      6944 MEMB     70       POPE     C34      CTL2    -0.180000       12.0110           0
      6945 MEMB     70       POPE     H4X      HAL2     0.900000E-01   1.00800           0
      6946 MEMB     70       POPE     H4Y      HAL2     0.900000E-01   1.00800           0
      6947 MEMB     70       POPE     C35      CTL2    -0.180000       12.0110           0
      6948 MEMB     70       POPE     H5X      HAL2     0.900000E-01   1.00800           0
      6949 MEMB     70       POPE     H5Y      HAL2     0.900000E-01   1.00800           0
      6950 MEMB     70       POPE     C36      CTL2    -0.180000       12.0110           0
      6951 MEMB     70       POPE     H6X      HAL2     0.900000E-01   1.00800           0
      6952 MEMB     70       POPE     H6Y      HAL2     0.900000E-01   1.00800           0
      6953 MEMB     70       POPE     C37      CTL2    -0.180000       12.0110           0
      6954 MEMB     70       POPE     H7X      HAL2     0.900000E-01   1.00800           0
      6955 MEMB     70       POPE     H7Y      HAL2     0.900000E-01   1.00800           0
      6956 MEMB     70       POPE     C38      CTL2    -0.180000       12.0110           0
      6957 MEMB     70       POPE     H8X      HAL2     0.900000E-01   1.00800           0
      6958 MEMB     70       POPE     H8Y      HAL2     0.900000E-01   1.00800           0
      6959 MEMB     70       POPE     C39      CTL2    -0.180000       12.0110           0
      6960 MEMB     70       POPE     H9X      HAL2     0.900000E-01   1.00800           0
      6961 MEMB     70       POPE     H9Y      HAL2     0.900000E-01   1.00800           0
      6962 MEMB     70       POPE     C310     CTL2    -0.180000       12.0110           0
      6963 MEMB     70       POPE     H10X     HAL2     0.900000E-01   1.00800           0
      6964 MEMB     70       POPE     H10Y     HAL2     0.900000E-01   1.00800           0
      6965 MEMB     70       POPE     C311     CTL2    -0.180000       12.0110           0
      6966 MEMB     70       POPE     H11X     HAL2     0.900000E-01   1.00800           0
      6967 MEMB     70       POPE     H11Y     HAL2     0.900000E-01   1.00800           0
      6968 MEMB     70       POPE     C312     CTL2    -0.180000       12.0110           0
      6969 MEMB     70       POPE     H12X     HAL2     0.900000E-01   1.00800           0
      6970 MEMB     70       POPE     H12Y     HAL2     0.900000E-01   1.00800           0
      6971 MEMB     70       POPE     C313     CTL2    -0.180000       12.0110           0
      6972 MEMB     70       POPE     H13X     HAL2     0.900000E-01   1.00800           0
      6973 MEMB     70       POPE     H13Y     HAL2     0.900000E-01   1.00800           0
      6974 MEMB     70       POPE     C314     CTL2    -0.180000       12.0110           0
      6975 MEMB     70       POPE     H14X     HAL2     0.900000E-01   1.00800           0
      6976 MEMB     70       POPE     H14Y     HAL2     0.900000E-01   1.00800           0
      6977 MEMB     70       POPE     C315     CTL2    -0.180000       12.0110           0
      6978 MEMB     70       POPE     H15X     HAL2     0.900000E-01   1.00800           0
      6979 MEMB     70       POPE     H15Y     HAL2     0.900000E-01   1.00800           0
      6980 MEMB     70       POPE     C316     CTL3    -0.270000       12.0110           0
      6981 MEMB     70       POPE     H16X     HAL3     0.900000E-01   1.00800           0
      6982 MEMB     70       POPE     H16Y     HAL3     0.900000E-01   1.00800           0
      6983 MEMB     70       POPE     H16Z     HAL3     0.900000E-01   1.00800           0
      6984 MEMB     71       POPC     N        NTL     -0.600000       14.0070           0
      6985 MEMB     71       POPC     C12      CTL2    -0.100000       12.0110           0
      6986 MEMB     71       POPC     H12A     HL       0.250000       1.00800           0
      6987 MEMB     71       POPC     H12B     HL       0.250000       1.00800           0
      6988 MEMB     71       POPC     C13      CTL5    -0.350000       12.0110           0
      6989 MEMB     71       POPC     H13A     HL       0.250000       1.00800           0
      6990 MEMB     71       POPC     H13B     HL       0.250000       1.00800           0
      6991 MEMB     71       POPC     H13C     HL       0.250000       1.00800           0
      6992 MEMB     71       POPC     C14      CTL5    -0.350000       12.0110           0
      6993 MEMB     71       POPC     H14A     HL       0.250000       1.00800           0
      6994 MEMB     71       POPC     H14B     HL       0.250000       1.00800           0
      6995 MEMB     71       POPC     H14C     HL       0.250000       1.00800           0
      6996 MEMB     71       POPC     C15      CTL5    -0.350000       12.0110           0
      6997 MEMB     71       POPC     H15A     HL       0.250000       1.00800           0
      6998 MEMB     71       POPC     H15B     HL       0.250000       1.00800           0
      6999 MEMB     71       POPC     H15C     HL       0.250000       1.00800           0
      7000 MEMB     71       POPC     C11      CTL2    -0.800000E-01   12.0110           0
      7001 MEMB     71       POPC     H11A     HAL2     0.900000E-01   1.00800           0
      7002 MEMB     71       POPC     H11B     HAL2     0.900000E-01   1.00800           0
      7003 MEMB     71       POPC     P        PL        1.50000       30.9740           0
      7004 MEMB     71       POPC     O13      O2L     -0.780000       15.9994           0
      7005 MEMB     71       POPC     O14      O2L     -0.780000       15.9994           0
      7006 MEMB     71       POPC     O12      OSLP    -0.570000       15.9994           0
      7007 MEMB     71       POPC     O11      OSLP    -0.570000       15.9994           0
      7008 MEMB     71       POPC     C1       CTL2    -0.800000E-01   12.0110           0
      7009 MEMB     71       POPC     HA       HAL2     0.900000E-01   1.00800           0
      7010 MEMB     71       POPC     HB       HAL2     0.900000E-01   1.00800           0
      7011 MEMB     71       POPC     C2       CTL1     0.170000       12.0110           0
      7012 MEMB     71       POPC     HS       HAL1     0.900000E-01   1.00800           0
      7013 MEMB     71       POPC     O21      OSL     -0.490000       15.9994           0
      7014 MEMB     71       POPC     C21      CL       0.900000       12.0110           0
      7015 MEMB     71       POPC     O22      OBL     -0.630000       15.9994           0
      7016 MEMB     71       POPC     C22      CTL2    -0.220000       12.0110           0
      7017 MEMB     71       POPC     H2R      HAL2     0.900000E-01   1.00800           0
      7018 MEMB     71       POPC     H2S      HAL2     0.900000E-01   1.00800           0
      7019 MEMB     71       POPC     C3       CTL2     0.800000E-01   12.0110           0
      7020 MEMB     71       POPC     HX       HAL2     0.900000E-01   1.00800           0
      7021 MEMB     71       POPC     HY       HAL2     0.900000E-01   1.00800           0
      7022 MEMB     71       POPC     O31      OSL     -0.490000       15.9994           0
      7023 MEMB     71       POPC     C31      CL       0.900000       12.0110           0
      7024 MEMB     71       POPC     O32      OBL     -0.630000       15.9994           0
      7025 MEMB     71       POPC     C32      CTL2    -0.220000       12.0110           0
      7026 MEMB     71       POPC     H2X      HAL2     0.900000E-01   1.00800           0
      7027 MEMB     71       POPC     H2Y      HAL2     0.900000E-01   1.00800           0
      7028 MEMB     71       POPC     C23      CTL2    -0.180000       12.0110           0
      7029 MEMB     71       POPC     H3R      HAL2     0.900000E-01   1.00800           0
      7030 MEMB     71       POPC     H3S      HAL2     0.900000E-01   1.00800           0
      7031 MEMB     71       POPC     C24      CTL2    -0.180000       12.0110           0
      7032 MEMB     71       POPC     H4R      HAL2     0.900000E-01   1.00800           0
      7033 MEMB     71       POPC     H4S      HAL2     0.900000E-01   1.00800           0
      7034 MEMB     71       POPC     C25      CTL2    -0.180000       12.0110           0
      7035 MEMB     71       POPC     H5R      HAL2     0.900000E-01   1.00800           0
      7036 MEMB     71       POPC     H5S      HAL2     0.900000E-01   1.00800           0
      7037 MEMB     71       POPC     C26      CTL2    -0.180000       12.0110           0
      7038 MEMB     71       POPC     H6R      HAL2     0.900000E-01   1.00800           0
      7039 MEMB     71       POPC     H6S      HAL2     0.900000E-01   1.00800           0
      7040 MEMB     71       POPC     C27      CTL2    -0.180000       12.0110           0
      7041 MEMB     71       POPC     H7R      HAL2     0.900000E-01   1.00800           0
      7042 MEMB     71       POPC     H7S      HAL2     0.900000E-01   1.00800           0
      7043 MEMB     71       POPC     C28      CTL2    -0.180000       12.0110           0
      7044 MEMB     71       POPC     H8R      HAL2     0.900000E-01   1.00800           0
      7045 MEMB     71       POPC     H8S      HAL2     0.900000E-01   1.00800           0
      7046 MEMB     71       POPC     C29      CEL1    -0.150000       12.0110           0
      7047 MEMB     71       POPC     H91      HEL1     0.150000       1.00800           0
      7048 MEMB     71       POPC     C210     CEL1    -0.150000       12.0110           0
      7049 MEMB     71       POPC     H101     HEL1     0.150000       1.00800           0
      7050 MEMB     71       POPC     C211     CTL2    -0.180000       12.0110           0
      7051 MEMB     71       POPC     H11R     HAL2     0.900000E-01   1.00800           0
      7052 MEMB     71       POPC     H11S     HAL2     0.900000E-01   1.00800           0
      7053 MEMB     71       POPC     C212     CTL2    -0.180000       12.0110           0
      7054 MEMB     71       POPC     H12R     HAL2     0.900000E-01   1.00800           0
      7055 MEMB     71       POPC     H12S     HAL2     0.900000E-01   1.00800           0
      7056 MEMB     71       POPC     C213     CTL2    -0.180000       12.0110           0
      7057 MEMB     71       POPC     H13R     HAL2     0.900000E-01   1.00800           0
      7058 MEMB     71       POPC     H13S     HAL2     0.900000E-01   1.00800           0
      7059 MEMB     71       POPC     C214     CTL2    -0.180000       12.0110           0
      7060 MEMB     71       POPC     H14R     HAL2     0.900000E-01   1.00800           0
      7061 MEMB     71       POPC     H14S     HAL2     0.900000E-01   1.00800           0
      7062 MEMB     71       POPC     C215     CTL2    -0.180000       12.0110           0
      7063 MEMB     71       POPC     H15R     HAL2     0.900000E-01   1.00800           0
      7064 MEMB     71       POPC     H15S     HAL2     0.900000E-01   1.00800           0
      7065 MEMB     71       POPC     C216     CTL2    -0.180000       12.0110           0
      7066 MEMB     71       POPC     H16R     HAL2     0.900000E-01   1.00800           0
      7067 MEMB     71       POPC     H16S     HAL2     0.900000E-01   1.00800           0
      7068 MEMB     71       POPC     C217     CTL2    -0.180000       12.0110           0
      7069 MEMB     71       POPC     H17R     HAL2     0.900000E-01   1.00800           0
      7070 MEMB     71       POPC     H17S     HAL2     0.900000E-01   1.00800           0
      7071 MEMB     71       POPC     C218     CTL3    -0.270000       12.0110           0
      7072 MEMB     71       POPC     H18R     HAL3     0.900000E-01   1.00800           0
      7073 MEMB     71       POPC     H18S     HAL3     0.900000E-01   1.00800           0
      7074 MEMB     71       POPC     H18T     HAL3     0.900000E-01   1.00800           0
      7075 MEMB     71       POPC     C33      CTL2    -0.180000       12.0110           0
      7076 MEMB     71       POPC     H3X      HAL2     0.900000E-01   1.00800           0
      7077 MEMB     71       POPC     H3Y      HAL2     0.900000E-01   1.00800           0
      7078 MEMB     71       POPC     C34      CTL2    -0.180000       12.0110           0
      7079 MEMB     71       POPC     H4X      HAL2     0.900000E-01   1.00800           0
      7080 MEMB     71       POPC     H4Y      HAL2     0.900000E-01   1.00800           0
      7081 MEMB     71       POPC     C35      CTL2    -0.180000       12.0110           0
      7082 MEMB     71       POPC     H5X      HAL2     0.900000E-01   1.00800           0
      7083 MEMB     71       POPC     H5Y      HAL2     0.900000E-01   1.00800           0
      7084 MEMB     71       POPC     C36      CTL2    -0.180000       12.0110           0
      7085 MEMB     71       POPC     H6X      HAL2     0.900000E-01   1.00800           0
      7086 MEMB     71       POPC     H6Y      HAL2     0.900000E-01   1.00800           0
      7087 MEMB     71       POPC     C37      CTL2    -0.180000       12.0110           0
      7088 MEMB     71       POPC     H7X      HAL2     0.900000E-01   1.00800           0
      7089 MEMB     71       POPC     H7Y      HAL2     0.900000E-01   1.00800           0
      7090 MEMB     71       POPC     C38      CTL2    -0.180000       12.0110           0
      7091 MEMB     71       POPC     H8X      HAL2     0.900000E-01   1.00800           0
      7092 MEMB     71       POPC     H8Y      HAL2     0.900000E-01   1.00800           0
      7093 MEMB     71       POPC     C39      CTL2    -0.180000       12.0110           0
      7094 MEMB     71       POPC     H9X      HAL2     0.900000E-01   1.00800           0
      7095 MEMB     71       POPC     H9Y      HAL2     0.900000E-01   1.00800           0
      7096 MEMB     71       POPC     C310     CTL2    -0.180000       12.0110           0
      7097 MEMB     71       POPC     H10X     HAL2     0.900000E-01   1.00800           0
      7098 MEMB     71       POPC     H10Y     HAL2     0.900000E-01   1.00800           0
      7099 MEMB     71       POPC     C311     CTL2    -0.180000       12.0110           0
      7100 MEMB     71       POPC     H11X     HAL2     0.900000E-01   1.00800           0
      7101 MEMB     71       POPC     H11Y     HAL2     0.900000E-01   1.00800           0
      7102 MEMB     71       POPC     C312     CTL2    -0.180000       12.0110           0
      7103 MEMB     71       POPC     H12X     HAL2     0.900000E-01   1.00800           0
      7104 MEMB     71       POPC     H12Y     HAL2     0.900000E-01   1.00800           0
      7105 MEMB     71       POPC     C313     CTL2    -0.180000       12.0110           0
      7106 MEMB     71       POPC     H13X     HAL2     0.900000E-01   1.00800           0
      7107 MEMB     71       POPC     H13Y     HAL2     0.900000E-01   1.00800           0
      7108 MEMB     71       POPC     C314     CTL2    -0.180000       12.0110           0
      7109 MEMB     71       POPC     H14X     HAL2     0.900000E-01   1.00800           0
      7110 MEMB     71       POPC     H14Y     HAL2     0.900000E-01   1.00800           0
      7111 MEMB     71       POPC     C315     CTL2    -0.180000       12.0110           0
      7112 MEMB     71       POPC     H15X     HAL2     0.900000E-01   1.00800           0
      7113 MEMB     71       POPC     H15Y     HAL2     0.900000E-01   1.00800           0
      7114 MEMB     71       POPC     C316     CTL3    -0.270000       12.0110           0
      7115 MEMB     71       POPC     H16X     HAL3     0.900000E-01   1.00800           0
      7116 MEMB     71       POPC     H16Y     HAL3     0.900000E-01   1.00800           0
      7117 MEMB     71       POPC     H16Z     HAL3     0.900000E-01   1.00800           0
      7118 MEMB     72       POPE     N        NH3L    -0.300000       14.0070           0
      7119 MEMB     72       POPE     HN1      HCL      0.330000       1.00800           0
      7120 MEMB     72       POPE     HN2      HCL      0.330000       1.00800           0
      7121 MEMB     72       POPE     HN3      HCL      0.330000       1.00800           0
      7122 MEMB     72       POPE     C12      CTL2     0.130000       12.0110           0
      7123 MEMB     72       POPE     H12A     HAL2     0.900000E-01   1.00800           0
      7124 MEMB     72       POPE     H12B     HAL2     0.900000E-01   1.00800           0
      7125 MEMB     72       POPE     C11      CTL2    -0.800000E-01   12.0110           0
      7126 MEMB     72       POPE     H11A     HAL2     0.900000E-01   1.00800           0
      7127 MEMB     72       POPE     H11B     HAL2     0.900000E-01   1.00800           0
      7128 MEMB     72       POPE     P        PL        1.50000       30.9740           0
      7129 MEMB     72       POPE     O13      O2L     -0.780000       15.9994           0
      7130 MEMB     72       POPE     O14      O2L     -0.780000       15.9994           0
      7131 MEMB     72       POPE     O11      OSLP    -0.570000       15.9994           0
      7132 MEMB     72       POPE     O12      OSLP    -0.570000       15.9994           0
      7133 MEMB     72       POPE     C1       CTL2    -0.800000E-01   12.0110           0
      7134 MEMB     72       POPE     HA       HAL2     0.900000E-01   1.00800           0
      7135 MEMB     72       POPE     HB       HAL2     0.900000E-01   1.00800           0
      7136 MEMB     72       POPE     C2       CTL1     0.170000       12.0110           0
      7137 MEMB     72       POPE     HS       HAL1     0.900000E-01   1.00800           0
      7138 MEMB     72       POPE     O21      OSL     -0.490000       15.9994           0
      7139 MEMB     72       POPE     C21      CL       0.900000       12.0110           0
      7140 MEMB     72       POPE     O22      OBL     -0.630000       15.9994           0
      7141 MEMB     72       POPE     C22      CTL2    -0.220000       12.0110           0
      7142 MEMB     72       POPE     H2R      HAL2     0.900000E-01   1.00800           0
      7143 MEMB     72       POPE     H2S      HAL2     0.900000E-01   1.00800           0
      7144 MEMB     72       POPE     C3       CTL2     0.800000E-01   12.0110           0
      7145 MEMB     72       POPE     HX       HAL2     0.900000E-01   1.00800           0
      7146 MEMB     72       POPE     HY       HAL2     0.900000E-01   1.00800           0
      7147 MEMB     72       POPE     O31      OSL     -0.490000       15.9994           0
      7148 MEMB     72       POPE     C31      CL       0.900000       12.0110           0
      7149 MEMB     72       POPE     O32      OBL     -0.630000       15.9994           0
      7150 MEMB     72       POPE     C32      CTL2    -0.220000       12.0110           0
      7151 MEMB     72       POPE     H2X      HAL2     0.900000E-01   1.00800           0
      7152 MEMB     72       POPE     H2Y      HAL2     0.900000E-01   1.00800           0
      7153 MEMB     72       POPE     C23      CTL2    -0.180000       12.0110           0
      7154 MEMB     72       POPE     H3R      HAL2     0.900000E-01   1.00800           0
      7155 MEMB     72       POPE     H3S      HAL2     0.900000E-01   1.00800           0
      7156 MEMB     72       POPE     C24      CTL2    -0.180000       12.0110           0
      7157 MEMB     72       POPE     H4R      HAL2     0.900000E-01   1.00800           0
      7158 MEMB     72       POPE     H4S      HAL2     0.900000E-01   1.00800           0
      7159 MEMB     72       POPE     C25      CTL2    -0.180000       12.0110           0
      7160 MEMB     72       POPE     H5R      HAL2     0.900000E-01   1.00800           0
      7161 MEMB     72       POPE     H5S      HAL2     0.900000E-01   1.00800           0
      7162 MEMB     72       POPE     C26      CTL2    -0.180000       12.0110           0
      7163 MEMB     72       POPE     H6R      HAL2     0.900000E-01   1.00800           0
      7164 MEMB     72       POPE     H6S      HAL2     0.900000E-01   1.00800           0
      7165 MEMB     72       POPE     C27      CTL2    -0.180000       12.0110           0
      7166 MEMB     72       POPE     H7R      HAL2     0.900000E-01   1.00800           0
      7167 MEMB     72       POPE     H7S      HAL2     0.900000E-01   1.00800           0
      7168 MEMB     72       POPE     C28      CTL2    -0.180000       12.0110           0
      7169 MEMB     72       POPE     H8R      HAL2     0.900000E-01   1.00800           0
      7170 MEMB     72       POPE     H8S      HAL2     0.900000E-01   1.00800           0
      7171 MEMB     72       POPE     C29      CEL1    -0.150000       12.0110           0
      7172 MEMB     72       POPE     H91      HEL1     0.150000       1.00800           0
      7173 MEMB     72       POPE     C210     CEL1    -0.150000       12.0110           0
      7174 MEMB     72       POPE     H101     HEL1     0.150000       1.00800           0
      7175 MEMB     72       POPE     C211     CTL2    -0.180000       12.0110           0
      7176 MEMB     72       POPE     H11R     HAL2     0.900000E-01   1.00800           0
      7177 MEMB     72       POPE     H11S     HAL2     0.900000E-01   1.00800           0
      7178 MEMB     72       POPE     C212     CTL2    -0.180000       12.0110           0
      7179 MEMB     72       POPE     H12R     HAL2     0.900000E-01   1.00800           0
      7180 MEMB     72       POPE     H12S     HAL2     0.900000E-01   1.00800           0
      7181 MEMB     72       POPE     C213     CTL2    -0.180000       12.0110           0
      7182 MEMB     72       POPE     H13R     HAL2     0.900000E-01   1.00800           0
      7183 MEMB     72       POPE     H13S     HAL2     0.900000E-01   1.00800           0
      7184 MEMB     72       POPE     C214     CTL2    -0.180000       12.0110           0
      7185 MEMB     72       POPE     H14R     HAL2     0.900000E-01   1.00800           0
      7186 MEMB     72       POPE     H14S     HAL2     0.900000E-01   1.00800           0
      7187 MEMB     72       POPE     C215     CTL2    -0.180000       12.0110           0
      7188 MEMB     72       POPE     H15R     HAL2     0.900000E-01   1.00800           0
      7189 MEMB     72       POPE     H15S     HAL2     0.900000E-01   1.00800           0
      7190 MEMB     72       POPE     C216     CTL2    -0.180000       12.0110           0
      7191 MEMB     72       POPE     H16R     HAL2     0.900000E-01   1.00800           0
      7192 MEMB     72       POPE     H16S     HAL2     0.900000E-01   1.00800           0
      7193 MEMB     72       POPE     C217     CTL2    -0.180000       12.0110           0
      7194 MEMB     72       POPE     H17R     HAL2     0.900000E-01   1.00800           0
      7195 MEMB     72       POPE     H17S     HAL2     0.900000E-01   1.00800           0
      7196 MEMB     72       POPE     C218     CTL3    -0.270000       12.0110           0
      7197 MEMB     72       POPE     H18R     HAL3     0.900000E-01   1.00800           0
      7198 MEMB     72       POPE     H18S     HAL3     0.900000E-01   1.00800           0
      7199 MEMB     72       POPE     H18T     HAL3     0.900000E-01   1.00800           0
      7200 MEMB     72       POPE     C33      CTL2    -0.180000       12.0110           0
      7201 MEMB     72       POPE     H3X      HAL2     0.900000E-01   1.00800           0
      7202 MEMB     72       POPE     H3Y      HAL2     0.900000E-01   1.00800           0
      7203 MEMB     72       POPE     C34      CTL2    -0.180000       12.0110           0
      7204 MEMB     72       POPE     H4X      HAL2     0.900000E-01   1.00800           0
      7205 MEMB     72       POPE     H4Y      HAL2     0.900000E-01   1.00800           0
      7206 MEMB     72       POPE     C35      CTL2    -0.180000       12.0110           0
      7207 MEMB     72       POPE     H5X      HAL2     0.900000E-01   1.00800           0
      7208 MEMB     72       POPE     H5Y      HAL2     0.900000E-01   1.00800           0
      7209 MEMB     72       POPE     C36      CTL2    -0.180000       12.0110           0
      7210 MEMB     72       POPE     H6X      HAL2     0.900000E-01   1.00800           0
      7211 MEMB     72       POPE     H6Y      HAL2     0.900000E-01   1.00800           0
      7212 MEMB     72       POPE     C37      CTL2    -0.180000       12.0110           0
      7213 MEMB     72       POPE     H7X      HAL2     0.900000E-01   1.00800           0
      7214 MEMB     72       POPE     H7Y      HAL2     0.900000E-01   1.00800           0
      7215 MEMB     72       POPE     C38      CTL2    -0.180000       12.0110           0
      7216 MEMB     72       POPE     H8X      HAL2     0.900000E-01   1.00800           0
      7217 MEMB     72       POPE     H8Y      HAL2     0.900000E-01   1.00800           0
      7218 MEMB     72       POPE     C39      CTL2    -0.180000       12.0110           0
      7219 MEMB     72       POPE     H9X      HAL2     0.900000E-01   1.00800           0
      7220 MEMB     72       POPE     H9Y      HAL2     0.900000E-01   1.00800           0
      7221 MEMB     72       POPE     C310     CTL2    -0.180000       12.0110           0
      7222 MEMB     72       POPE     H10X     HAL2     0.900000E-01   1.00800           0
      7223 MEMB     72       POPE     H10Y     HAL2     0.900000E-01   1.00800           0
      7224 MEMB     72       POPE     C311     CTL2    -0.180000       12.0110           0
      7225 MEMB     72       POPE     H11X     HAL2     0.900000E-01   1.00800           0
      7226 MEMB     72       POPE     H11Y     HAL2     0.900000E-01   1.00800           0
      7227 MEMB     72       POPE     C312     CTL2    -0.180000       12.0110           0
      7228 MEMB     72       POPE     H12X     HAL2     0.900000E-01   1.00800           0
      7229 MEMB     72       POPE     H12Y     HAL2     0.900000E-01   1.00800           0
      7230 MEMB     72       POPE     C313     CTL2    -0.180000       12.0110           0
      7231 MEMB     72       POPE     H13X     HAL2     0.900000E-01   1.00800           0
      7232 MEMB     72       POPE     H13Y     HAL2     0.900000E-01   1.00800           0
      7233 MEMB     72       POPE     C314     CTL2    -0.180000       12.0110           0
      7234 MEMB     72       POPE     H14X     HAL2     0.900000E-01   1.00800           0
      7235 MEMB     72       POPE     H14Y     HAL2     0.900000E-01   1.00800           0
      7236 MEMB     72       POPE     C315     CTL2    -0.180000       12.0110           0
      7237 MEMB     72       POPE     H15X     HAL2     0.900000E-01   1.00800           0
      7238 MEMB     72       POPE     H15Y     HAL2     0.900000E-01   1.00800           0
      7239 MEMB     72       POPE     C316     CTL3    -0.270000       12.0110           0
      7240 MEMB     72       POPE     H16X     HAL3     0.900000E-01   1.00800           0
      7241 MEMB     72       POPE     H16Y     HAL3     0.900000E-01   1.00800           0
      7242 MEMB     72       POPE     H16Z     HAL3     0.900000E-01   1.00800           0
      7243 MEMB     73       POPC     N        NTL     -0.600000       14.0070           0
      7244 MEMB     73       POPC     C12      CTL2    -0.100000       12.0110           0
      7245 MEMB     73       POPC     H12A     HL       0.250000       1.00800           0
      7246 MEMB     73       POPC     H12B     HL       0.250000       1.00800           0
      7247 MEMB     73       POPC     C13      CTL5    -0.350000       12.0110           0
      7248 MEMB     73       POPC     H13A     HL       0.250000       1.00800           0
      7249 MEMB     73       POPC     H13B     HL       0.250000       1.00800           0
      7250 MEMB     73       POPC     H13C     HL       0.250000       1.00800           0
      7251 MEMB     73       POPC     C14      CTL5    -0.350000       12.0110           0
      7252 MEMB     73       POPC     H14A     HL       0.250000       1.00800           0
      7253 MEMB     73       POPC     H14B     HL       0.250000       1.00800           0
      7254 MEMB     73       POPC     H14C     HL       0.250000       1.00800           0
      7255 MEMB     73       POPC     C15      CTL5    -0.350000       12.0110           0
      7256 MEMB     73       POPC     H15A     HL       0.250000       1.00800           0
      7257 MEMB     73       POPC     H15B     HL       0.250000       1.00800           0
      7258 MEMB     73       POPC     H15C     HL       0.250000       1.00800           0
      7259 MEMB     73       POPC     C11      CTL2    -0.800000E-01   12.0110           0
      7260 MEMB     73       POPC     H11A     HAL2     0.900000E-01   1.00800           0
      7261 MEMB     73       POPC     H11B     HAL2     0.900000E-01   1.00800           0
      7262 MEMB     73       POPC     P        PL        1.50000       30.9740           0
      7263 MEMB     73       POPC     O13      O2L     -0.780000       15.9994           0
      7264 MEMB     73       POPC     O14      O2L     -0.780000       15.9994           0
      7265 MEMB     73       POPC     O12      OSLP    -0.570000       15.9994           0
      7266 MEMB     73       POPC     O11      OSLP    -0.570000       15.9994           0
      7267 MEMB     73       POPC     C1       CTL2    -0.800000E-01   12.0110           0
      7268 MEMB     73       POPC     HA       HAL2     0.900000E-01   1.00800           0
      7269 MEMB     73       POPC     HB       HAL2     0.900000E-01   1.00800           0
      7270 MEMB     73       POPC     C2       CTL1     0.170000       12.0110           0
      7271 MEMB     73       POPC     HS       HAL1     0.900000E-01   1.00800           0
      7272 MEMB     73       POPC     O21      OSL     -0.490000       15.9994           0
      7273 MEMB     73       POPC     C21      CL       0.900000       12.0110           0
      7274 MEMB     73       POPC     O22      OBL     -0.630000       15.9994           0
      7275 MEMB     73       POPC     C22      CTL2    -0.220000       12.0110           0
      7276 MEMB     73       POPC     H2R      HAL2     0.900000E-01   1.00800           0
      7277 MEMB     73       POPC     H2S      HAL2     0.900000E-01   1.00800           0
      7278 MEMB     73       POPC     C3       CTL2     0.800000E-01   12.0110           0
      7279 MEMB     73       POPC     HX       HAL2     0.900000E-01   1.00800           0
      7280 MEMB     73       POPC     HY       HAL2     0.900000E-01   1.00800           0
      7281 MEMB     73       POPC     O31      OSL     -0.490000       15.9994           0
      7282 MEMB     73       POPC     C31      CL       0.900000       12.0110           0
      7283 MEMB     73       POPC     O32      OBL     -0.630000       15.9994           0
      7284 MEMB     73       POPC     C32      CTL2    -0.220000       12.0110           0
      7285 MEMB     73       POPC     H2X      HAL2     0.900000E-01   1.00800           0
      7286 MEMB     73       POPC     H2Y      HAL2     0.900000E-01   1.00800           0
      7287 MEMB     73       POPC     C23      CTL2    -0.180000       12.0110           0
      7288 MEMB     73       POPC     H3R      HAL2     0.900000E-01   1.00800           0
      7289 MEMB     73       POPC     H3S      HAL2     0.900000E-01   1.00800           0
      7290 MEMB     73       POPC     C24      CTL2    -0.180000       12.0110           0
      7291 MEMB     73       POPC     H4R      HAL2     0.900000E-01   1.00800           0
      7292 MEMB     73       POPC     H4S      HAL2     0.900000E-01   1.00800           0
      7293 MEMB     73       POPC     C25      CTL2    -0.180000       12.0110           0
      7294 MEMB     73       POPC     H5R      HAL2     0.900000E-01   1.00800           0
      7295 MEMB     73       POPC     H5S      HAL2     0.900000E-01   1.00800           0
      7296 MEMB     73       POPC     C26      CTL2    -0.180000       12.0110           0
      7297 MEMB     73       POPC     H6R      HAL2     0.900000E-01   1.00800           0
      7298 MEMB     73       POPC     H6S      HAL2     0.900000E-01   1.00800           0
      7299 MEMB     73       POPC     C27      CTL2    -0.180000       12.0110           0
      7300 MEMB     73       POPC     H7R      HAL2     0.900000E-01   1.00800           0
      7301 MEMB     73       POPC     H7S      HAL2     0.900000E-01   1.00800           0
      7302 MEMB     73       POPC     C28      CTL2    -0.180000       12.0110           0
      7303 MEMB     73       POPC     H8R      HAL2     0.900000E-01   1.00800           0
      7304 MEMB     73       POPC     H8S      HAL2     0.900000E-01   1.00800           0
      7305 MEMB     73       POPC     C29      CEL1    -0.150000       12.0110           0
      7306 MEMB     73       POPC     H91      HEL1     0.150000       1.00800           0
      7307 MEMB     73       POPC     C210     CEL1    -0.150000       12.0110           0
      7308 MEMB     73       POPC     H101     HEL1     0.150000       1.00800           0
      7309 MEMB     73       POPC     C211     CTL2    -0.180000       12.0110           0
      7310 MEMB     73       POPC     H11R     HAL2     0.900000E-01   1.00800           0
      7311 MEMB     73       POPC     H11S     HAL2     0.900000E-01   1.00800           0
      7312 MEMB     73       POPC     C212     CTL2    -0.180000       12.0110           0
      7313 MEMB     73       POPC     H12R     HAL2     0.900000E-01   1.00800           0
      7314 MEMB     73       POPC     H12S     HAL2     0.900000E-01   1.00800           0
      7315 MEMB     73       POPC     C213     CTL2    -0.180000       12.0110           0
      7316 MEMB     73       POPC     H13R     HAL2     0.900000E-01   1.00800           0
      7317 MEMB     73       POPC     H13S     HAL2     0.900000E-01   1.00800           0
      7318 MEMB     73       POPC     C214     CTL2    -0.180000       12.0110           0
      7319 MEMB     73       POPC     H14R     HAL2     0.900000E-01   1.00800           0
      7320 MEMB     73       POPC     H14S     HAL2     0.900000E-01   1.00800           0
      7321 MEMB     73       POPC     C215     CTL2    -0.180000       12.0110           0
      7322 MEMB     73       POPC     H15R     HAL2     0.900000E-01   1.00800           0
      7323 MEMB     73       POPC     H15S     HAL2     0.900000E-01   1.00800           0
      7324 MEMB     73       POPC     C216     CTL2    -0.180000       12.0110           0
      7325 MEMB     73       POPC     H16R     HAL2     0.900000E-01   1.00800           0
      7326 MEMB     73       POPC     H16S     HAL2     0.900000E-01   1.00800           0
      7327 MEMB     73       POPC     C217     CTL2    -0.180000       12.0110           0
      7328 MEMB     73       POPC     H17R     HAL2     0.900000E-01   1.00800           0
      7329 MEMB     73       POPC     H17S     HAL2     0.900000E-01   1.00800           0
      7330 MEMB     73       POPC     C218     CTL3    -0.270000       12.0110           0
      7331 MEMB     73       POPC     H18R     HAL3     0.900000E-01   1.00800           0
      7332 MEMB     73       POPC     H18S     HAL3     0.900000E-01   1.00800           0
      7333 MEMB     73       POPC     H18T     HAL3     0.900000E-01   1.00800           0
      7334 MEMB     73       POPC     C33      CTL2    -0.180000       12.0110           0
      7335 MEMB     73       POPC     H3X      HAL2     0.900000E-01   1.00800           0
      7336 MEMB     73       POPC     H3Y      HAL2     0.900000E-01   1.00800           0
      7337 MEMB     73       POPC     C34      CTL2    -0.180000       12.0110           0
      7338 MEMB     73       POPC     H4X      HAL2     0.900000E-01   1.00800           0
      7339 MEMB     73       POPC     H4Y      HAL2     0.900000E-01   1.00800           0
      7340 MEMB     73       POPC     C35      CTL2    -0.180000       12.0110           0
      7341 MEMB     73       POPC     H5X      HAL2     0.900000E-01   1.00800           0
      7342 MEMB     73       POPC     H5Y      HAL2     0.900000E-01   1.00800           0
      7343 MEMB     73       POPC     C36      CTL2    -0.180000       12.0110           0
      7344 MEMB     73       POPC     H6X      HAL2     0.900000E-01   1.00800           0
      7345 MEMB     73       POPC     H6Y      HAL2     0.900000E-01   1.00800           0
      7346 MEMB     73       POPC     C37      CTL2    -0.180000       12.0110           0
      7347 MEMB     73       POPC     H7X      HAL2     0.900000E-01   1.00800           0
      7348 MEMB     73       POPC     H7Y      HAL2     0.900000E-01   1.00800           0
      7349 MEMB     73       POPC     C38      CTL2    -0.180000       12.0110           0
      7350 MEMB     73       POPC     H8X      HAL2     0.900000E-01   1.00800           0
      7351 MEMB     73       POPC     H8Y      HAL2     0.900000E-01   1.00800           0
      7352 MEMB     73       POPC     C39      CTL2    -0.180000       12.0110           0
      7353 MEMB     73       POPC     H9X      HAL2     0.900000E-01   1.00800           0
      7354 MEMB     73       POPC     H9Y      HAL2     0.900000E-01   1.00800           0
      7355 MEMB     73       POPC     C310     CTL2    -0.180000       12.0110           0
      7356 MEMB     73       POPC     H10X     HAL2     0.900000E-01   1.00800           0
      7357 MEMB     73       POPC     H10Y     HAL2     0.900000E-01   1.00800           0
      7358 MEMB     73       POPC     C311     CTL2    -0.180000       12.0110           0
      7359 MEMB     73       POPC     H11X     HAL2     0.900000E-01   1.00800           0
      7360 MEMB     73       POPC     H11Y     HAL2     0.900000E-01   1.00800           0
      7361 MEMB     73       POPC     C312     CTL2    -0.180000       12.0110           0
      7362 MEMB     73       POPC     H12X     HAL2     0.900000E-01   1.00800           0
      7363 MEMB     73       POPC     H12Y     HAL2     0.900000E-01   1.00800           0
      7364 MEMB     73       POPC     C313     CTL2    -0.180000       12.0110           0
      7365 MEMB     73       POPC     H13X     HAL2     0.900000E-01   1.00800           0
      7366 MEMB     73       POPC     H13Y     HAL2     0.900000E-01   1.00800           0
      7367 MEMB     73       POPC     C314     CTL2    -0.180000       12.0110           0
      7368 MEMB     73       POPC     H14X     HAL2     0.900000E-01   1.00800           0
      7369 MEMB     73       POPC     H14Y     HAL2     0.900000E-01   1.00800           0
      7370 MEMB     73       POPC     C315     CTL2    -0.180000       12.0110           0
      7371 MEMB     73       POPC     H15X     HAL2     0.900000E-01   1.00800           0
      7372 MEMB     73       POPC     H15Y     HAL2     0.900000E-01   1.00800           0
      7373 MEMB     73       POPC     C316     CTL3    -0.270000       12.0110           0
      7374 MEMB     73       POPC     H16X     HAL3     0.900000E-01   1.00800           0
      7375 MEMB     73       POPC     H16Y     HAL3     0.900000E-01   1.00800           0
      7376 MEMB     73       POPC     H16Z     HAL3     0.900000E-01   1.00800           0
      7377 MEMB     74       POPC     N        NTL     -0.600000       14.0070           0
      7378 MEMB     74       POPC     C12      CTL2    -0.100000       12.0110           0
      7379 MEMB     74       POPC     H12A     HL       0.250000       1.00800           0
      7380 MEMB     74       POPC     H12B     HL       0.250000       1.00800           0
      7381 MEMB     74       POPC     C13      CTL5    -0.350000       12.0110           0
      7382 MEMB     74       POPC     H13A     HL       0.250000       1.00800           0
      7383 MEMB     74       POPC     H13B     HL       0.250000       1.00800           0
      7384 MEMB     74       POPC     H13C     HL       0.250000       1.00800           0
      7385 MEMB     74       POPC     C14      CTL5    -0.350000       12.0110           0
      7386 MEMB     74       POPC     H14A     HL       0.250000       1.00800           0
      7387 MEMB     74       POPC     H14B     HL       0.250000       1.00800           0
      7388 MEMB     74       POPC     H14C     HL       0.250000       1.00800           0
      7389 MEMB     74       POPC     C15      CTL5    -0.350000       12.0110           0
      7390 MEMB     74       POPC     H15A     HL       0.250000       1.00800           0
      7391 MEMB     74       POPC     H15B     HL       0.250000       1.00800           0
      7392 MEMB     74       POPC     H15C     HL       0.250000       1.00800           0
      7393 MEMB     74       POPC     C11      CTL2    -0.800000E-01   12.0110           0
      7394 MEMB     74       POPC     H11A     HAL2     0.900000E-01   1.00800           0
      7395 MEMB     74       POPC     H11B     HAL2     0.900000E-01   1.00800           0
      7396 MEMB     74       POPC     P        PL        1.50000       30.9740           0
      7397 MEMB     74       POPC     O13      O2L     -0.780000       15.9994           0
      7398 MEMB     74       POPC     O14      O2L     -0.780000       15.9994           0
      7399 MEMB     74       POPC     O12      OSLP    -0.570000       15.9994           0
      7400 MEMB     74       POPC     O11      OSLP    -0.570000       15.9994           0
      7401 MEMB     74       POPC     C1       CTL2    -0.800000E-01   12.0110           0
      7402 MEMB     74       POPC     HA       HAL2     0.900000E-01   1.00800           0
      7403 MEMB     74       POPC     HB       HAL2     0.900000E-01   1.00800           0
      7404 MEMB     74       POPC     C2       CTL1     0.170000       12.0110           0
      7405 MEMB     74       POPC     HS       HAL1     0.900000E-01   1.00800           0
      7406 MEMB     74       POPC     O21      OSL     -0.490000       15.9994           0
      7407 MEMB     74       POPC     C21      CL       0.900000       12.0110           0
      7408 MEMB     74       POPC     O22      OBL     -0.630000       15.9994           0
      7409 MEMB     74       POPC     C22      CTL2    -0.220000       12.0110           0
      7410 MEMB     74       POPC     H2R      HAL2     0.900000E-01   1.00800           0
      7411 MEMB     74       POPC     H2S      HAL2     0.900000E-01   1.00800           0
      7412 MEMB     74       POPC     C3       CTL2     0.800000E-01   12.0110           0
      7413 MEMB     74       POPC     HX       HAL2     0.900000E-01   1.00800           0
      7414 MEMB     74       POPC     HY       HAL2     0.900000E-01   1.00800           0
      7415 MEMB     74       POPC     O31      OSL     -0.490000       15.9994           0
      7416 MEMB     74       POPC     C31      CL       0.900000       12.0110           0
      7417 MEMB     74       POPC     O32      OBL     -0.630000       15.9994           0
      7418 MEMB     74       POPC     C32      CTL2    -0.220000       12.0110           0
      7419 MEMB     74       POPC     H2X      HAL2     0.900000E-01   1.00800           0
      7420 MEMB     74       POPC     H2Y      HAL2     0.900000E-01   1.00800           0
      7421 MEMB     74       POPC     C23      CTL2    -0.180000       12.0110           0
      7422 MEMB     74       POPC     H3R      HAL2     0.900000E-01   1.00800           0
      7423 MEMB     74       POPC     H3S      HAL2     0.900000E-01   1.00800           0
      7424 MEMB     74       POPC     C24      CTL2    -0.180000       12.0110           0
      7425 MEMB     74       POPC     H4R      HAL2     0.900000E-01   1.00800           0
      7426 MEMB     74       POPC     H4S      HAL2     0.900000E-01   1.00800           0
      7427 MEMB     74       POPC     C25      CTL2    -0.180000       12.0110           0
      7428 MEMB     74       POPC     H5R      HAL2     0.900000E-01   1.00800           0
      7429 MEMB     74       POPC     H5S      HAL2     0.900000E-01   1.00800           0
      7430 MEMB     74       POPC     C26      CTL2    -0.180000       12.0110           0
      7431 MEMB     74       POPC     H6R      HAL2     0.900000E-01   1.00800           0
      7432 MEMB     74       POPC     H6S      HAL2     0.900000E-01   1.00800           0
      7433 MEMB     74       POPC     C27      CTL2    -0.180000       12.0110           0
      7434 MEMB     74       POPC     H7R      HAL2     0.900000E-01   1.00800           0
      7435 MEMB     74       POPC     H7S      HAL2     0.900000E-01   1.00800           0
      7436 MEMB     74       POPC     C28      CTL2    -0.180000       12.0110           0
      7437 MEMB     74       POPC     H8R      HAL2     0.900000E-01   1.00800           0
      7438 MEMB     74       POPC     H8S      HAL2     0.900000E-01   1.00800           0
      7439 MEMB     74       POPC     C29      CEL1    -0.150000       12.0110           0
      7440 MEMB     74       POPC     H91      HEL1     0.150000       1.00800           0
      7441 MEMB     74       POPC     C210     CEL1    -0.150000       12.0110           0
      7442 MEMB     74       POPC     H101     HEL1     0.150000       1.00800           0
      7443 MEMB     74       POPC     C211     CTL2    -0.180000       12.0110           0
      7444 MEMB     74       POPC     H11R     HAL2     0.900000E-01   1.00800           0
      7445 MEMB     74       POPC     H11S     HAL2     0.900000E-01   1.00800           0
      7446 MEMB     74       POPC     C212     CTL2    -0.180000       12.0110           0
      7447 MEMB     74       POPC     H12R     HAL2     0.900000E-01   1.00800           0
      7448 MEMB     74       POPC     H12S     HAL2     0.900000E-01   1.00800           0
      7449 MEMB     74       POPC     C213     CTL2    -0.180000       12.0110           0
      7450 MEMB     74       POPC     H13R     HAL2     0.900000E-01   1.00800           0
      7451 MEMB     74       POPC     H13S     HAL2     0.900000E-01   1.00800           0
      7452 MEMB     74       POPC     C214     CTL2    -0.180000       12.0110           0
      7453 MEMB     74       POPC     H14R     HAL2     0.900000E-01   1.00800           0
      7454 MEMB     74       POPC     H14S     HAL2     0.900000E-01   1.00800           0
      7455 MEMB     74       POPC     C215     CTL2    -0.180000       12.0110           0
      7456 MEMB     74       POPC     H15R     HAL2     0.900000E-01   1.00800           0
      7457 MEMB     74       POPC     H15S     HAL2     0.900000E-01   1.00800           0
      7458 MEMB     74       POPC     C216     CTL2    -0.180000       12.0110           0
      7459 MEMB     74       POPC     H16R     HAL2     0.900000E-01   1.00800           0
      7460 MEMB     74       POPC     H16S     HAL2     0.900000E-01   1.00800           0
      7461 MEMB     74       POPC     C217     CTL2    -0.180000       12.0110           0
      7462 MEMB     74       POPC     H17R     HAL2     0.900000E-01   1.00800           0
      7463 MEMB     74       POPC     H17S     HAL2     0.900000E-01   1.00800           0
      7464 MEMB     74       POPC     C218     CTL3    -0.270000       12.0110           0
      7465 MEMB     74       POPC     H18R     HAL3     0.900000E-01   1.00800           0
      7466 MEMB     74       POPC     H18S     HAL3     0.900000E-01   1.00800           0
      7467 MEMB     74       POPC     H18T     HAL3     0.900000E-01   1.00800           0
      7468 MEMB     74       POPC     C33      CTL2    -0.180000       12.0110           0
      7469 MEMB     74       POPC     H3X      HAL2     0.900000E-01   1.00800           0
      7470 MEMB     74       POPC     H3Y      HAL2     0.900000E-01   1.00800           0
      7471 MEMB     74       POPC     C34      CTL2    -0.180000       12.0110           0
      7472 MEMB     74       POPC     H4X      HAL2     0.900000E-01   1.00800           0
      7473 MEMB     74       POPC     H4Y      HAL2     0.900000E-01   1.00800           0
      7474 MEMB     74       POPC     C35      CTL2    -0.180000       12.0110           0
      7475 MEMB     74       POPC     H5X      HAL2     0.900000E-01   1.00800           0
      7476 MEMB     74       POPC     H5Y      HAL2     0.900000E-01   1.00800           0
      7477 MEMB     74       POPC     C36      CTL2    -0.180000       12.0110           0
      7478 MEMB     74       POPC     H6X      HAL2     0.900000E-01   1.00800           0
      7479 MEMB     74       POPC     H6Y      HAL2     0.900000E-01   1.00800           0
      7480 MEMB     74       POPC     C37      CTL2    -0.180000       12.0110           0
      7481 MEMB     74       POPC     H7X      HAL2     0.900000E-01   1.00800           0
      7482 MEMB     74       POPC     H7Y      HAL2     0.900000E-01   1.00800           0
      7483 MEMB     74       POPC     C38      CTL2    -0.180000       12.0110           0
      7484 MEMB     74       POPC     H8X      HAL2     0.900000E-01   1.00800           0
      7485 MEMB     74       POPC     H8Y      HAL2     0.900000E-01   1.00800           0
      7486 MEMB     74       POPC     C39      CTL2    -0.180000       12.0110           0
      7487 MEMB     74       POPC     H9X      HAL2     0.900000E-01   1.00800           0
      7488 MEMB     74       POPC     H9Y      HAL2     0.900000E-01   1.00800           0
      7489 MEMB     74       POPC     C310     CTL2    -0.180000       12.0110           0
      7490 MEMB     74       POPC     H10X     HAL2     0.900000E-01   1.00800           0
      7491 MEMB     74       POPC     H10Y     HAL2     0.900000E-01   1.00800           0
      7492 MEMB     74       POPC     C311     CTL2    -0.180000       12.0110           0
      7493 MEMB     74       POPC     H11X     HAL2     0.900000E-01   1.00800           0
      7494 MEMB     74       POPC     H11Y     HAL2     0.900000E-01   1.00800           0
      7495 MEMB     74       POPC     C312     CTL2    -0.180000       12.0110           0
      7496 MEMB     74       POPC     H12X     HAL2     0.900000E-01   1.00800           0
      7497 MEMB     74       POPC     H12Y     HAL2     0.900000E-01   1.00800           0
      7498 MEMB     74       POPC     C313     CTL2    -0.180000       12.0110           0
      7499 MEMB     74       POPC     H13X     HAL2     0.900000E-01   1.00800           0
      7500 MEMB     74       POPC     H13Y     HAL2     0.900000E-01   1.00800           0
      7501 MEMB     74       POPC     C314     CTL2    -0.180000       12.0110           0
      7502 MEMB     74       POPC     H14X     HAL2     0.900000E-01   1.00800           0
      7503 MEMB     74       POPC     H14Y     HAL2     0.900000E-01   1.00800           0
      7504 MEMB     74       POPC     C315     CTL2    -0.180000       12.0110           0
      7505 MEMB     74       POPC     H15X     HAL2     0.900000E-01   1.00800           0
      7506 MEMB     74       POPC     H15Y     HAL2     0.900000E-01   1.00800           0
      7507 MEMB     74       POPC     C316     CTL3    -0.270000       12.0110           0
      7508 MEMB     74       POPC     H16X     HAL3     0.900000E-01   1.00800           0
      7509 MEMB     74       POPC     H16Y     HAL3     0.900000E-01   1.00800           0
      7510 MEMB     74       POPC     H16Z     HAL3     0.900000E-01   1.00800           0
      7511 MEMB     75       POPC     N        NTL     -0.600000       14.0070           0
      7512 MEMB     75       POPC     C12      CTL2    -0.100000       12.0110           0
      7513 MEMB     75       POPC     H12A     HL       0.250000       1.00800           0
      7514 MEMB     75       POPC     H12B     HL       0.250000       1.00800           0
      7515 MEMB     75       POPC     C13      CTL5    -0.350000       12.0110           0
      7516 MEMB     75       POPC     H13A     HL       0.250000       1.00800           0
      7517 MEMB     75       POPC     H13B     HL       0.250000       1.00800           0
      7518 MEMB     75       POPC     H13C     HL       0.250000       1.00800           0
      7519 MEMB     75       POPC     C14      CTL5    -0.350000       12.0110           0
      7520 MEMB     75       POPC     H14A     HL       0.250000       1.00800           0
      7521 MEMB     75       POPC     H14B     HL       0.250000       1.00800           0
      7522 MEMB     75       POPC     H14C     HL       0.250000       1.00800           0
      7523 MEMB     75       POPC     C15      CTL5    -0.350000       12.0110           0
      7524 MEMB     75       POPC     H15A     HL       0.250000       1.00800           0
      7525 MEMB     75       POPC     H15B     HL       0.250000       1.00800           0
      7526 MEMB     75       POPC     H15C     HL       0.250000       1.00800           0
      7527 MEMB     75       POPC     C11      CTL2    -0.800000E-01   12.0110           0
      7528 MEMB     75       POPC     H11A     HAL2     0.900000E-01   1.00800           0
      7529 MEMB     75       POPC     H11B     HAL2     0.900000E-01   1.00800           0
      7530 MEMB     75       POPC     P        PL        1.50000       30.9740           0
      7531 MEMB     75       POPC     O13      O2L     -0.780000       15.9994           0
      7532 MEMB     75       POPC     O14      O2L     -0.780000       15.9994           0
      7533 MEMB     75       POPC     O12      OSLP    -0.570000       15.9994           0
      7534 MEMB     75       POPC     O11      OSLP    -0.570000       15.9994           0
      7535 MEMB     75       POPC     C1       CTL2    -0.800000E-01   12.0110           0
      7536 MEMB     75       POPC     HA       HAL2     0.900000E-01   1.00800           0
      7537 MEMB     75       POPC     HB       HAL2     0.900000E-01   1.00800           0
      7538 MEMB     75       POPC     C2       CTL1     0.170000       12.0110           0
      7539 MEMB     75       POPC     HS       HAL1     0.900000E-01   1.00800           0
      7540 MEMB     75       POPC     O21      OSL     -0.490000       15.9994           0
      7541 MEMB     75       POPC     C21      CL       0.900000       12.0110           0
      7542 MEMB     75       POPC     O22      OBL     -0.630000       15.9994           0
      7543 MEMB     75       POPC     C22      CTL2    -0.220000       12.0110           0
      7544 MEMB     75       POPC     H2R      HAL2     0.900000E-01   1.00800           0
      7545 MEMB     75       POPC     H2S      HAL2     0.900000E-01   1.00800           0
      7546 MEMB     75       POPC     C3       CTL2     0.800000E-01   12.0110           0
      7547 MEMB     75       POPC     HX       HAL2     0.900000E-01   1.00800           0
      7548 MEMB     75       POPC     HY       HAL2     0.900000E-01   1.00800           0
      7549 MEMB     75       POPC     O31      OSL     -0.490000       15.9994           0
      7550 MEMB     75       POPC     C31      CL       0.900000       12.0110           0
      7551 MEMB     75       POPC     O32      OBL     -0.630000       15.9994           0
      7552 MEMB     75       POPC     C32      CTL2    -0.220000       12.0110           0
      7553 MEMB     75       POPC     H2X      HAL2     0.900000E-01   1.00800           0
      7554 MEMB     75       POPC     H2Y      HAL2     0.900000E-01   1.00800           0
      7555 MEMB     75       POPC     C23      CTL2    -0.180000       12.0110           0
      7556 MEMB     75       POPC     H3R      HAL2     0.900000E-01   1.00800           0
      7557 MEMB     75       POPC     H3S      HAL2     0.900000E-01   1.00800           0
      7558 MEMB     75       POPC     C24      CTL2    -0.180000       12.0110           0
      7559 MEMB     75       POPC     H4R      HAL2     0.900000E-01   1.00800           0
      7560 MEMB     75       POPC     H4S      HAL2     0.900000E-01   1.00800           0
      7561 MEMB     75       POPC     C25      CTL2    -0.180000       12.0110           0
      7562 MEMB     75       POPC     H5R      HAL2     0.900000E-01   1.00800           0
      7563 MEMB     75       POPC     H5S      HAL2     0.900000E-01   1.00800           0
      7564 MEMB     75       POPC     C26      CTL2    -0.180000       12.0110           0
      7565 MEMB     75       POPC     H6R      HAL2     0.900000E-01   1.00800           0
      7566 MEMB     75       POPC     H6S      HAL2     0.900000E-01   1.00800           0
      7567 MEMB     75       POPC     C27      CTL2    -0.180000       12.0110           0
      7568 MEMB     75       POPC     H7R      HAL2     0.900000E-01   1.00800           0
      7569 MEMB     75       POPC     H7S      HAL2     0.900000E-01   1.00800           0
      7570 MEMB     75       POPC     C28      CTL2    -0.180000       12.0110           0
      7571 MEMB     75       POPC     H8R      HAL2     0.900000E-01   1.00800           0
      7572 MEMB     75       POPC     H8S      HAL2     0.900000E-01   1.00800           0
      7573 MEMB     75       POPC     C29      CEL1    -0.150000       12.0110           0
      7574 MEMB     75       POPC     H91      HEL1     0.150000       1.00800           0
      7575 MEMB     75       POPC     C210     CEL1    -0.150000       12.0110           0
      7576 MEMB     75       POPC     H101     HEL1     0.150000       1.00800           0
      7577 MEMB     75       POPC     C211     CTL2    -0.180000       12.0110           0
      7578 MEMB     75       POPC     H11R     HAL2     0.900000E-01   1.00800           0
      7579 MEMB     75       POPC     H11S     HAL2     0.900000E-01   1.00800           0
      7580 MEMB     75       POPC     C212     CTL2    -0.180000       12.0110           0
      7581 MEMB     75       POPC     H12R     HAL2     0.900000E-01   1.00800           0
      7582 MEMB     75       POPC     H12S     HAL2     0.900000E-01   1.00800           0
      7583 MEMB     75       POPC     C213     CTL2    -0.180000       12.0110           0
      7584 MEMB     75       POPC     H13R     HAL2     0.900000E-01   1.00800           0
      7585 MEMB     75       POPC     H13S     HAL2     0.900000E-01   1.00800           0
      7586 MEMB     75       POPC     C214     CTL2    -0.180000       12.0110           0
      7587 MEMB     75       POPC     H14R     HAL2     0.900000E-01   1.00800           0
      7588 MEMB     75       POPC     H14S     HAL2     0.900000E-01   1.00800           0
      7589 MEMB     75       POPC     C215     CTL2    -0.180000       12.0110           0
      7590 MEMB     75       POPC     H15R     HAL2     0.900000E-01   1.00800           0
      7591 MEMB     75       POPC     H15S     HAL2     0.900000E-01   1.00800           0
      7592 MEMB     75       POPC     C216     CTL2    -0.180000       12.0110           0
      7593 MEMB     75       POPC     H16R     HAL2     0.900000E-01   1.00800           0
      7594 MEMB     75       POPC     H16S     HAL2     0.900000E-01   1.00800           0
      7595 MEMB     75       POPC     C217     CTL2    -0.180000       12.0110           0
      7596 MEMB     75       POPC     H17R     HAL2     0.900000E-01   1.00800           0
      7597 MEMB     75       POPC     H17S     HAL2     0.900000E-01   1.00800           0
      7598 MEMB     75       POPC     C218     CTL3    -0.270000       12.0110           0
      7599 MEMB     75       POPC     H18R     HAL3     0.900000E-01   1.00800           0
      7600 MEMB     75       POPC     H18S     HAL3     0.900000E-01   1.00800           0
      7601 MEMB     75       POPC     H18T     HAL3     0.900000E-01   1.00800           0
      7602 MEMB     75       POPC     C33      CTL2    -0.180000       12.0110           0
      7603 MEMB     75       POPC     H3X      HAL2     0.900000E-01   1.00800           0
      7604 MEMB     75       POPC     H3Y      HAL2     0.900000E-01   1.00800           0
      7605 MEMB     75       POPC     C34      CTL2    -0.180000       12.0110           0
      7606 MEMB     75       POPC     H4X      HAL2     0.900000E-01   1.00800           0
      7607 MEMB     75       POPC     H4Y      HAL2     0.900000E-01   1.00800           0
      7608 MEMB     75       POPC     C35      CTL2    -0.180000       12.0110           0
      7609 MEMB     75       POPC     H5X      HAL2     0.900000E-01   1.00800           0
      7610 MEMB     75       POPC     H5Y      HAL2     0.900000E-01   1.00800           0
      7611 MEMB     75       POPC     C36      CTL2    -0.180000       12.0110           0
      7612 MEMB     75       POPC     H6X      HAL2     0.900000E-01   1.00800           0
      7613 MEMB     75       POPC     H6Y      HAL2     0.900000E-01   1.00800           0
      7614 MEMB     75       POPC     C37      CTL2    -0.180000       12.0110           0
      7615 MEMB     75       POPC     H7X      HAL2     0.900000E-01   1.00800           0
      7616 MEMB     75       POPC     H7Y      HAL2     0.900000E-01   1.00800           0
      7617 MEMB     75       POPC     C38      CTL2    -0.180000       12.0110           0
      7618 MEMB     75       POPC     H8X      HAL2     0.900000E-01   1.00800           0
      7619 MEMB     75       POPC     H8Y      HAL2     0.900000E-01   1.00800           0
      7620 MEMB     75       POPC     C39      CTL2    -0.180000       12.0110           0
      7621 MEMB     75       POPC     H9X      HAL2     0.900000E-01   1.00800           0
      7622 MEMB     75       POPC     H9Y      HAL2     0.900000E-01   1.00800           0
      7623 MEMB     75       POPC     C310     CTL2    -0.180000       12.0110           0
      7624 MEMB     75       POPC     H10X     HAL2     0.900000E-01   1.00800           0
      7625 MEMB     75       POPC     H10Y     HAL2     0.900000E-01   1.00800           0
      7626 MEMB     75       POPC     C311     CTL2    -0.180000       12.0110           0
      7627 MEMB     75       POPC     H11X     HAL2     0.900000E-01   1.00800           0
      7628 MEMB     75       POPC     H11Y     HAL2     0.900000E-01   1.00800           0
      7629 MEMB     75       POPC     C312     CTL2    -0.180000       12.0110           0
      7630 MEMB     75       POPC     H12X     HAL2     0.900000E-01   1.00800           0
      7631 MEMB     75       POPC     H12Y     HAL2     0.900000E-01   1.00800           0
      7632 MEMB     75       POPC     C313     CTL2    -0.180000       12.0110           0
      7633 MEMB     75       POPC     H13X     HAL2     0.900000E-01   1.00800           0
      7634 MEMB     75       POPC     H13Y     HAL2     0.900000E-01   1.00800           0
      7635 MEMB     75       POPC     C314     CTL2    -0.180000       12.0110           0
      7636 MEMB     75       POPC     H14X     HAL2     0.900000E-01   1.00800           0
      7637 MEMB     75       POPC     H14Y     HAL2     0.900000E-01   1.00800           0
      7638 MEMB     75       POPC     C315     CTL2    -0.180000       12.0110           0
      7639 MEMB     75       POPC     H15X     HAL2     0.900000E-01   1.00800           0
      7640 MEMB     75       POPC     H15Y     HAL2     0.900000E-01   1.00800           0
      7641 MEMB     75       POPC     C316     CTL3    -0.270000       12.0110           0
      7642 MEMB     75       POPC     H16X     HAL3     0.900000E-01   1.00800           0
      7643 MEMB     75       POPC     H16Y     HAL3     0.900000E-01   1.00800           0
      7644 MEMB     75       POPC     H16Z     HAL3     0.900000E-01   1.00800           0
      7645 MEMB     76       POPC     N        NTL     -0.600000       14.0070           0
      7646 MEMB     76       POPC     C12      CTL2    -0.100000       12.0110           0
      7647 MEMB     76       POPC     H12A     HL       0.250000       1.00800           0
      7648 MEMB     76       POPC     H12B     HL       0.250000       1.00800           0
      7649 MEMB     76       POPC     C13      CTL5    -0.350000       12.0110           0
      7650 MEMB     76       POPC     H13A     HL       0.250000       1.00800           0
      7651 MEMB     76       POPC     H13B     HL       0.250000       1.00800           0
      7652 MEMB     76       POPC     H13C     HL       0.250000       1.00800           0
      7653 MEMB     76       POPC     C14      CTL5    -0.350000       12.0110           0
      7654 MEMB     76       POPC     H14A     HL       0.250000       1.00800           0
      7655 MEMB     76       POPC     H14B     HL       0.250000       1.00800           0
      7656 MEMB     76       POPC     H14C     HL       0.250000       1.00800           0
      7657 MEMB     76       POPC     C15      CTL5    -0.350000       12.0110           0
      7658 MEMB     76       POPC     H15A     HL       0.250000       1.00800           0
      7659 MEMB     76       POPC     H15B     HL       0.250000       1.00800           0
      7660 MEMB     76       POPC     H15C     HL       0.250000       1.00800           0
      7661 MEMB     76       POPC     C11      CTL2    -0.800000E-01   12.0110           0
      7662 MEMB     76       POPC     H11A     HAL2     0.900000E-01   1.00800           0
      7663 MEMB     76       POPC     H11B     HAL2     0.900000E-01   1.00800           0
      7664 MEMB     76       POPC     P        PL        1.50000       30.9740           0
      7665 MEMB     76       POPC     O13      O2L     -0.780000       15.9994           0
      7666 MEMB     76       POPC     O14      O2L     -0.780000       15.9994           0
      7667 MEMB     76       POPC     O12      OSLP    -0.570000       15.9994           0
      7668 MEMB     76       POPC     O11      OSLP    -0.570000       15.9994           0
      7669 MEMB     76       POPC     C1       CTL2    -0.800000E-01   12.0110           0
      7670 MEMB     76       POPC     HA       HAL2     0.900000E-01   1.00800           0
      7671 MEMB     76       POPC     HB       HAL2     0.900000E-01   1.00800           0
      7672 MEMB     76       POPC     C2       CTL1     0.170000       12.0110           0
      7673 MEMB     76       POPC     HS       HAL1     0.900000E-01   1.00800           0
      7674 MEMB     76       POPC     O21      OSL     -0.490000       15.9994           0
      7675 MEMB     76       POPC     C21      CL       0.900000       12.0110           0
      7676 MEMB     76       POPC     O22      OBL     -0.630000       15.9994           0
      7677 MEMB     76       POPC     C22      CTL2    -0.220000       12.0110           0
      7678 MEMB     76       POPC     H2R      HAL2     0.900000E-01   1.00800           0
      7679 MEMB     76       POPC     H2S      HAL2     0.900000E-01   1.00800           0
      7680 MEMB     76       POPC     C3       CTL2     0.800000E-01   12.0110           0
      7681 MEMB     76       POPC     HX       HAL2     0.900000E-01   1.00800           0
      7682 MEMB     76       POPC     HY       HAL2     0.900000E-01   1.00800           0
      7683 MEMB     76       POPC     O31      OSL     -0.490000       15.9994           0
      7684 MEMB     76       POPC     C31      CL       0.900000       12.0110           0
      7685 MEMB     76       POPC     O32      OBL     -0.630000       15.9994           0
      7686 MEMB     76       POPC     C32      CTL2    -0.220000       12.0110           0
      7687 MEMB     76       POPC     H2X      HAL2     0.900000E-01   1.00800           0
      7688 MEMB     76       POPC     H2Y      HAL2     0.900000E-01   1.00800           0
      7689 MEMB     76       POPC     C23      CTL2    -0.180000       12.0110           0
      7690 MEMB     76       POPC     H3R      HAL2     0.900000E-01   1.00800           0
      7691 MEMB     76       POPC     H3S      HAL2     0.900000E-01   1.00800           0
      7692 MEMB     76       POPC     C24      CTL2    -0.180000       12.0110           0
      7693 MEMB     76       POPC     H4R      HAL2     0.900000E-01   1.00800           0
      7694 MEMB     76       POPC     H4S      HAL2     0.900000E-01   1.00800           0
      7695 MEMB     76       POPC     C25      CTL2    -0.180000       12.0110           0
      7696 MEMB     76       POPC     H5R      HAL2     0.900000E-01   1.00800           0
      7697 MEMB     76       POPC     H5S      HAL2     0.900000E-01   1.00800           0
      7698 MEMB     76       POPC     C26      CTL2    -0.180000       12.0110           0
      7699 MEMB     76       POPC     H6R      HAL2     0.900000E-01   1.00800           0
      7700 MEMB     76       POPC     H6S      HAL2     0.900000E-01   1.00800           0
      7701 MEMB     76       POPC     C27      CTL2    -0.180000       12.0110           0
      7702 MEMB     76       POPC     H7R      HAL2     0.900000E-01   1.00800           0
      7703 MEMB     76       POPC     H7S      HAL2     0.900000E-01   1.00800           0
      7704 MEMB     76       POPC     C28      CTL2    -0.180000       12.0110           0
      7705 MEMB     76       POPC     H8R      HAL2     0.900000E-01   1.00800           0
      7706 MEMB     76       POPC     H8S      HAL2     0.900000E-01   1.00800           0
      7707 MEMB     76       POPC     C29      CEL1    -0.150000       12.0110           0
      7708 MEMB     76       POPC     H91      HEL1     0.150000       1.00800           0
      7709 MEMB     76       POPC     C210     CEL1    -0.150000       12.0110           0
      7710 MEMB     76       POPC     H101     HEL1     0.150000       1.00800           0
      7711 MEMB     76       POPC     C211     CTL2    -0.180000       12.0110           0
      7712 MEMB     76       POPC     H11R     HAL2     0.900000E-01   1.00800           0
      7713 MEMB     76       POPC     H11S     HAL2     0.900000E-01   1.00800           0
      7714 MEMB     76       POPC     C212     CTL2    -0.180000       12.0110           0
      7715 MEMB     76       POPC     H12R     HAL2     0.900000E-01   1.00800           0
      7716 MEMB     76       POPC     H12S     HAL2     0.900000E-01   1.00800           0
      7717 MEMB     76       POPC     C213     CTL2    -0.180000       12.0110           0
      7718 MEMB     76       POPC     H13R     HAL2     0.900000E-01   1.00800           0
      7719 MEMB     76       POPC     H13S     HAL2     0.900000E-01   1.00800           0
      7720 MEMB     76       POPC     C214     CTL2    -0.180000       12.0110           0
      7721 MEMB     76       POPC     H14R     HAL2     0.900000E-01   1.00800           0
      7722 MEMB     76       POPC     H14S     HAL2     0.900000E-01   1.00800           0
      7723 MEMB     76       POPC     C215     CTL2    -0.180000       12.0110           0
      7724 MEMB     76       POPC     H15R     HAL2     0.900000E-01   1.00800           0
      7725 MEMB     76       POPC     H15S     HAL2     0.900000E-01   1.00800           0
      7726 MEMB     76       POPC     C216     CTL2    -0.180000       12.0110           0
      7727 MEMB     76       POPC     H16R     HAL2     0.900000E-01   1.00800           0
      7728 MEMB     76       POPC     H16S     HAL2     0.900000E-01   1.00800           0
      7729 MEMB     76       POPC     C217     CTL2    -0.180000       12.0110           0
      7730 MEMB     76       POPC     H17R     HAL2     0.900000E-01   1.00800           0
      7731 MEMB     76       POPC     H17S     HAL2     0.900000E-01   1.00800           0
      7732 MEMB     76       POPC     C218     CTL3    -0.270000       12.0110           0
      7733 MEMB     76       POPC     H18R     HAL3     0.900000E-01   1.00800           0
      7734 MEMB     76       POPC     H18S     HAL3     0.900000E-01   1.00800           0
      7735 MEMB     76       POPC     H18T     HAL3     0.900000E-01   1.00800           0
      7736 MEMB     76       POPC     C33      CTL2    -0.180000       12.0110           0
      7737 MEMB     76       POPC     H3X      HAL2     0.900000E-01   1.00800           0
      7738 MEMB     76       POPC     H3Y      HAL2     0.900000E-01   1.00800           0
      7739 MEMB     76       POPC     C34      CTL2    -0.180000       12.0110           0
      7740 MEMB     76       POPC     H4X      HAL2     0.900000E-01   1.00800           0
      7741 MEMB     76       POPC     H4Y      HAL2     0.900000E-01   1.00800           0
      7742 MEMB     76       POPC     C35      CTL2    -0.180000       12.0110           0
      7743 MEMB     76       POPC     H5X      HAL2     0.900000E-01   1.00800           0
      7744 MEMB     76       POPC     H5Y      HAL2     0.900000E-01   1.00800           0
      7745 MEMB     76       POPC     C36      CTL2    -0.180000       12.0110           0
      7746 MEMB     76       POPC     H6X      HAL2     0.900000E-01   1.00800           0
      7747 MEMB     76       POPC     H6Y      HAL2     0.900000E-01   1.00800           0
      7748 MEMB     76       POPC     C37      CTL2    -0.180000       12.0110           0
      7749 MEMB     76       POPC     H7X      HAL2     0.900000E-01   1.00800           0
      7750 MEMB     76       POPC     H7Y      HAL2     0.900000E-01   1.00800           0
      7751 MEMB     76       POPC     C38      CTL2    -0.180000       12.0110           0
      7752 MEMB     76       POPC     H8X      HAL2     0.900000E-01   1.00800           0
      7753 MEMB     76       POPC     H8Y      HAL2     0.900000E-01   1.00800           0
      7754 MEMB     76       POPC     C39      CTL2    -0.180000       12.0110           0
      7755 MEMB     76       POPC     H9X      HAL2     0.900000E-01   1.00800           0
      7756 MEMB     76       POPC     H9Y      HAL2     0.900000E-01   1.00800           0
      7757 MEMB     76       POPC     C310     CTL2    -0.180000       12.0110           0
      7758 MEMB     76       POPC     H10X     HAL2     0.900000E-01   1.00800           0
      7759 MEMB     76       POPC     H10Y     HAL2     0.900000E-01   1.00800           0
      7760 MEMB     76       POPC     C311     CTL2    -0.180000       12.0110           0
      7761 MEMB     76       POPC     H11X     HAL2     0.900000E-01   1.00800           0
      7762 MEMB     76       POPC     H11Y     HAL2     0.900000E-01   1.00800           0
      7763 MEMB     76       POPC     C312     CTL2    -0.180000       12.0110           0
      7764 MEMB     76       POPC     H12X     HAL2     0.900000E-01   1.00800           0
      7765 MEMB     76       POPC     H12Y     HAL2     0.900000E-01   1.00800           0
      7766 MEMB     76       POPC     C313     CTL2    -0.180000       12.0110           0
      7767 MEMB     76       POPC     H13X     HAL2     0.900000E-01   1.00800           0
      7768 MEMB     76       POPC     H13Y     HAL2     0.900000E-01   1.00800           0
      7769 MEMB     76       POPC     C314     CTL2    -0.180000       12.0110           0
      7770 MEMB     76       POPC     H14X     HAL2     0.900000E-01   1.00800           0
      7771 MEMB     76       POPC     H14Y     HAL2     0.900000E-01   1.00800           0
      7772 MEMB     76       POPC     C315     CTL2    -0.180000       12.0110           0
      7773 MEMB     76       POPC     H15X     HAL2     0.900000E-01   1.00800           0
      7774 MEMB     76       POPC     H15Y     HAL2     0.900000E-01   1.00800           0
      7775 MEMB     76       POPC     C316     CTL3    -0.270000       12.0110           0
      7776 MEMB     76       POPC     H16X     HAL3     0.900000E-01   1.00800           0
      7777 MEMB     76       POPC     H16Y     HAL3     0.900000E-01   1.00800           0
      7778 MEMB     76       POPC     H16Z     HAL3     0.900000E-01   1.00800           0
      7779 MEMB     77       POPC     N        NTL     -0.600000       14.0070           0
      7780 MEMB     77       POPC     C12      CTL2    -0.100000       12.0110           0
      7781 MEMB     77       POPC     H12A     HL       0.250000       1.00800           0
      7782 MEMB     77       POPC     H12B     HL       0.250000       1.00800           0
      7783 MEMB     77       POPC     C13      CTL5    -0.350000       12.0110           0
      7784 MEMB     77       POPC     H13A     HL       0.250000       1.00800           0
      7785 MEMB     77       POPC     H13B     HL       0.250000       1.00800           0
      7786 MEMB     77       POPC     H13C     HL       0.250000       1.00800           0
      7787 MEMB     77       POPC     C14      CTL5    -0.350000       12.0110           0
      7788 MEMB     77       POPC     H14A     HL       0.250000       1.00800           0
      7789 MEMB     77       POPC     H14B     HL       0.250000       1.00800           0
      7790 MEMB     77       POPC     H14C     HL       0.250000       1.00800           0
      7791 MEMB     77       POPC     C15      CTL5    -0.350000       12.0110           0
      7792 MEMB     77       POPC     H15A     HL       0.250000       1.00800           0
      7793 MEMB     77       POPC     H15B     HL       0.250000       1.00800           0
      7794 MEMB     77       POPC     H15C     HL       0.250000       1.00800           0
      7795 MEMB     77       POPC     C11      CTL2    -0.800000E-01   12.0110           0
      7796 MEMB     77       POPC     H11A     HAL2     0.900000E-01   1.00800           0
      7797 MEMB     77       POPC     H11B     HAL2     0.900000E-01   1.00800           0
      7798 MEMB     77       POPC     P        PL        1.50000       30.9740           0
      7799 MEMB     77       POPC     O13      O2L     -0.780000       15.9994           0
      7800 MEMB     77       POPC     O14      O2L     -0.780000       15.9994           0
      7801 MEMB     77       POPC     O12      OSLP    -0.570000       15.9994           0
      7802 MEMB     77       POPC     O11      OSLP    -0.570000       15.9994           0
      7803 MEMB     77       POPC     C1       CTL2    -0.800000E-01   12.0110           0
      7804 MEMB     77       POPC     HA       HAL2     0.900000E-01   1.00800           0
      7805 MEMB     77       POPC     HB       HAL2     0.900000E-01   1.00800           0
      7806 MEMB     77       POPC     C2       CTL1     0.170000       12.0110           0
      7807 MEMB     77       POPC     HS       HAL1     0.900000E-01   1.00800           0
      7808 MEMB     77       POPC     O21      OSL     -0.490000       15.9994           0
      7809 MEMB     77       POPC     C21      CL       0.900000       12.0110           0
      7810 MEMB     77       POPC     O22      OBL     -0.630000       15.9994           0
      7811 MEMB     77       POPC     C22      CTL2    -0.220000       12.0110           0
      7812 MEMB     77       POPC     H2R      HAL2     0.900000E-01   1.00800           0
      7813 MEMB     77       POPC     H2S      HAL2     0.900000E-01   1.00800           0
      7814 MEMB     77       POPC     C3       CTL2     0.800000E-01   12.0110           0
      7815 MEMB     77       POPC     HX       HAL2     0.900000E-01   1.00800           0
      7816 MEMB     77       POPC     HY       HAL2     0.900000E-01   1.00800           0
      7817 MEMB     77       POPC     O31      OSL     -0.490000       15.9994           0
      7818 MEMB     77       POPC     C31      CL       0.900000       12.0110           0
      7819 MEMB     77       POPC     O32      OBL     -0.630000       15.9994           0
      7820 MEMB     77       POPC     C32      CTL2    -0.220000       12.0110           0
      7821 MEMB     77       POPC     H2X      HAL2     0.900000E-01   1.00800           0
      7822 MEMB     77       POPC     H2Y      HAL2     0.900000E-01   1.00800           0
      7823 MEMB     77       POPC     C23      CTL2    -0.180000       12.0110           0
      7824 MEMB     77       POPC     H3R      HAL2     0.900000E-01   1.00800           0
      7825 MEMB     77       POPC     H3S      HAL2     0.900000E-01   1.00800           0
      7826 MEMB     77       POPC     C24      CTL2    -0.180000       12.0110           0
      7827 MEMB     77       POPC     H4R      HAL2     0.900000E-01   1.00800           0
      7828 MEMB     77       POPC     H4S      HAL2     0.900000E-01   1.00800           0
      7829 MEMB     77       POPC     C25      CTL2    -0.180000       12.0110           0
      7830 MEMB     77       POPC     H5R      HAL2     0.900000E-01   1.00800           0
      7831 MEMB     77       POPC     H5S      HAL2     0.900000E-01   1.00800           0
      7832 MEMB     77       POPC     C26      CTL2    -0.180000       12.0110           0
      7833 MEMB     77       POPC     H6R      HAL2     0.900000E-01   1.00800           0
      7834 MEMB     77       POPC     H6S      HAL2     0.900000E-01   1.00800           0
      7835 MEMB     77       POPC     C27      CTL2    -0.180000       12.0110           0
      7836 MEMB     77       POPC     H7R      HAL2     0.900000E-01   1.00800           0
      7837 MEMB     77       POPC     H7S      HAL2     0.900000E-01   1.00800           0
      7838 MEMB     77       POPC     C28      CTL2    -0.180000       12.0110           0
      7839 MEMB     77       POPC     H8R      HAL2     0.900000E-01   1.00800           0
      7840 MEMB     77       POPC     H8S      HAL2     0.900000E-01   1.00800           0
      7841 MEMB     77       POPC     C29      CEL1    -0.150000       12.0110           0
      7842 MEMB     77       POPC     H91      HEL1     0.150000       1.00800           0
      7843 MEMB     77       POPC     C210     CEL1    -0.150000       12.0110           0
      7844 MEMB     77       POPC     H101     HEL1     0.150000       1.00800           0
      7845 MEMB     77       POPC     C211     CTL2    -0.180000       12.0110           0
      7846 MEMB     77       POPC     H11R     HAL2     0.900000E-01   1.00800           0
      7847 MEMB     77       POPC     H11S     HAL2     0.900000E-01   1.00800           0
      7848 MEMB     77       POPC     C212     CTL2    -0.180000       12.0110           0
      7849 MEMB     77       POPC     H12R     HAL2     0.900000E-01   1.00800           0
      7850 MEMB     77       POPC     H12S     HAL2     0.900000E-01   1.00800           0
      7851 MEMB     77       POPC     C213     CTL2    -0.180000       12.0110           0
      7852 MEMB     77       POPC     H13R     HAL2     0.900000E-01   1.00800           0
      7853 MEMB     77       POPC     H13S     HAL2     0.900000E-01   1.00800           0
      7854 MEMB     77       POPC     C214     CTL2    -0.180000       12.0110           0
      7855 MEMB     77       POPC     H14R     HAL2     0.900000E-01   1.00800           0
      7856 MEMB     77       POPC     H14S     HAL2     0.900000E-01   1.00800           0
      7857 MEMB     77       POPC     C215     CTL2    -0.180000       12.0110           0
      7858 MEMB     77       POPC     H15R     HAL2     0.900000E-01   1.00800           0
      7859 MEMB     77       POPC     H15S     HAL2     0.900000E-01   1.00800           0
      7860 MEMB     77       POPC     C216     CTL2    -0.180000       12.0110           0
      7861 MEMB     77       POPC     H16R     HAL2     0.900000E-01   1.00800           0
      7862 MEMB     77       POPC     H16S     HAL2     0.900000E-01   1.00800           0
      7863 MEMB     77       POPC     C217     CTL2    -0.180000       12.0110           0
      7864 MEMB     77       POPC     H17R     HAL2     0.900000E-01   1.00800           0
      7865 MEMB     77       POPC     H17S     HAL2     0.900000E-01   1.00800           0
      7866 MEMB     77       POPC     C218     CTL3    -0.270000       12.0110           0
      7867 MEMB     77       POPC     H18R     HAL3     0.900000E-01   1.00800           0
      7868 MEMB     77       POPC     H18S     HAL3     0.900000E-01   1.00800           0
      7869 MEMB     77       POPC     H18T     HAL3     0.900000E-01   1.00800           0
      7870 MEMB     77       POPC     C33      CTL2    -0.180000       12.0110           0
      7871 MEMB     77       POPC     H3X      HAL2     0.900000E-01   1.00800           0
      7872 MEMB     77       POPC     H3Y      HAL2     0.900000E-01   1.00800           0
      7873 MEMB     77       POPC     C34      CTL2    -0.180000       12.0110           0
      7874 MEMB     77       POPC     H4X      HAL2     0.900000E-01   1.00800           0
      7875 MEMB     77       POPC     H4Y      HAL2     0.900000E-01   1.00800           0
      7876 MEMB     77       POPC     C35      CTL2    -0.180000       12.0110           0
      7877 MEMB     77       POPC     H5X      HAL2     0.900000E-01   1.00800           0
      7878 MEMB     77       POPC     H5Y      HAL2     0.900000E-01   1.00800           0
      7879 MEMB     77       POPC     C36      CTL2    -0.180000       12.0110           0
      7880 MEMB     77       POPC     H6X      HAL2     0.900000E-01   1.00800           0
      7881 MEMB     77       POPC     H6Y      HAL2     0.900000E-01   1.00800           0
      7882 MEMB     77       POPC     C37      CTL2    -0.180000       12.0110           0
      7883 MEMB     77       POPC     H7X      HAL2     0.900000E-01   1.00800           0
      7884 MEMB     77       POPC     H7Y      HAL2     0.900000E-01   1.00800           0
      7885 MEMB     77       POPC     C38      CTL2    -0.180000       12.0110           0
      7886 MEMB     77       POPC     H8X      HAL2     0.900000E-01   1.00800           0
      7887 MEMB     77       POPC     H8Y      HAL2     0.900000E-01   1.00800           0
      7888 MEMB     77       POPC     C39      CTL2    -0.180000       12.0110           0
      7889 MEMB     77       POPC     H9X      HAL2     0.900000E-01   1.00800           0
      7890 MEMB     77       POPC     H9Y      HAL2     0.900000E-01   1.00800           0
      7891 MEMB     77       POPC     C310     CTL2    -0.180000       12.0110           0
      7892 MEMB     77       POPC     H10X     HAL2     0.900000E-01   1.00800           0
      7893 MEMB     77       POPC     H10Y     HAL2     0.900000E-01   1.00800           0
      7894 MEMB     77       POPC     C311     CTL2    -0.180000       12.0110           0
      7895 MEMB     77       POPC     H11X     HAL2     0.900000E-01   1.00800           0
      7896 MEMB     77       POPC     H11Y     HAL2     0.900000E-01   1.00800           0
      7897 MEMB     77       POPC     C312     CTL2    -0.180000       12.0110           0
      7898 MEMB     77       POPC     H12X     HAL2     0.900000E-01   1.00800           0
      7899 MEMB     77       POPC     H12Y     HAL2     0.900000E-01   1.00800           0
      7900 MEMB     77       POPC     C313     CTL2    -0.180000       12.0110           0
      7901 MEMB     77       POPC     H13X     HAL2     0.900000E-01   1.00800           0
      7902 MEMB     77       POPC     H13Y     HAL2     0.900000E-01   1.00800           0
      7903 MEMB     77       POPC     C314     CTL2    -0.180000       12.0110           0
      7904 MEMB     77       POPC     H14X     HAL2     0.900000E-01   1.00800           0
      7905 MEMB     77       POPC     H14Y     HAL2     0.900000E-01   1.00800           0
      7906 MEMB     77       POPC     C315     CTL2    -0.180000       12.0110           0
      7907 MEMB     77       POPC     H15X     HAL2     0.900000E-01   1.00800           0
      7908 MEMB     77       POPC     H15Y     HAL2     0.900000E-01   1.00800           0
      7909 MEMB     77       POPC     C316     CTL3    -0.270000       12.0110           0
      7910 MEMB     77       POPC     H16X     HAL3     0.900000E-01   1.00800           0
      7911 MEMB     77       POPC     H16Y     HAL3     0.900000E-01   1.00800           0
      7912 MEMB     77       POPC     H16Z     HAL3     0.900000E-01   1.00800           0
      7913 MEMB     78       POPC     N        NTL     -0.600000       14.0070           0
      7914 MEMB     78       POPC     C12      CTL2    -0.100000       12.0110           0
      7915 MEMB     78       POPC     H12A     HL       0.250000       1.00800           0
      7916 MEMB     78       POPC     H12B     HL       0.250000       1.00800           0
      7917 MEMB     78       POPC     C13      CTL5    -0.350000       12.0110           0
      7918 MEMB     78       POPC     H13A     HL       0.250000       1.00800           0
      7919 MEMB     78       POPC     H13B     HL       0.250000       1.00800           0
      7920 MEMB     78       POPC     H13C     HL       0.250000       1.00800           0
      7921 MEMB     78       POPC     C14      CTL5    -0.350000       12.0110           0
      7922 MEMB     78       POPC     H14A     HL       0.250000       1.00800           0
      7923 MEMB     78       POPC     H14B     HL       0.250000       1.00800           0
      7924 MEMB     78       POPC     H14C     HL       0.250000       1.00800           0
      7925 MEMB     78       POPC     C15      CTL5    -0.350000       12.0110           0
      7926 MEMB     78       POPC     H15A     HL       0.250000       1.00800           0
      7927 MEMB     78       POPC     H15B     HL       0.250000       1.00800           0
      7928 MEMB     78       POPC     H15C     HL       0.250000       1.00800           0
      7929 MEMB     78       POPC     C11      CTL2    -0.800000E-01   12.0110           0
      7930 MEMB     78       POPC     H11A     HAL2     0.900000E-01   1.00800           0
      7931 MEMB     78       POPC     H11B     HAL2     0.900000E-01   1.00800           0
      7932 MEMB     78       POPC     P        PL        1.50000       30.9740           0
      7933 MEMB     78       POPC     O13      O2L     -0.780000       15.9994           0
      7934 MEMB     78       POPC     O14      O2L     -0.780000       15.9994           0
      7935 MEMB     78       POPC     O12      OSLP    -0.570000       15.9994           0
      7936 MEMB     78       POPC     O11      OSLP    -0.570000       15.9994           0
      7937 MEMB     78       POPC     C1       CTL2    -0.800000E-01   12.0110           0
      7938 MEMB     78       POPC     HA       HAL2     0.900000E-01   1.00800           0
      7939 MEMB     78       POPC     HB       HAL2     0.900000E-01   1.00800           0
      7940 MEMB     78       POPC     C2       CTL1     0.170000       12.0110           0
      7941 MEMB     78       POPC     HS       HAL1     0.900000E-01   1.00800           0
      7942 MEMB     78       POPC     O21      OSL     -0.490000       15.9994           0
      7943 MEMB     78       POPC     C21      CL       0.900000       12.0110           0
      7944 MEMB     78       POPC     O22      OBL     -0.630000       15.9994           0
      7945 MEMB     78       POPC     C22      CTL2    -0.220000       12.0110           0
      7946 MEMB     78       POPC     H2R      HAL2     0.900000E-01   1.00800           0
      7947 MEMB     78       POPC     H2S      HAL2     0.900000E-01   1.00800           0
      7948 MEMB     78       POPC     C3       CTL2     0.800000E-01   12.0110           0
      7949 MEMB     78       POPC     HX       HAL2     0.900000E-01   1.00800           0
      7950 MEMB     78       POPC     HY       HAL2     0.900000E-01   1.00800           0
      7951 MEMB     78       POPC     O31      OSL     -0.490000       15.9994           0
      7952 MEMB     78       POPC     C31      CL       0.900000       12.0110           0
      7953 MEMB     78       POPC     O32      OBL     -0.630000       15.9994           0
      7954 MEMB     78       POPC     C32      CTL2    -0.220000       12.0110           0
      7955 MEMB     78       POPC     H2X      HAL2     0.900000E-01   1.00800           0
      7956 MEMB     78       POPC     H2Y      HAL2     0.900000E-01   1.00800           0
      7957 MEMB     78       POPC     C23      CTL2    -0.180000       12.0110           0
      7958 MEMB     78       POPC     H3R      HAL2     0.900000E-01   1.00800           0
      7959 MEMB     78       POPC     H3S      HAL2     0.900000E-01   1.00800           0
      7960 MEMB     78       POPC     C24      CTL2    -0.180000       12.0110           0
      7961 MEMB     78       POPC     H4R      HAL2     0.900000E-01   1.00800           0
      7962 MEMB     78       POPC     H4S      HAL2     0.900000E-01   1.00800           0
      7963 MEMB     78       POPC     C25      CTL2    -0.180000       12.0110           0
      7964 MEMB     78       POPC     H5R      HAL2     0.900000E-01   1.00800           0
      7965 MEMB     78       POPC     H5S      HAL2     0.900000E-01   1.00800           0
      7966 MEMB     78       POPC     C26      CTL2    -0.180000       12.0110           0
      7967 MEMB     78       POPC     H6R      HAL2     0.900000E-01   1.00800           0
      7968 MEMB     78       POPC     H6S      HAL2     0.900000E-01   1.00800           0
      7969 MEMB     78       POPC     C27      CTL2    -0.180000       12.0110           0
      7970 MEMB     78       POPC     H7R      HAL2     0.900000E-01   1.00800           0
      7971 MEMB     78       POPC     H7S      HAL2     0.900000E-01   1.00800           0
      7972 MEMB     78       POPC     C28      CTL2    -0.180000       12.0110           0
      7973 MEMB     78       POPC     H8R      HAL2     0.900000E-01   1.00800           0
      7974 MEMB     78       POPC     H8S      HAL2     0.900000E-01   1.00800           0
      7975 MEMB     78       POPC     C29      CEL1    -0.150000       12.0110           0
      7976 MEMB     78       POPC     H91      HEL1     0.150000       1.00800           0
      7977 MEMB     78       POPC     C210     CEL1    -0.150000       12.0110           0
      7978 MEMB     78       POPC     H101     HEL1     0.150000       1.00800           0
      7979 MEMB     78       POPC     C211     CTL2    -0.180000       12.0110           0
      7980 MEMB     78       POPC     H11R     HAL2     0.900000E-01   1.00800           0
      7981 MEMB     78       POPC     H11S     HAL2     0.900000E-01   1.00800           0
      7982 MEMB     78       POPC     C212     CTL2    -0.180000       12.0110           0
      7983 MEMB     78       POPC     H12R     HAL2     0.900000E-01   1.00800           0
      7984 MEMB     78       POPC     H12S     HAL2     0.900000E-01   1.00800           0
      7985 MEMB     78       POPC     C213     CTL2    -0.180000       12.0110           0
      7986 MEMB     78       POPC     H13R     HAL2     0.900000E-01   1.00800           0
      7987 MEMB     78       POPC     H13S     HAL2     0.900000E-01   1.00800           0
      7988 MEMB     78       POPC     C214     CTL2    -0.180000       12.0110           0
      7989 MEMB     78       POPC     H14R     HAL2     0.900000E-01   1.00800           0
      7990 MEMB     78       POPC     H14S     HAL2     0.900000E-01   1.00800           0
      7991 MEMB     78       POPC     C215     CTL2    -0.180000       12.0110           0
      7992 MEMB     78       POPC     H15R     HAL2     0.900000E-01   1.00800           0
      7993 MEMB     78       POPC     H15S     HAL2     0.900000E-01   1.00800           0
      7994 MEMB     78       POPC     C216     CTL2    -0.180000       12.0110           0
      7995 MEMB     78       POPC     H16R     HAL2     0.900000E-01   1.00800           0
      7996 MEMB     78       POPC     H16S     HAL2     0.900000E-01   1.00800           0
      7997 MEMB     78       POPC     C217     CTL2    -0.180000       12.0110           0
      7998 MEMB     78       POPC     H17R     HAL2     0.900000E-01   1.00800           0
      7999 MEMB     78       POPC     H17S     HAL2     0.900000E-01   1.00800           0
      8000 MEMB     78       POPC     C218     CTL3    -0.270000       12.0110           0
      8001 MEMB     78       POPC     H18R     HAL3     0.900000E-01   1.00800           0
      8002 MEMB     78       POPC     H18S     HAL3     0.900000E-01   1.00800           0
      8003 MEMB     78       POPC     H18T     HAL3     0.900000E-01   1.00800           0
      8004 MEMB     78       POPC     C33      CTL2    -0.180000       12.0110           0
      8005 MEMB     78       POPC     H3X      HAL2     0.900000E-01   1.00800           0
      8006 MEMB     78       POPC     H3Y      HAL2     0.900000E-01   1.00800           0
      8007 MEMB     78       POPC     C34      CTL2    -0.180000       12.0110           0
      8008 MEMB     78       POPC     H4X      HAL2     0.900000E-01   1.00800           0
      8009 MEMB     78       POPC     H4Y      HAL2     0.900000E-01   1.00800           0
      8010 MEMB     78       POPC     C35      CTL2    -0.180000       12.0110           0
      8011 MEMB     78       POPC     H5X      HAL2     0.900000E-01   1.00800           0
      8012 MEMB     78       POPC     H5Y      HAL2     0.900000E-01   1.00800           0
      8013 MEMB     78       POPC     C36      CTL2    -0.180000       12.0110           0
      8014 MEMB     78       POPC     H6X      HAL2     0.900000E-01   1.00800           0
      8015 MEMB     78       POPC     H6Y      HAL2     0.900000E-01   1.00800           0
      8016 MEMB     78       POPC     C37      CTL2    -0.180000       12.0110           0
      8017 MEMB     78       POPC     H7X      HAL2     0.900000E-01   1.00800           0
      8018 MEMB     78       POPC     H7Y      HAL2     0.900000E-01   1.00800           0
      8019 MEMB     78       POPC     C38      CTL2    -0.180000       12.0110           0
      8020 MEMB     78       POPC     H8X      HAL2     0.900000E-01   1.00800           0
      8021 MEMB     78       POPC     H8Y      HAL2     0.900000E-01   1.00800           0
      8022 MEMB     78       POPC     C39      CTL2    -0.180000       12.0110           0
      8023 MEMB     78       POPC     H9X      HAL2     0.900000E-01   1.00800           0
      8024 MEMB     78       POPC     H9Y      HAL2     0.900000E-01   1.00800           0
      8025 MEMB     78       POPC     C310     CTL2    -0.180000       12.0110           0
      8026 MEMB     78       POPC     H10X     HAL2     0.900000E-01   1.00800           0
      8027 MEMB     78       POPC     H10Y     HAL2     0.900000E-01   1.00800           0
      8028 MEMB     78       POPC     C311     CTL2    -0.180000       12.0110           0
      8029 MEMB     78       POPC     H11X     HAL2     0.900000E-01   1.00800           0
      8030 MEMB     78       POPC     H11Y     HAL2     0.900000E-01   1.00800           0
      8031 MEMB     78       POPC     C312     CTL2    -0.180000       12.0110           0
      8032 MEMB     78       POPC     H12X     HAL2     0.900000E-01   1.00800           0
      8033 MEMB     78       POPC     H12Y     HAL2     0.900000E-01   1.00800           0
      8034 MEMB     78       POPC     C313     CTL2    -0.180000       12.0110           0
      8035 MEMB     78       POPC     H13X     HAL2     0.900000E-01   1.00800           0
      8036 MEMB     78       POPC     H13Y     HAL2     0.900000E-01   1.00800           0
      8037 MEMB     78       POPC     C314     CTL2    -0.180000       12.0110           0
      8038 MEMB     78       POPC     H14X     HAL2     0.900000E-01   1.00800           0
      8039 MEMB     78       POPC     H14Y     HAL2     0.900000E-01   1.00800           0
      8040 MEMB     78       POPC     C315     CTL2    -0.180000       12.0110           0
      8041 MEMB     78       POPC     H15X     HAL2     0.900000E-01   1.00800           0
      8042 MEMB     78       POPC     H15Y     HAL2     0.900000E-01   1.00800           0
      8043 MEMB     78       POPC     C316     CTL3    -0.270000       12.0110           0
      8044 MEMB     78       POPC     H16X     HAL3     0.900000E-01   1.00800           0
      8045 MEMB     78       POPC     H16Y     HAL3     0.900000E-01   1.00800           0
      8046 MEMB     78       POPC     H16Z     HAL3     0.900000E-01   1.00800           0
      8047 MEMB     79       POPE     N        NH3L    -0.300000       14.0070           0
      8048 MEMB     79       POPE     HN1      HCL      0.330000       1.00800           0
      8049 MEMB     79       POPE     HN2      HCL      0.330000       1.00800           0
      8050 MEMB     79       POPE     HN3      HCL      0.330000       1.00800           0
      8051 MEMB     79       POPE     C12      CTL2     0.130000       12.0110           0
      8052 MEMB     79       POPE     H12A     HAL2     0.900000E-01   1.00800           0
      8053 MEMB     79       POPE     H12B     HAL2     0.900000E-01   1.00800           0
      8054 MEMB     79       POPE     C11      CTL2    -0.800000E-01   12.0110           0
      8055 MEMB     79       POPE     H11A     HAL2     0.900000E-01   1.00800           0
      8056 MEMB     79       POPE     H11B     HAL2     0.900000E-01   1.00800           0
      8057 MEMB     79       POPE     P        PL        1.50000       30.9740           0
      8058 MEMB     79       POPE     O13      O2L     -0.780000       15.9994           0
      8059 MEMB     79       POPE     O14      O2L     -0.780000       15.9994           0
      8060 MEMB     79       POPE     O11      OSLP    -0.570000       15.9994           0
      8061 MEMB     79       POPE     O12      OSLP    -0.570000       15.9994           0
      8062 MEMB     79       POPE     C1       CTL2    -0.800000E-01   12.0110           0
      8063 MEMB     79       POPE     HA       HAL2     0.900000E-01   1.00800           0
      8064 MEMB     79       POPE     HB       HAL2     0.900000E-01   1.00800           0
      8065 MEMB     79       POPE     C2       CTL1     0.170000       12.0110           0
      8066 MEMB     79       POPE     HS       HAL1     0.900000E-01   1.00800           0
      8067 MEMB     79       POPE     O21      OSL     -0.490000       15.9994           0
      8068 MEMB     79       POPE     C21      CL       0.900000       12.0110           0
      8069 MEMB     79       POPE     O22      OBL     -0.630000       15.9994           0
      8070 MEMB     79       POPE     C22      CTL2    -0.220000       12.0110           0
      8071 MEMB     79       POPE     H2R      HAL2     0.900000E-01   1.00800           0
      8072 MEMB     79       POPE     H2S      HAL2     0.900000E-01   1.00800           0
      8073 MEMB     79       POPE     C3       CTL2     0.800000E-01   12.0110           0
      8074 MEMB     79       POPE     HX       HAL2     0.900000E-01   1.00800           0
      8075 MEMB     79       POPE     HY       HAL2     0.900000E-01   1.00800           0
      8076 MEMB     79       POPE     O31      OSL     -0.490000       15.9994           0
      8077 MEMB     79       POPE     C31      CL       0.900000       12.0110           0
      8078 MEMB     79       POPE     O32      OBL     -0.630000       15.9994           0
      8079 MEMB     79       POPE     C32      CTL2    -0.220000       12.0110           0
      8080 MEMB     79       POPE     H2X      HAL2     0.900000E-01   1.00800           0
      8081 MEMB     79       POPE     H2Y      HAL2     0.900000E-01   1.00800           0
      8082 MEMB     79       POPE     C23      CTL2    -0.180000       12.0110           0
      8083 MEMB     79       POPE     H3R      HAL2     0.900000E-01   1.00800           0
      8084 MEMB     79       POPE     H3S      HAL2     0.900000E-01   1.00800           0
      8085 MEMB     79       POPE     C24      CTL2    -0.180000       12.0110           0
      8086 MEMB     79       POPE     H4R      HAL2     0.900000E-01   1.00800           0
      8087 MEMB     79       POPE     H4S      HAL2     0.900000E-01   1.00800           0
      8088 MEMB     79       POPE     C25      CTL2    -0.180000       12.0110           0
      8089 MEMB     79       POPE     H5R      HAL2     0.900000E-01   1.00800           0
      8090 MEMB     79       POPE     H5S      HAL2     0.900000E-01   1.00800           0
      8091 MEMB     79       POPE     C26      CTL2    -0.180000       12.0110           0
      8092 MEMB     79       POPE     H6R      HAL2     0.900000E-01   1.00800           0
      8093 MEMB     79       POPE     H6S      HAL2     0.900000E-01   1.00800           0
      8094 MEMB     79       POPE     C27      CTL2    -0.180000       12.0110           0
      8095 MEMB     79       POPE     H7R      HAL2     0.900000E-01   1.00800           0
      8096 MEMB     79       POPE     H7S      HAL2     0.900000E-01   1.00800           0
      8097 MEMB     79       POPE     C28      CTL2    -0.180000       12.0110           0
      8098 MEMB     79       POPE     H8R      HAL2     0.900000E-01   1.00800           0
      8099 MEMB     79       POPE     H8S      HAL2     0.900000E-01   1.00800           0
      8100 MEMB     79       POPE     C29      CEL1    -0.150000       12.0110           0
      8101 MEMB     79       POPE     H91      HEL1     0.150000       1.00800           0
      8102 MEMB     79       POPE     C210     CEL1    -0.150000       12.0110           0
      8103 MEMB     79       POPE     H101     HEL1     0.150000       1.00800           0
      8104 MEMB     79       POPE     C211     CTL2    -0.180000       12.0110           0
      8105 MEMB     79       POPE     H11R     HAL2     0.900000E-01   1.00800           0
      8106 MEMB     79       POPE     H11S     HAL2     0.900000E-01   1.00800           0
      8107 MEMB     79       POPE     C212     CTL2    -0.180000       12.0110           0
      8108 MEMB     79       POPE     H12R     HAL2     0.900000E-01   1.00800           0
      8109 MEMB     79       POPE     H12S     HAL2     0.900000E-01   1.00800           0
      8110 MEMB     79       POPE     C213     CTL2    -0.180000       12.0110           0
      8111 MEMB     79       POPE     H13R     HAL2     0.900000E-01   1.00800           0
      8112 MEMB     79       POPE     H13S     HAL2     0.900000E-01   1.00800           0
      8113 MEMB     79       POPE     C214     CTL2    -0.180000       12.0110           0
      8114 MEMB     79       POPE     H14R     HAL2     0.900000E-01   1.00800           0
      8115 MEMB     79       POPE     H14S     HAL2     0.900000E-01   1.00800           0
      8116 MEMB     79       POPE     C215     CTL2    -0.180000       12.0110           0
      8117 MEMB     79       POPE     H15R     HAL2     0.900000E-01   1.00800           0
      8118 MEMB     79       POPE     H15S     HAL2     0.900000E-01   1.00800           0
      8119 MEMB     79       POPE     C216     CTL2    -0.180000       12.0110           0
      8120 MEMB     79       POPE     H16R     HAL2     0.900000E-01   1.00800           0
      8121 MEMB     79       POPE     H16S     HAL2     0.900000E-01   1.00800           0
      8122 MEMB     79       POPE     C217     CTL2    -0.180000       12.0110           0
      8123 MEMB     79       POPE     H17R     HAL2     0.900000E-01   1.00800           0
      8124 MEMB     79       POPE     H17S     HAL2     0.900000E-01   1.00800           0
      8125 MEMB     79       POPE     C218     CTL3    -0.270000       12.0110           0
      8126 MEMB     79       POPE     H18R     HAL3     0.900000E-01   1.00800           0
      8127 MEMB     79       POPE     H18S     HAL3     0.900000E-01   1.00800           0
      8128 MEMB     79       POPE     H18T     HAL3     0.900000E-01   1.00800           0
      8129 MEMB     79       POPE     C33      CTL2    -0.180000       12.0110           0
      8130 MEMB     79       POPE     H3X      HAL2     0.900000E-01   1.00800           0
      8131 MEMB     79       POPE     H3Y      HAL2     0.900000E-01   1.00800           0
      8132 MEMB     79       POPE     C34      CTL2    -0.180000       12.0110           0
      8133 MEMB     79       POPE     H4X      HAL2     0.900000E-01   1.00800           0
      8134 MEMB     79       POPE     H4Y      HAL2     0.900000E-01   1.00800           0
      8135 MEMB     79       POPE     C35      CTL2    -0.180000       12.0110           0
      8136 MEMB     79       POPE     H5X      HAL2     0.900000E-01   1.00800           0
      8137 MEMB     79       POPE     H5Y      HAL2     0.900000E-01   1.00800           0
      8138 MEMB     79       POPE     C36      CTL2    -0.180000       12.0110           0
      8139 MEMB     79       POPE     H6X      HAL2     0.900000E-01   1.00800           0
      8140 MEMB     79       POPE     H6Y      HAL2     0.900000E-01   1.00800           0
      8141 MEMB     79       POPE     C37      CTL2    -0.180000       12.0110           0
      8142 MEMB     79       POPE     H7X      HAL2     0.900000E-01   1.00800           0
      8143 MEMB     79       POPE     H7Y      HAL2     0.900000E-01   1.00800           0
      8144 MEMB     79       POPE     C38      CTL2    -0.180000       12.0110           0
      8145 MEMB     79       POPE     H8X      HAL2     0.900000E-01   1.00800           0
      8146 MEMB     79       POPE     H8Y      HAL2     0.900000E-01   1.00800           0
      8147 MEMB     79       POPE     C39      CTL2    -0.180000       12.0110           0
      8148 MEMB     79       POPE     H9X      HAL2     0.900000E-01   1.00800           0
      8149 MEMB     79       POPE     H9Y      HAL2     0.900000E-01   1.00800           0
      8150 MEMB     79       POPE     C310     CTL2    -0.180000       12.0110           0
      8151 MEMB     79       POPE     H10X     HAL2     0.900000E-01   1.00800           0
      8152 MEMB     79       POPE     H10Y     HAL2     0.900000E-01   1.00800           0
      8153 MEMB     79       POPE     C311     CTL2    -0.180000       12.0110           0
      8154 MEMB     79       POPE     H11X     HAL2     0.900000E-01   1.00800           0
      8155 MEMB     79       POPE     H11Y     HAL2     0.900000E-01   1.00800           0
      8156 MEMB     79       POPE     C312     CTL2    -0.180000       12.0110           0
      8157 MEMB     79       POPE     H12X     HAL2     0.900000E-01   1.00800           0
      8158 MEMB     79       POPE     H12Y     HAL2     0.900000E-01   1.00800           0
      8159 MEMB     79       POPE     C313     CTL2    -0.180000       12.0110           0
      8160 MEMB     79       POPE     H13X     HAL2     0.900000E-01   1.00800           0
      8161 MEMB     79       POPE     H13Y     HAL2     0.900000E-01   1.00800           0
      8162 MEMB     79       POPE     C314     CTL2    -0.180000       12.0110           0
      8163 MEMB     79       POPE     H14X     HAL2     0.900000E-01   1.00800           0
      8164 MEMB     79       POPE     H14Y     HAL2     0.900000E-01   1.00800           0
      8165 MEMB     79       POPE     C315     CTL2    -0.180000       12.0110           0
      8166 MEMB     79       POPE     H15X     HAL2     0.900000E-01   1.00800           0
      8167 MEMB     79       POPE     H15Y     HAL2     0.900000E-01   1.00800           0
      8168 MEMB     79       POPE     C316     CTL3    -0.270000       12.0110           0
      8169 MEMB     79       POPE     H16X     HAL3     0.900000E-01   1.00800           0
      8170 MEMB     79       POPE     H16Y     HAL3     0.900000E-01   1.00800           0
      8171 MEMB     79       POPE     H16Z     HAL3     0.900000E-01   1.00800           0
      8172 MEMB     80       POPE     N        NH3L    -0.300000       14.0070           0
      8173 MEMB     80       POPE     HN1      HCL      0.330000       1.00800           0
      8174 MEMB     80       POPE     HN2      HCL      0.330000       1.00800           0
      8175 MEMB     80       POPE     HN3      HCL      0.330000       1.00800           0
      8176 MEMB     80       POPE     C12      CTL2     0.130000       12.0110           0
      8177 MEMB     80       POPE     H12A     HAL2     0.900000E-01   1.00800           0
      8178 MEMB     80       POPE     H12B     HAL2     0.900000E-01   1.00800           0
      8179 MEMB     80       POPE     C11      CTL2    -0.800000E-01   12.0110           0
      8180 MEMB     80       POPE     H11A     HAL2     0.900000E-01   1.00800           0
      8181 MEMB     80       POPE     H11B     HAL2     0.900000E-01   1.00800           0
      8182 MEMB     80       POPE     P        PL        1.50000       30.9740           0
      8183 MEMB     80       POPE     O13      O2L     -0.780000       15.9994           0
      8184 MEMB     80       POPE     O14      O2L     -0.780000       15.9994           0
      8185 MEMB     80       POPE     O11      OSLP    -0.570000       15.9994           0
      8186 MEMB     80       POPE     O12      OSLP    -0.570000       15.9994           0
      8187 MEMB     80       POPE     C1       CTL2    -0.800000E-01   12.0110           0
      8188 MEMB     80       POPE     HA       HAL2     0.900000E-01   1.00800           0
      8189 MEMB     80       POPE     HB       HAL2     0.900000E-01   1.00800           0
      8190 MEMB     80       POPE     C2       CTL1     0.170000       12.0110           0
      8191 MEMB     80       POPE     HS       HAL1     0.900000E-01   1.00800           0
      8192 MEMB     80       POPE     O21      OSL     -0.490000       15.9994           0
      8193 MEMB     80       POPE     C21      CL       0.900000       12.0110           0
      8194 MEMB     80       POPE     O22      OBL     -0.630000       15.9994           0
      8195 MEMB     80       POPE     C22      CTL2    -0.220000       12.0110           0
      8196 MEMB     80       POPE     H2R      HAL2     0.900000E-01   1.00800           0
      8197 MEMB     80       POPE     H2S      HAL2     0.900000E-01   1.00800           0
      8198 MEMB     80       POPE     C3       CTL2     0.800000E-01   12.0110           0
      8199 MEMB     80       POPE     HX       HAL2     0.900000E-01   1.00800           0
      8200 MEMB     80       POPE     HY       HAL2     0.900000E-01   1.00800           0
      8201 MEMB     80       POPE     O31      OSL     -0.490000       15.9994           0
      8202 MEMB     80       POPE     C31      CL       0.900000       12.0110           0
      8203 MEMB     80       POPE     O32      OBL     -0.630000       15.9994           0
      8204 MEMB     80       POPE     C32      CTL2    -0.220000       12.0110           0
      8205 MEMB     80       POPE     H2X      HAL2     0.900000E-01   1.00800           0
      8206 MEMB     80       POPE     H2Y      HAL2     0.900000E-01   1.00800           0
      8207 MEMB     80       POPE     C23      CTL2    -0.180000       12.0110           0
      8208 MEMB     80       POPE     H3R      HAL2     0.900000E-01   1.00800           0
      8209 MEMB     80       POPE     H3S      HAL2     0.900000E-01   1.00800           0
      8210 MEMB     80       POPE     C24      CTL2    -0.180000       12.0110           0
      8211 MEMB     80       POPE     H4R      HAL2     0.900000E-01   1.00800           0
      8212 MEMB     80       POPE     H4S      HAL2     0.900000E-01   1.00800           0
      8213 MEMB     80       POPE     C25      CTL2    -0.180000       12.0110           0
      8214 MEMB     80       POPE     H5R      HAL2     0.900000E-01   1.00800           0
      8215 MEMB     80       POPE     H5S      HAL2     0.900000E-01   1.00800           0
      8216 MEMB     80       POPE     C26      CTL2    -0.180000       12.0110           0
      8217 MEMB     80       POPE     H6R      HAL2     0.900000E-01   1.00800           0
      8218 MEMB     80       POPE     H6S      HAL2     0.900000E-01   1.00800           0
      8219 MEMB     80       POPE     C27      CTL2    -0.180000       12.0110           0
      8220 MEMB     80       POPE     H7R      HAL2     0.900000E-01   1.00800           0
      8221 MEMB     80       POPE     H7S      HAL2     0.900000E-01   1.00800           0
      8222 MEMB     80       POPE     C28      CTL2    -0.180000       12.0110           0
      8223 MEMB     80       POPE     H8R      HAL2     0.900000E-01   1.00800           0
      8224 MEMB     80       POPE     H8S      HAL2     0.900000E-01   1.00800           0
      8225 MEMB     80       POPE     C29      CEL1    -0.150000       12.0110           0
      8226 MEMB     80       POPE     H91      HEL1     0.150000       1.00800           0
      8227 MEMB     80       POPE     C210     CEL1    -0.150000       12.0110           0
      8228 MEMB     80       POPE     H101     HEL1     0.150000       1.00800           0
      8229 MEMB     80       POPE     C211     CTL2    -0.180000       12.0110           0
      8230 MEMB     80       POPE     H11R     HAL2     0.900000E-01   1.00800           0
      8231 MEMB     80       POPE     H11S     HAL2     0.900000E-01   1.00800           0
      8232 MEMB     80       POPE     C212     CTL2    -0.180000       12.0110           0
      8233 MEMB     80       POPE     H12R     HAL2     0.900000E-01   1.00800           0
      8234 MEMB     80       POPE     H12S     HAL2     0.900000E-01   1.00800           0
      8235 MEMB     80       POPE     C213     CTL2    -0.180000       12.0110           0
      8236 MEMB     80       POPE     H13R     HAL2     0.900000E-01   1.00800           0
      8237 MEMB     80       POPE     H13S     HAL2     0.900000E-01   1.00800           0
      8238 MEMB     80       POPE     C214     CTL2    -0.180000       12.0110           0
      8239 MEMB     80       POPE     H14R     HAL2     0.900000E-01   1.00800           0
      8240 MEMB     80       POPE     H14S     HAL2     0.900000E-01   1.00800           0
      8241 MEMB     80       POPE     C215     CTL2    -0.180000       12.0110           0
      8242 MEMB     80       POPE     H15R     HAL2     0.900000E-01   1.00800           0
      8243 MEMB     80       POPE     H15S     HAL2     0.900000E-01   1.00800           0
      8244 MEMB     80       POPE     C216     CTL2    -0.180000       12.0110           0
      8245 MEMB     80       POPE     H16R     HAL2     0.900000E-01   1.00800           0
      8246 MEMB     80       POPE     H16S     HAL2     0.900000E-01   1.00800           0
      8247 MEMB     80       POPE     C217     CTL2    -0.180000       12.0110           0
      8248 MEMB     80       POPE     H17R     HAL2     0.900000E-01   1.00800           0
      8249 MEMB     80       POPE     H17S     HAL2     0.900000E-01   1.00800           0
      8250 MEMB     80       POPE     C218     CTL3    -0.270000       12.0110           0
      8251 MEMB     80       POPE     H18R     HAL3     0.900000E-01   1.00800           0
      8252 MEMB     80       POPE     H18S     HAL3     0.900000E-01   1.00800           0
      8253 MEMB     80       POPE     H18T     HAL3     0.900000E-01   1.00800           0
      8254 MEMB     80       POPE     C33      CTL2    -0.180000       12.0110           0
      8255 MEMB     80       POPE     H3X      HAL2     0.900000E-01   1.00800           0
      8256 MEMB     80       POPE     H3Y      HAL2     0.900000E-01   1.00800           0
      8257 MEMB     80       POPE     C34      CTL2    -0.180000       12.0110           0
      8258 MEMB     80       POPE     H4X      HAL2     0.900000E-01   1.00800           0
      8259 MEMB     80       POPE     H4Y      HAL2     0.900000E-01   1.00800           0
      8260 MEMB     80       POPE     C35      CTL2    -0.180000       12.0110           0
      8261 MEMB     80       POPE     H5X      HAL2     0.900000E-01   1.00800           0
      8262 MEMB     80       POPE     H5Y      HAL2     0.900000E-01   1.00800           0
      8263 MEMB     80       POPE     C36      CTL2    -0.180000       12.0110           0
      8264 MEMB     80       POPE     H6X      HAL2     0.900000E-01   1.00800           0
      8265 MEMB     80       POPE     H6Y      HAL2     0.900000E-01   1.00800           0
      8266 MEMB     80       POPE     C37      CTL2    -0.180000       12.0110           0
      8267 MEMB     80       POPE     H7X      HAL2     0.900000E-01   1.00800           0
      8268 MEMB     80       POPE     H7Y      HAL2     0.900000E-01   1.00800           0
      8269 MEMB     80       POPE     C38      CTL2    -0.180000       12.0110           0
      8270 MEMB     80       POPE     H8X      HAL2     0.900000E-01   1.00800           0
      8271 MEMB     80       POPE     H8Y      HAL2     0.900000E-01   1.00800           0
      8272 MEMB     80       POPE     C39      CTL2    -0.180000       12.0110           0
      8273 MEMB     80       POPE     H9X      HAL2     0.900000E-01   1.00800           0
      8274 MEMB     80       POPE     H9Y      HAL2     0.900000E-01   1.00800           0
      8275 MEMB     80       POPE     C310     CTL2    -0.180000       12.0110           0
      8276 MEMB     80       POPE     H10X     HAL2     0.900000E-01   1.00800           0
      8277 MEMB     80       POPE     H10Y     HAL2     0.900000E-01   1.00800           0
      8278 MEMB     80       POPE     C311     CTL2    -0.180000       12.0110           0
      8279 MEMB     80       POPE     H11X     HAL2     0.900000E-01   1.00800           0
      8280 MEMB     80       POPE     H11Y     HAL2     0.900000E-01   1.00800           0
      8281 MEMB     80       POPE     C312     CTL2    -0.180000       12.0110           0
      8282 MEMB     80       POPE     H12X     HAL2     0.900000E-01   1.00800           0
      8283 MEMB     80       POPE     H12Y     HAL2     0.900000E-01   1.00800           0
      8284 MEMB     80       POPE     C313     CTL2    -0.180000       12.0110           0
      8285 MEMB     80       POPE     H13X     HAL2     0.900000E-01   1.00800           0
      8286 MEMB     80       POPE     H13Y     HAL2     0.900000E-01   1.00800           0
      8287 MEMB     80       POPE     C314     CTL2    -0.180000       12.0110           0
      8288 MEMB     80       POPE     H14X     HAL2     0.900000E-01   1.00800           0
      8289 MEMB     80       POPE     H14Y     HAL2     0.900000E-01   1.00800           0
      8290 MEMB     80       POPE     C315     CTL2    -0.180000       12.0110           0
      8291 MEMB     80       POPE     H15X     HAL2     0.900000E-01   1.00800           0
      8292 MEMB     80       POPE     H15Y     HAL2     0.900000E-01   1.00800           0
      8293 MEMB     80       POPE     C316     CTL3    -0.270000       12.0110           0
      8294 MEMB     80       POPE     H16X     HAL3     0.900000E-01   1.00800           0
      8295 MEMB     80       POPE     H16Y     HAL3     0.900000E-01   1.00800           0
      8296 MEMB     80       POPE     H16Z     HAL3     0.900000E-01   1.00800           0
      8297 MEMB     81       POPC     N        NTL     -0.600000       14.0070           0
      8298 MEMB     81       POPC     C12      CTL2    -0.100000       12.0110           0
      8299 MEMB     81       POPC     H12A     HL       0.250000       1.00800           0
      8300 MEMB     81       POPC     H12B     HL       0.250000       1.00800           0
      8301 MEMB     81       POPC     C13      CTL5    -0.350000       12.0110           0
      8302 MEMB     81       POPC     H13A     HL       0.250000       1.00800           0
      8303 MEMB     81       POPC     H13B     HL       0.250000       1.00800           0
      8304 MEMB     81       POPC     H13C     HL       0.250000       1.00800           0
      8305 MEMB     81       POPC     C14      CTL5    -0.350000       12.0110           0
      8306 MEMB     81       POPC     H14A     HL       0.250000       1.00800           0
      8307 MEMB     81       POPC     H14B     HL       0.250000       1.00800           0
      8308 MEMB     81       POPC     H14C     HL       0.250000       1.00800           0
      8309 MEMB     81       POPC     C15      CTL5    -0.350000       12.0110           0
      8310 MEMB     81       POPC     H15A     HL       0.250000       1.00800           0
      8311 MEMB     81       POPC     H15B     HL       0.250000       1.00800           0
      8312 MEMB     81       POPC     H15C     HL       0.250000       1.00800           0
      8313 MEMB     81       POPC     C11      CTL2    -0.800000E-01   12.0110           0
      8314 MEMB     81       POPC     H11A     HAL2     0.900000E-01   1.00800           0
      8315 MEMB     81       POPC     H11B     HAL2     0.900000E-01   1.00800           0
      8316 MEMB     81       POPC     P        PL        1.50000       30.9740           0
      8317 MEMB     81       POPC     O13      O2L     -0.780000       15.9994           0
      8318 MEMB     81       POPC     O14      O2L     -0.780000       15.9994           0
      8319 MEMB     81       POPC     O12      OSLP    -0.570000       15.9994           0
      8320 MEMB     81       POPC     O11      OSLP    -0.570000       15.9994           0
      8321 MEMB     81       POPC     C1       CTL2    -0.800000E-01   12.0110           0
      8322 MEMB     81       POPC     HA       HAL2     0.900000E-01   1.00800           0
      8323 MEMB     81       POPC     HB       HAL2     0.900000E-01   1.00800           0
      8324 MEMB     81       POPC     C2       CTL1     0.170000       12.0110           0
      8325 MEMB     81       POPC     HS       HAL1     0.900000E-01   1.00800           0
      8326 MEMB     81       POPC     O21      OSL     -0.490000       15.9994           0
      8327 MEMB     81       POPC     C21      CL       0.900000       12.0110           0
      8328 MEMB     81       POPC     O22      OBL     -0.630000       15.9994           0
      8329 MEMB     81       POPC     C22      CTL2    -0.220000       12.0110           0
      8330 MEMB     81       POPC     H2R      HAL2     0.900000E-01   1.00800           0
      8331 MEMB     81       POPC     H2S      HAL2     0.900000E-01   1.00800           0
      8332 MEMB     81       POPC     C3       CTL2     0.800000E-01   12.0110           0
      8333 MEMB     81       POPC     HX       HAL2     0.900000E-01   1.00800           0
      8334 MEMB     81       POPC     HY       HAL2     0.900000E-01   1.00800           0
      8335 MEMB     81       POPC     O31      OSL     -0.490000       15.9994           0
      8336 MEMB     81       POPC     C31      CL       0.900000       12.0110           0
      8337 MEMB     81       POPC     O32      OBL     -0.630000       15.9994           0
      8338 MEMB     81       POPC     C32      CTL2    -0.220000       12.0110           0
      8339 MEMB     81       POPC     H2X      HAL2     0.900000E-01   1.00800           0
      8340 MEMB     81       POPC     H2Y      HAL2     0.900000E-01   1.00800           0
      8341 MEMB     81       POPC     C23      CTL2    -0.180000       12.0110           0
      8342 MEMB     81       POPC     H3R      HAL2     0.900000E-01   1.00800           0
      8343 MEMB     81       POPC     H3S      HAL2     0.900000E-01   1.00800           0
      8344 MEMB     81       POPC     C24      CTL2    -0.180000       12.0110           0
      8345 MEMB     81       POPC     H4R      HAL2     0.900000E-01   1.00800           0
      8346 MEMB     81       POPC     H4S      HAL2     0.900000E-01   1.00800           0
      8347 MEMB     81       POPC     C25      CTL2    -0.180000       12.0110           0
      8348 MEMB     81       POPC     H5R      HAL2     0.900000E-01   1.00800           0
      8349 MEMB     81       POPC     H5S      HAL2     0.900000E-01   1.00800           0
      8350 MEMB     81       POPC     C26      CTL2    -0.180000       12.0110           0
      8351 MEMB     81       POPC     H6R      HAL2     0.900000E-01   1.00800           0
      8352 MEMB     81       POPC     H6S      HAL2     0.900000E-01   1.00800           0
      8353 MEMB     81       POPC     C27      CTL2    -0.180000       12.0110           0
      8354 MEMB     81       POPC     H7R      HAL2     0.900000E-01   1.00800           0
      8355 MEMB     81       POPC     H7S      HAL2     0.900000E-01   1.00800           0
      8356 MEMB     81       POPC     C28      CTL2    -0.180000       12.0110           0
      8357 MEMB     81       POPC     H8R      HAL2     0.900000E-01   1.00800           0
      8358 MEMB     81       POPC     H8S      HAL2     0.900000E-01   1.00800           0
      8359 MEMB     81       POPC     C29      CEL1    -0.150000       12.0110           0
      8360 MEMB     81       POPC     H91      HEL1     0.150000       1.00800           0
      8361 MEMB     81       POPC     C210     CEL1    -0.150000       12.0110           0
      8362 MEMB     81       POPC     H101     HEL1     0.150000       1.00800           0
      8363 MEMB     81       POPC     C211     CTL2    -0.180000       12.0110           0
      8364 MEMB     81       POPC     H11R     HAL2     0.900000E-01   1.00800           0
      8365 MEMB     81       POPC     H11S     HAL2     0.900000E-01   1.00800           0
      8366 MEMB     81       POPC     C212     CTL2    -0.180000       12.0110           0
      8367 MEMB     81       POPC     H12R     HAL2     0.900000E-01   1.00800           0
      8368 MEMB     81       POPC     H12S     HAL2     0.900000E-01   1.00800           0
      8369 MEMB     81       POPC     C213     CTL2    -0.180000       12.0110           0
      8370 MEMB     81       POPC     H13R     HAL2     0.900000E-01   1.00800           0
      8371 MEMB     81       POPC     H13S     HAL2     0.900000E-01   1.00800           0
      8372 MEMB     81       POPC     C214     CTL2    -0.180000       12.0110           0
      8373 MEMB     81       POPC     H14R     HAL2     0.900000E-01   1.00800           0
      8374 MEMB     81       POPC     H14S     HAL2     0.900000E-01   1.00800           0
      8375 MEMB     81       POPC     C215     CTL2    -0.180000       12.0110           0
      8376 MEMB     81       POPC     H15R     HAL2     0.900000E-01   1.00800           0
      8377 MEMB     81       POPC     H15S     HAL2     0.900000E-01   1.00800           0
      8378 MEMB     81       POPC     C216     CTL2    -0.180000       12.0110           0
      8379 MEMB     81       POPC     H16R     HAL2     0.900000E-01   1.00800           0
      8380 MEMB     81       POPC     H16S     HAL2     0.900000E-01   1.00800           0
      8381 MEMB     81       POPC     C217     CTL2    -0.180000       12.0110           0
      8382 MEMB     81       POPC     H17R     HAL2     0.900000E-01   1.00800           0
      8383 MEMB     81       POPC     H17S     HAL2     0.900000E-01   1.00800           0
      8384 MEMB     81       POPC     C218     CTL3    -0.270000       12.0110           0
      8385 MEMB     81       POPC     H18R     HAL3     0.900000E-01   1.00800           0
      8386 MEMB     81       POPC     H18S     HAL3     0.900000E-01   1.00800           0
      8387 MEMB     81       POPC     H18T     HAL3     0.900000E-01   1.00800           0
      8388 MEMB     81       POPC     C33      CTL2    -0.180000       12.0110           0
      8389 MEMB     81       POPC     H3X      HAL2     0.900000E-01   1.00800           0
      8390 MEMB     81       POPC     H3Y      HAL2     0.900000E-01   1.00800           0
      8391 MEMB     81       POPC     C34      CTL2    -0.180000       12.0110           0
      8392 MEMB     81       POPC     H4X      HAL2     0.900000E-01   1.00800           0
      8393 MEMB     81       POPC     H4Y      HAL2     0.900000E-01   1.00800           0
      8394 MEMB     81       POPC     C35      CTL2    -0.180000       12.0110           0
      8395 MEMB     81       POPC     H5X      HAL2     0.900000E-01   1.00800           0
      8396 MEMB     81       POPC     H5Y      HAL2     0.900000E-01   1.00800           0
      8397 MEMB     81       POPC     C36      CTL2    -0.180000       12.0110           0
      8398 MEMB     81       POPC     H6X      HAL2     0.900000E-01   1.00800           0
      8399 MEMB     81       POPC     H6Y      HAL2     0.900000E-01   1.00800           0
      8400 MEMB     81       POPC     C37      CTL2    -0.180000       12.0110           0
      8401 MEMB     81       POPC     H7X      HAL2     0.900000E-01   1.00800           0
      8402 MEMB     81       POPC     H7Y      HAL2     0.900000E-01   1.00800           0
      8403 MEMB     81       POPC     C38      CTL2    -0.180000       12.0110           0
      8404 MEMB     81       POPC     H8X      HAL2     0.900000E-01   1.00800           0
      8405 MEMB     81       POPC     H8Y      HAL2     0.900000E-01   1.00800           0
      8406 MEMB     81       POPC     C39      CTL2    -0.180000       12.0110           0
      8407 MEMB     81       POPC     H9X      HAL2     0.900000E-01   1.00800           0
      8408 MEMB     81       POPC     H9Y      HAL2     0.900000E-01   1.00800           0
      8409 MEMB     81       POPC     C310     CTL2    -0.180000       12.0110           0
      8410 MEMB     81       POPC     H10X     HAL2     0.900000E-01   1.00800           0
      8411 MEMB     81       POPC     H10Y     HAL2     0.900000E-01   1.00800           0
      8412 MEMB     81       POPC     C311     CTL2    -0.180000       12.0110           0
      8413 MEMB     81       POPC     H11X     HAL2     0.900000E-01   1.00800           0
      8414 MEMB     81       POPC     H11Y     HAL2     0.900000E-01   1.00800           0
      8415 MEMB     81       POPC     C312     CTL2    -0.180000       12.0110           0
      8416 MEMB     81       POPC     H12X     HAL2     0.900000E-01   1.00800           0
      8417 MEMB     81       POPC     H12Y     HAL2     0.900000E-01   1.00800           0
      8418 MEMB     81       POPC     C313     CTL2    -0.180000       12.0110           0
      8419 MEMB     81       POPC     H13X     HAL2     0.900000E-01   1.00800           0
      8420 MEMB     81       POPC     H13Y     HAL2     0.900000E-01   1.00800           0
      8421 MEMB     81       POPC     C314     CTL2    -0.180000       12.0110           0
      8422 MEMB     81       POPC     H14X     HAL2     0.900000E-01   1.00800           0
      8423 MEMB     81       POPC     H14Y     HAL2     0.900000E-01   1.00800           0
      8424 MEMB     81       POPC     C315     CTL2    -0.180000       12.0110           0
      8425 MEMB     81       POPC     H15X     HAL2     0.900000E-01   1.00800           0
      8426 MEMB     81       POPC     H15Y     HAL2     0.900000E-01   1.00800           0
      8427 MEMB     81       POPC     C316     CTL3    -0.270000       12.0110           0
      8428 MEMB     81       POPC     H16X     HAL3     0.900000E-01   1.00800           0
      8429 MEMB     81       POPC     H16Y     HAL3     0.900000E-01   1.00800           0
      8430 MEMB     81       POPC     H16Z     HAL3     0.900000E-01   1.00800           0
      8431 MEMB     82       POPE     N        NH3L    -0.300000       14.0070           0
      8432 MEMB     82       POPE     HN1      HCL      0.330000       1.00800           0
      8433 MEMB     82       POPE     HN2      HCL      0.330000       1.00800           0
      8434 MEMB     82       POPE     HN3      HCL      0.330000       1.00800           0
      8435 MEMB     82       POPE     C12      CTL2     0.130000       12.0110           0
      8436 MEMB     82       POPE     H12A     HAL2     0.900000E-01   1.00800           0
      8437 MEMB     82       POPE     H12B     HAL2     0.900000E-01   1.00800           0
      8438 MEMB     82       POPE     C11      CTL2    -0.800000E-01   12.0110           0
      8439 MEMB     82       POPE     H11A     HAL2     0.900000E-01   1.00800           0
      8440 MEMB     82       POPE     H11B     HAL2     0.900000E-01   1.00800           0
      8441 MEMB     82       POPE     P        PL        1.50000       30.9740           0
      8442 MEMB     82       POPE     O13      O2L     -0.780000       15.9994           0
      8443 MEMB     82       POPE     O14      O2L     -0.780000       15.9994           0
      8444 MEMB     82       POPE     O11      OSLP    -0.570000       15.9994           0
      8445 MEMB     82       POPE     O12      OSLP    -0.570000       15.9994           0
      8446 MEMB     82       POPE     C1       CTL2    -0.800000E-01   12.0110           0
      8447 MEMB     82       POPE     HA       HAL2     0.900000E-01   1.00800           0
      8448 MEMB     82       POPE     HB       HAL2     0.900000E-01   1.00800           0
      8449 MEMB     82       POPE     C2       CTL1     0.170000       12.0110           0
      8450 MEMB     82       POPE     HS       HAL1     0.900000E-01   1.00800           0
      8451 MEMB     82       POPE     O21      OSL     -0.490000       15.9994           0
      8452 MEMB     82       POPE     C21      CL       0.900000       12.0110           0
      8453 MEMB     82       POPE     O22      OBL     -0.630000       15.9994           0
      8454 MEMB     82       POPE     C22      CTL2    -0.220000       12.0110           0
      8455 MEMB     82       POPE     H2R      HAL2     0.900000E-01   1.00800           0
      8456 MEMB     82       POPE     H2S      HAL2     0.900000E-01   1.00800           0
      8457 MEMB     82       POPE     C3       CTL2     0.800000E-01   12.0110           0
      8458 MEMB     82       POPE     HX       HAL2     0.900000E-01   1.00800           0
      8459 MEMB     82       POPE     HY       HAL2     0.900000E-01   1.00800           0
      8460 MEMB     82       POPE     O31      OSL     -0.490000       15.9994           0
      8461 MEMB     82       POPE     C31      CL       0.900000       12.0110           0
      8462 MEMB     82       POPE     O32      OBL     -0.630000       15.9994           0
      8463 MEMB     82       POPE     C32      CTL2    -0.220000       12.0110           0
      8464 MEMB     82       POPE     H2X      HAL2     0.900000E-01   1.00800           0
      8465 MEMB     82       POPE     H2Y      HAL2     0.900000E-01   1.00800           0
      8466 MEMB     82       POPE     C23      CTL2    -0.180000       12.0110           0
      8467 MEMB     82       POPE     H3R      HAL2     0.900000E-01   1.00800           0
      8468 MEMB     82       POPE     H3S      HAL2     0.900000E-01   1.00800           0
      8469 MEMB     82       POPE     C24      CTL2    -0.180000       12.0110           0
      8470 MEMB     82       POPE     H4R      HAL2     0.900000E-01   1.00800           0
      8471 MEMB     82       POPE     H4S      HAL2     0.900000E-01   1.00800           0
      8472 MEMB     82       POPE     C25      CTL2    -0.180000       12.0110           0
      8473 MEMB     82       POPE     H5R      HAL2     0.900000E-01   1.00800           0
      8474 MEMB     82       POPE     H5S      HAL2     0.900000E-01   1.00800           0
      8475 MEMB     82       POPE     C26      CTL2    -0.180000       12.0110           0
      8476 MEMB     82       POPE     H6R      HAL2     0.900000E-01   1.00800           0
      8477 MEMB     82       POPE     H6S      HAL2     0.900000E-01   1.00800           0
      8478 MEMB     82       POPE     C27      CTL2    -0.180000       12.0110           0
      8479 MEMB     82       POPE     H7R      HAL2     0.900000E-01   1.00800           0
      8480 MEMB     82       POPE     H7S      HAL2     0.900000E-01   1.00800           0
      8481 MEMB     82       POPE     C28      CTL2    -0.180000       12.0110           0
      8482 MEMB     82       POPE     H8R      HAL2     0.900000E-01   1.00800           0
      8483 MEMB     82       POPE     H8S      HAL2     0.900000E-01   1.00800           0
      8484 MEMB     82       POPE     C29      CEL1    -0.150000       12.0110           0
      8485 MEMB     82       POPE     H91      HEL1     0.150000       1.00800           0
      8486 MEMB     82       POPE     C210     CEL1    -0.150000       12.0110           0
      8487 MEMB     82       POPE     H101     HEL1     0.150000       1.00800           0
      8488 MEMB     82       POPE     C211     CTL2    -0.180000       12.0110           0
      8489 MEMB     82       POPE     H11R     HAL2     0.900000E-01   1.00800           0
      8490 MEMB     82       POPE     H11S     HAL2     0.900000E-01   1.00800           0
      8491 MEMB     82       POPE     C212     CTL2    -0.180000       12.0110           0
      8492 MEMB     82       POPE     H12R     HAL2     0.900000E-01   1.00800           0
      8493 MEMB     82       POPE     H12S     HAL2     0.900000E-01   1.00800           0
      8494 MEMB     82       POPE     C213     CTL2    -0.180000       12.0110           0
      8495 MEMB     82       POPE     H13R     HAL2     0.900000E-01   1.00800           0
      8496 MEMB     82       POPE     H13S     HAL2     0.900000E-01   1.00800           0
      8497 MEMB     82       POPE     C214     CTL2    -0.180000       12.0110           0
      8498 MEMB     82       POPE     H14R     HAL2     0.900000E-01   1.00800           0
      8499 MEMB     82       POPE     H14S     HAL2     0.900000E-01   1.00800           0
      8500 MEMB     82       POPE     C215     CTL2    -0.180000       12.0110           0
      8501 MEMB     82       POPE     H15R     HAL2     0.900000E-01   1.00800           0
      8502 MEMB     82       POPE     H15S     HAL2     0.900000E-01   1.00800           0
      8503 MEMB     82       POPE     C216     CTL2    -0.180000       12.0110           0
      8504 MEMB     82       POPE     H16R     HAL2     0.900000E-01   1.00800           0
      8505 MEMB     82       POPE     H16S     HAL2     0.900000E-01   1.00800           0
      8506 MEMB     82       POPE     C217     CTL2    -0.180000       12.0110           0
      8507 MEMB     82       POPE     H17R     HAL2     0.900000E-01   1.00800           0
      8508 MEMB     82       POPE     H17S     HAL2     0.900000E-01   1.00800           0
      8509 MEMB     82       POPE     C218     CTL3    -0.270000       12.0110           0
      8510 MEMB     82       POPE     H18R     HAL3     0.900000E-01   1.00800           0
      8511 MEMB     82       POPE     H18S     HAL3     0.900000E-01   1.00800           0
      8512 MEMB     82       POPE     H18T     HAL3     0.900000E-01   1.00800           0
      8513 MEMB     82       POPE     C33      CTL2    -0.180000       12.0110           0
      8514 MEMB     82       POPE     H3X      HAL2     0.900000E-01   1.00800           0
      8515 MEMB     82       POPE     H3Y      HAL2     0.900000E-01   1.00800           0
      8516 MEMB     82       POPE     C34      CTL2    -0.180000       12.0110           0
      8517 MEMB     82       POPE     H4X      HAL2     0.900000E-01   1.00800           0
      8518 MEMB     82       POPE     H4Y      HAL2     0.900000E-01   1.00800           0
      8519 MEMB     82       POPE     C35      CTL2    -0.180000       12.0110           0
      8520 MEMB     82       POPE     H5X      HAL2     0.900000E-01   1.00800           0
      8521 MEMB     82       POPE     H5Y      HAL2     0.900000E-01   1.00800           0
      8522 MEMB     82       POPE     C36      CTL2    -0.180000       12.0110           0
      8523 MEMB     82       POPE     H6X      HAL2     0.900000E-01   1.00800           0
      8524 MEMB     82       POPE     H6Y      HAL2     0.900000E-01   1.00800           0
      8525 MEMB     82       POPE     C37      CTL2    -0.180000       12.0110           0
      8526 MEMB     82       POPE     H7X      HAL2     0.900000E-01   1.00800           0
      8527 MEMB     82       POPE     H7Y      HAL2     0.900000E-01   1.00800           0
      8528 MEMB     82       POPE     C38      CTL2    -0.180000       12.0110           0
      8529 MEMB     82       POPE     H8X      HAL2     0.900000E-01   1.00800           0
      8530 MEMB     82       POPE     H8Y      HAL2     0.900000E-01   1.00800           0
      8531 MEMB     82       POPE     C39      CTL2    -0.180000       12.0110           0
      8532 MEMB     82       POPE     H9X      HAL2     0.900000E-01   1.00800           0
      8533 MEMB     82       POPE     H9Y      HAL2     0.900000E-01   1.00800           0
      8534 MEMB     82       POPE     C310     CTL2    -0.180000       12.0110           0
      8535 MEMB     82       POPE     H10X     HAL2     0.900000E-01   1.00800           0
      8536 MEMB     82       POPE     H10Y     HAL2     0.900000E-01   1.00800           0
      8537 MEMB     82       POPE     C311     CTL2    -0.180000       12.0110           0
      8538 MEMB     82       POPE     H11X     HAL2     0.900000E-01   1.00800           0
      8539 MEMB     82       POPE     H11Y     HAL2     0.900000E-01   1.00800           0
      8540 MEMB     82       POPE     C312     CTL2    -0.180000       12.0110           0
      8541 MEMB     82       POPE     H12X     HAL2     0.900000E-01   1.00800           0
      8542 MEMB     82       POPE     H12Y     HAL2     0.900000E-01   1.00800           0
      8543 MEMB     82       POPE     C313     CTL2    -0.180000       12.0110           0
      8544 MEMB     82       POPE     H13X     HAL2     0.900000E-01   1.00800           0
      8545 MEMB     82       POPE     H13Y     HAL2     0.900000E-01   1.00800           0
      8546 MEMB     82       POPE     C314     CTL2    -0.180000       12.0110           0
      8547 MEMB     82       POPE     H14X     HAL2     0.900000E-01   1.00800           0
      8548 MEMB     82       POPE     H14Y     HAL2     0.900000E-01   1.00800           0
      8549 MEMB     82       POPE     C315     CTL2    -0.180000       12.0110           0
      8550 MEMB     82       POPE     H15X     HAL2     0.900000E-01   1.00800           0
      8551 MEMB     82       POPE     H15Y     HAL2     0.900000E-01   1.00800           0
      8552 MEMB     82       POPE     C316     CTL3    -0.270000       12.0110           0
      8553 MEMB     82       POPE     H16X     HAL3     0.900000E-01   1.00800           0
      8554 MEMB     82       POPE     H16Y     HAL3     0.900000E-01   1.00800           0
      8555 MEMB     82       POPE     H16Z     HAL3     0.900000E-01   1.00800           0
      8556 MEMB     83       POPE     N        NH3L    -0.300000       14.0070           0
      8557 MEMB     83       POPE     HN1      HCL      0.330000       1.00800           0
      8558 MEMB     83       POPE     HN2      HCL      0.330000       1.00800           0
      8559 MEMB     83       POPE     HN3      HCL      0.330000       1.00800           0
      8560 MEMB     83       POPE     C12      CTL2     0.130000       12.0110           0
      8561 MEMB     83       POPE     H12A     HAL2     0.900000E-01   1.00800           0
      8562 MEMB     83       POPE     H12B     HAL2     0.900000E-01   1.00800           0
      8563 MEMB     83       POPE     C11      CTL2    -0.800000E-01   12.0110           0
      8564 MEMB     83       POPE     H11A     HAL2     0.900000E-01   1.00800           0
      8565 MEMB     83       POPE     H11B     HAL2     0.900000E-01   1.00800           0
      8566 MEMB     83       POPE     P        PL        1.50000       30.9740           0
      8567 MEMB     83       POPE     O13      O2L     -0.780000       15.9994           0
      8568 MEMB     83       POPE     O14      O2L     -0.780000       15.9994           0
      8569 MEMB     83       POPE     O11      OSLP    -0.570000       15.9994           0
      8570 MEMB     83       POPE     O12      OSLP    -0.570000       15.9994           0
      8571 MEMB     83       POPE     C1       CTL2    -0.800000E-01   12.0110           0
      8572 MEMB     83       POPE     HA       HAL2     0.900000E-01   1.00800           0
      8573 MEMB     83       POPE     HB       HAL2     0.900000E-01   1.00800           0
      8574 MEMB     83       POPE     C2       CTL1     0.170000       12.0110           0
      8575 MEMB     83       POPE     HS       HAL1     0.900000E-01   1.00800           0
      8576 MEMB     83       POPE     O21      OSL     -0.490000       15.9994           0
      8577 MEMB     83       POPE     C21      CL       0.900000       12.0110           0
      8578 MEMB     83       POPE     O22      OBL     -0.630000       15.9994           0
      8579 MEMB     83       POPE     C22      CTL2    -0.220000       12.0110           0
      8580 MEMB     83       POPE     H2R      HAL2     0.900000E-01   1.00800           0
      8581 MEMB     83       POPE     H2S      HAL2     0.900000E-01   1.00800           0
      8582 MEMB     83       POPE     C3       CTL2     0.800000E-01   12.0110           0
      8583 MEMB     83       POPE     HX       HAL2     0.900000E-01   1.00800           0
      8584 MEMB     83       POPE     HY       HAL2     0.900000E-01   1.00800           0
      8585 MEMB     83       POPE     O31      OSL     -0.490000       15.9994           0
      8586 MEMB     83       POPE     C31      CL       0.900000       12.0110           0
      8587 MEMB     83       POPE     O32      OBL     -0.630000       15.9994           0
      8588 MEMB     83       POPE     C32      CTL2    -0.220000       12.0110           0
      8589 MEMB     83       POPE     H2X      HAL2     0.900000E-01   1.00800           0
      8590 MEMB     83       POPE     H2Y      HAL2     0.900000E-01   1.00800           0
      8591 MEMB     83       POPE     C23      CTL2    -0.180000       12.0110           0
      8592 MEMB     83       POPE     H3R      HAL2     0.900000E-01   1.00800           0
      8593 MEMB     83       POPE     H3S      HAL2     0.900000E-01   1.00800           0
      8594 MEMB     83       POPE     C24      CTL2    -0.180000       12.0110           0
      8595 MEMB     83       POPE     H4R      HAL2     0.900000E-01   1.00800           0
      8596 MEMB     83       POPE     H4S      HAL2     0.900000E-01   1.00800           0
      8597 MEMB     83       POPE     C25      CTL2    -0.180000       12.0110           0
      8598 MEMB     83       POPE     H5R      HAL2     0.900000E-01   1.00800           0
      8599 MEMB     83       POPE     H5S      HAL2     0.900000E-01   1.00800           0
      8600 MEMB     83       POPE     C26      CTL2    -0.180000       12.0110           0
      8601 MEMB     83       POPE     H6R      HAL2     0.900000E-01   1.00800           0
      8602 MEMB     83       POPE     H6S      HAL2     0.900000E-01   1.00800           0
      8603 MEMB     83       POPE     C27      CTL2    -0.180000       12.0110           0
      8604 MEMB     83       POPE     H7R      HAL2     0.900000E-01   1.00800           0
      8605 MEMB     83       POPE     H7S      HAL2     0.900000E-01   1.00800           0
      8606 MEMB     83       POPE     C28      CTL2    -0.180000       12.0110           0
      8607 MEMB     83       POPE     H8R      HAL2     0.900000E-01   1.00800           0
      8608 MEMB     83       POPE     H8S      HAL2     0.900000E-01   1.00800           0
      8609 MEMB     83       POPE     C29      CEL1    -0.150000       12.0110           0
      8610 MEMB     83       POPE     H91      HEL1     0.150000       1.00800           0
      8611 MEMB     83       POPE     C210     CEL1    -0.150000       12.0110           0
      8612 MEMB     83       POPE     H101     HEL1     0.150000       1.00800           0
      8613 MEMB     83       POPE     C211     CTL2    -0.180000       12.0110           0
      8614 MEMB     83       POPE     H11R     HAL2     0.900000E-01   1.00800           0
      8615 MEMB     83       POPE     H11S     HAL2     0.900000E-01   1.00800           0
      8616 MEMB     83       POPE     C212     CTL2    -0.180000       12.0110           0
      8617 MEMB     83       POPE     H12R     HAL2     0.900000E-01   1.00800           0
      8618 MEMB     83       POPE     H12S     HAL2     0.900000E-01   1.00800           0
      8619 MEMB     83       POPE     C213     CTL2    -0.180000       12.0110           0
      8620 MEMB     83       POPE     H13R     HAL2     0.900000E-01   1.00800           0
      8621 MEMB     83       POPE     H13S     HAL2     0.900000E-01   1.00800           0
      8622 MEMB     83       POPE     C214     CTL2    -0.180000       12.0110           0
      8623 MEMB     83       POPE     H14R     HAL2     0.900000E-01   1.00800           0
      8624 MEMB     83       POPE     H14S     HAL2     0.900000E-01   1.00800           0
      8625 MEMB     83       POPE     C215     CTL2    -0.180000       12.0110           0
      8626 MEMB     83       POPE     H15R     HAL2     0.900000E-01   1.00800           0
      8627 MEMB     83       POPE     H15S     HAL2     0.900000E-01   1.00800           0
      8628 MEMB     83       POPE     C216     CTL2    -0.180000       12.0110           0
      8629 MEMB     83       POPE     H16R     HAL2     0.900000E-01   1.00800           0
      8630 MEMB     83       POPE     H16S     HAL2     0.900000E-01   1.00800           0
      8631 MEMB     83       POPE     C217     CTL2    -0.180000       12.0110           0
      8632 MEMB     83       POPE     H17R     HAL2     0.900000E-01   1.00800           0
      8633 MEMB     83       POPE     H17S     HAL2     0.900000E-01   1.00800           0
      8634 MEMB     83       POPE     C218     CTL3    -0.270000       12.0110           0
      8635 MEMB     83       POPE     H18R     HAL3     0.900000E-01   1.00800           0
      8636 MEMB     83       POPE     H18S     HAL3     0.900000E-01   1.00800           0
      8637 MEMB     83       POPE     H18T     HAL3     0.900000E-01   1.00800           0
      8638 MEMB     83       POPE     C33      CTL2    -0.180000       12.0110           0
      8639 MEMB     83       POPE     H3X      HAL2     0.900000E-01   1.00800           0
      8640 MEMB     83       POPE     H3Y      HAL2     0.900000E-01   1.00800           0
      8641 MEMB     83       POPE     C34      CTL2    -0.180000       12.0110           0
      8642 MEMB     83       POPE     H4X      HAL2     0.900000E-01   1.00800           0
      8643 MEMB     83       POPE     H4Y      HAL2     0.900000E-01   1.00800           0
      8644 MEMB     83       POPE     C35      CTL2    -0.180000       12.0110           0
      8645 MEMB     83       POPE     H5X      HAL2     0.900000E-01   1.00800           0
      8646 MEMB     83       POPE     H5Y      HAL2     0.900000E-01   1.00800           0
      8647 MEMB     83       POPE     C36      CTL2    -0.180000       12.0110           0
      8648 MEMB     83       POPE     H6X      HAL2     0.900000E-01   1.00800           0
      8649 MEMB     83       POPE     H6Y      HAL2     0.900000E-01   1.00800           0
      8650 MEMB     83       POPE     C37      CTL2    -0.180000       12.0110           0
      8651 MEMB     83       POPE     H7X      HAL2     0.900000E-01   1.00800           0
      8652 MEMB     83       POPE     H7Y      HAL2     0.900000E-01   1.00800           0
      8653 MEMB     83       POPE     C38      CTL2    -0.180000       12.0110           0
      8654 MEMB     83       POPE     H8X      HAL2     0.900000E-01   1.00800           0
      8655 MEMB     83       POPE     H8Y      HAL2     0.900000E-01   1.00800           0
      8656 MEMB     83       POPE     C39      CTL2    -0.180000       12.0110           0
      8657 MEMB     83       POPE     H9X      HAL2     0.900000E-01   1.00800           0
      8658 MEMB     83       POPE     H9Y      HAL2     0.900000E-01   1.00800           0
      8659 MEMB     83       POPE     C310     CTL2    -0.180000       12.0110           0
      8660 MEMB     83       POPE     H10X     HAL2     0.900000E-01   1.00800           0
      8661 MEMB     83       POPE     H10Y     HAL2     0.900000E-01   1.00800           0
      8662 MEMB     83       POPE     C311     CTL2    -0.180000       12.0110           0
      8663 MEMB     83       POPE     H11X     HAL2     0.900000E-01   1.00800           0
      8664 MEMB     83       POPE     H11Y     HAL2     0.900000E-01   1.00800           0
      8665 MEMB     83       POPE     C312     CTL2    -0.180000       12.0110           0
      8666 MEMB     83       POPE     H12X     HAL2     0.900000E-01   1.00800           0
      8667 MEMB     83       POPE     H12Y     HAL2     0.900000E-01   1.00800           0
      8668 MEMB     83       POPE     C313     CTL2    -0.180000       12.0110           0
      8669 MEMB     83       POPE     H13X     HAL2     0.900000E-01   1.00800           0
      8670 MEMB     83       POPE     H13Y     HAL2     0.900000E-01   1.00800           0
      8671 MEMB     83       POPE     C314     CTL2    -0.180000       12.0110           0
      8672 MEMB     83       POPE     H14X     HAL2     0.900000E-01   1.00800           0
      8673 MEMB     83       POPE     H14Y     HAL2     0.900000E-01   1.00800           0
      8674 MEMB     83       POPE     C315     CTL2    -0.180000       12.0110           0
      8675 MEMB     83       POPE     H15X     HAL2     0.900000E-01   1.00800           0
      8676 MEMB     83       POPE     H15Y     HAL2     0.900000E-01   1.00800           0
      8677 MEMB     83       POPE     C316     CTL3    -0.270000       12.0110           0
      8678 MEMB     83       POPE     H16X     HAL3     0.900000E-01   1.00800           0
      8679 MEMB     83       POPE     H16Y     HAL3     0.900000E-01   1.00800           0
      8680 MEMB     83       POPE     H16Z     HAL3     0.900000E-01   1.00800           0
      8681 MEMB     84       POPE     N        NH3L    -0.300000       14.0070           0
      8682 MEMB     84       POPE     HN1      HCL      0.330000       1.00800           0
      8683 MEMB     84       POPE     HN2      HCL      0.330000       1.00800           0
      8684 MEMB     84       POPE     HN3      HCL      0.330000       1.00800           0
      8685 MEMB     84       POPE     C12      CTL2     0.130000       12.0110           0
      8686 MEMB     84       POPE     H12A     HAL2     0.900000E-01   1.00800           0
      8687 MEMB     84       POPE     H12B     HAL2     0.900000E-01   1.00800           0
      8688 MEMB     84       POPE     C11      CTL2    -0.800000E-01   12.0110           0
      8689 MEMB     84       POPE     H11A     HAL2     0.900000E-01   1.00800           0
      8690 MEMB     84       POPE     H11B     HAL2     0.900000E-01   1.00800           0
      8691 MEMB     84       POPE     P        PL        1.50000       30.9740           0
      8692 MEMB     84       POPE     O13      O2L     -0.780000       15.9994           0
      8693 MEMB     84       POPE     O14      O2L     -0.780000       15.9994           0
      8694 MEMB     84       POPE     O11      OSLP    -0.570000       15.9994           0
      8695 MEMB     84       POPE     O12      OSLP    -0.570000       15.9994           0
      8696 MEMB     84       POPE     C1       CTL2    -0.800000E-01   12.0110           0
      8697 MEMB     84       POPE     HA       HAL2     0.900000E-01   1.00800           0
      8698 MEMB     84       POPE     HB       HAL2     0.900000E-01   1.00800           0
      8699 MEMB     84       POPE     C2       CTL1     0.170000       12.0110           0
      8700 MEMB     84       POPE     HS       HAL1     0.900000E-01   1.00800           0
      8701 MEMB     84       POPE     O21      OSL     -0.490000       15.9994           0
      8702 MEMB     84       POPE     C21      CL       0.900000       12.0110           0
      8703 MEMB     84       POPE     O22      OBL     -0.630000       15.9994           0
      8704 MEMB     84       POPE     C22      CTL2    -0.220000       12.0110           0
      8705 MEMB     84       POPE     H2R      HAL2     0.900000E-01   1.00800           0
      8706 MEMB     84       POPE     H2S      HAL2     0.900000E-01   1.00800           0
      8707 MEMB     84       POPE     C3       CTL2     0.800000E-01   12.0110           0
      8708 MEMB     84       POPE     HX       HAL2     0.900000E-01   1.00800           0
      8709 MEMB     84       POPE     HY       HAL2     0.900000E-01   1.00800           0
      8710 MEMB     84       POPE     O31      OSL     -0.490000       15.9994           0
      8711 MEMB     84       POPE     C31      CL       0.900000       12.0110           0
      8712 MEMB     84       POPE     O32      OBL     -0.630000       15.9994           0
      8713 MEMB     84       POPE     C32      CTL2    -0.220000       12.0110           0
      8714 MEMB     84       POPE     H2X      HAL2     0.900000E-01   1.00800           0
      8715 MEMB     84       POPE     H2Y      HAL2     0.900000E-01   1.00800           0
      8716 MEMB     84       POPE     C23      CTL2    -0.180000       12.0110           0
      8717 MEMB     84       POPE     H3R      HAL2     0.900000E-01   1.00800           0
      8718 MEMB     84       POPE     H3S      HAL2     0.900000E-01   1.00800           0
      8719 MEMB     84       POPE     C24      CTL2    -0.180000       12.0110           0
      8720 MEMB     84       POPE     H4R      HAL2     0.900000E-01   1.00800           0
      8721 MEMB     84       POPE     H4S      HAL2     0.900000E-01   1.00800           0
      8722 MEMB     84       POPE     C25      CTL2    -0.180000       12.0110           0
      8723 MEMB     84       POPE     H5R      HAL2     0.900000E-01   1.00800           0
      8724 MEMB     84       POPE     H5S      HAL2     0.900000E-01   1.00800           0
      8725 MEMB     84       POPE     C26      CTL2    -0.180000       12.0110           0
      8726 MEMB     84       POPE     H6R      HAL2     0.900000E-01   1.00800           0
      8727 MEMB     84       POPE     H6S      HAL2     0.900000E-01   1.00800           0
      8728 MEMB     84       POPE     C27      CTL2    -0.180000       12.0110           0
      8729 MEMB     84       POPE     H7R      HAL2     0.900000E-01   1.00800           0
      8730 MEMB     84       POPE     H7S      HAL2     0.900000E-01   1.00800           0
      8731 MEMB     84       POPE     C28      CTL2    -0.180000       12.0110           0
      8732 MEMB     84       POPE     H8R      HAL2     0.900000E-01   1.00800           0
      8733 MEMB     84       POPE     H8S      HAL2     0.900000E-01   1.00800           0
      8734 MEMB     84       POPE     C29      CEL1    -0.150000       12.0110           0
      8735 MEMB     84       POPE     H91      HEL1     0.150000       1.00800           0
      8736 MEMB     84       POPE     C210     CEL1    -0.150000       12.0110           0
      8737 MEMB     84       POPE     H101     HEL1     0.150000       1.00800           0
      8738 MEMB     84       POPE     C211     CTL2    -0.180000       12.0110           0
      8739 MEMB     84       POPE     H11R     HAL2     0.900000E-01   1.00800           0
      8740 MEMB     84       POPE     H11S     HAL2     0.900000E-01   1.00800           0
      8741 MEMB     84       POPE     C212     CTL2    -0.180000       12.0110           0
      8742 MEMB     84       POPE     H12R     HAL2     0.900000E-01   1.00800           0
      8743 MEMB     84       POPE     H12S     HAL2     0.900000E-01   1.00800           0
      8744 MEMB     84       POPE     C213     CTL2    -0.180000       12.0110           0
      8745 MEMB     84       POPE     H13R     HAL2     0.900000E-01   1.00800           0
      8746 MEMB     84       POPE     H13S     HAL2     0.900000E-01   1.00800           0
      8747 MEMB     84       POPE     C214     CTL2    -0.180000       12.0110           0
      8748 MEMB     84       POPE     H14R     HAL2     0.900000E-01   1.00800           0
      8749 MEMB     84       POPE     H14S     HAL2     0.900000E-01   1.00800           0
      8750 MEMB     84       POPE     C215     CTL2    -0.180000       12.0110           0
      8751 MEMB     84       POPE     H15R     HAL2     0.900000E-01   1.00800           0
      8752 MEMB     84       POPE     H15S     HAL2     0.900000E-01   1.00800           0
      8753 MEMB     84       POPE     C216     CTL2    -0.180000       12.0110           0
      8754 MEMB     84       POPE     H16R     HAL2     0.900000E-01   1.00800           0
      8755 MEMB     84       POPE     H16S     HAL2     0.900000E-01   1.00800           0
      8756 MEMB     84       POPE     C217     CTL2    -0.180000       12.0110           0
      8757 MEMB     84       POPE     H17R     HAL2     0.900000E-01   1.00800           0
      8758 MEMB     84       POPE     H17S     HAL2     0.900000E-01   1.00800           0
      8759 MEMB     84       POPE     C218     CTL3    -0.270000       12.0110           0
      8760 MEMB     84       POPE     H18R     HAL3     0.900000E-01   1.00800           0
      8761 MEMB     84       POPE     H18S     HAL3     0.900000E-01   1.00800           0
      8762 MEMB     84       POPE     H18T     HAL3     0.900000E-01   1.00800           0
      8763 MEMB     84       POPE     C33      CTL2    -0.180000       12.0110           0
      8764 MEMB     84       POPE     H3X      HAL2     0.900000E-01   1.00800           0
      8765 MEMB     84       POPE     H3Y      HAL2     0.900000E-01   1.00800           0
      8766 MEMB     84       POPE     C34      CTL2    -0.180000       12.0110           0
      8767 MEMB     84       POPE     H4X      HAL2     0.900000E-01   1.00800           0
      8768 MEMB     84       POPE     H4Y      HAL2     0.900000E-01   1.00800           0
      8769 MEMB     84       POPE     C35      CTL2    -0.180000       12.0110           0
      8770 MEMB     84       POPE     H5X      HAL2     0.900000E-01   1.00800           0
      8771 MEMB     84       POPE     H5Y      HAL2     0.900000E-01   1.00800           0
      8772 MEMB     84       POPE     C36      CTL2    -0.180000       12.0110           0
      8773 MEMB     84       POPE     H6X      HAL2     0.900000E-01   1.00800           0
      8774 MEMB     84       POPE     H6Y      HAL2     0.900000E-01   1.00800           0
      8775 MEMB     84       POPE     C37      CTL2    -0.180000       12.0110           0
      8776 MEMB     84       POPE     H7X      HAL2     0.900000E-01   1.00800           0
      8777 MEMB     84       POPE     H7Y      HAL2     0.900000E-01   1.00800           0
      8778 MEMB     84       POPE     C38      CTL2    -0.180000       12.0110           0
      8779 MEMB     84       POPE     H8X      HAL2     0.900000E-01   1.00800           0
      8780 MEMB     84       POPE     H8Y      HAL2     0.900000E-01   1.00800           0
      8781 MEMB     84       POPE     C39      CTL2    -0.180000       12.0110           0
      8782 MEMB     84       POPE     H9X      HAL2     0.900000E-01   1.00800           0
      8783 MEMB     84       POPE     H9Y      HAL2     0.900000E-01   1.00800           0
      8784 MEMB     84       POPE     C310     CTL2    -0.180000       12.0110           0
      8785 MEMB     84       POPE     H10X     HAL2     0.900000E-01   1.00800           0
      8786 MEMB     84       POPE     H10Y     HAL2     0.900000E-01   1.00800           0
      8787 MEMB     84       POPE     C311     CTL2    -0.180000       12.0110           0
      8788 MEMB     84       POPE     H11X     HAL2     0.900000E-01   1.00800           0
      8789 MEMB     84       POPE     H11Y     HAL2     0.900000E-01   1.00800           0
      8790 MEMB     84       POPE     C312     CTL2    -0.180000       12.0110           0
      8791 MEMB     84       POPE     H12X     HAL2     0.900000E-01   1.00800           0
      8792 MEMB     84       POPE     H12Y     HAL2     0.900000E-01   1.00800           0
      8793 MEMB     84       POPE     C313     CTL2    -0.180000       12.0110           0
      8794 MEMB     84       POPE     H13X     HAL2     0.900000E-01   1.00800           0
      8795 MEMB     84       POPE     H13Y     HAL2     0.900000E-01   1.00800           0
      8796 MEMB     84       POPE     C314     CTL2    -0.180000       12.0110           0
      8797 MEMB     84       POPE     H14X     HAL2     0.900000E-01   1.00800           0
      8798 MEMB     84       POPE     H14Y     HAL2     0.900000E-01   1.00800           0
      8799 MEMB     84       POPE     C315     CTL2    -0.180000       12.0110           0
      8800 MEMB     84       POPE     H15X     HAL2     0.900000E-01   1.00800           0
      8801 MEMB     84       POPE     H15Y     HAL2     0.900000E-01   1.00800           0
      8802 MEMB     84       POPE     C316     CTL3    -0.270000       12.0110           0
      8803 MEMB     84       POPE     H16X     HAL3     0.900000E-01   1.00800           0
      8804 MEMB     84       POPE     H16Y     HAL3     0.900000E-01   1.00800           0
      8805 MEMB     84       POPE     H16Z     HAL3     0.900000E-01   1.00800           0
      8806 MEMB     85       POPC     N        NTL     -0.600000       14.0070           0
      8807 MEMB     85       POPC     C12      CTL2    -0.100000       12.0110           0
      8808 MEMB     85       POPC     H12A     HL       0.250000       1.00800           0
      8809 MEMB     85       POPC     H12B     HL       0.250000       1.00800           0
      8810 MEMB     85       POPC     C13      CTL5    -0.350000       12.0110           0
      8811 MEMB     85       POPC     H13A     HL       0.250000       1.00800           0
      8812 MEMB     85       POPC     H13B     HL       0.250000       1.00800           0
      8813 MEMB     85       POPC     H13C     HL       0.250000       1.00800           0
      8814 MEMB     85       POPC     C14      CTL5    -0.350000       12.0110           0
      8815 MEMB     85       POPC     H14A     HL       0.250000       1.00800           0
      8816 MEMB     85       POPC     H14B     HL       0.250000       1.00800           0
      8817 MEMB     85       POPC     H14C     HL       0.250000       1.00800           0
      8818 MEMB     85       POPC     C15      CTL5    -0.350000       12.0110           0
      8819 MEMB     85       POPC     H15A     HL       0.250000       1.00800           0
      8820 MEMB     85       POPC     H15B     HL       0.250000       1.00800           0
      8821 MEMB     85       POPC     H15C     HL       0.250000       1.00800           0
      8822 MEMB     85       POPC     C11      CTL2    -0.800000E-01   12.0110           0
      8823 MEMB     85       POPC     H11A     HAL2     0.900000E-01   1.00800           0
      8824 MEMB     85       POPC     H11B     HAL2     0.900000E-01   1.00800           0
      8825 MEMB     85       POPC     P        PL        1.50000       30.9740           0
      8826 MEMB     85       POPC     O13      O2L     -0.780000       15.9994           0
      8827 MEMB     85       POPC     O14      O2L     -0.780000       15.9994           0
      8828 MEMB     85       POPC     O12      OSLP    -0.570000       15.9994           0
      8829 MEMB     85       POPC     O11      OSLP    -0.570000       15.9994           0
      8830 MEMB     85       POPC     C1       CTL2    -0.800000E-01   12.0110           0
      8831 MEMB     85       POPC     HA       HAL2     0.900000E-01   1.00800           0
      8832 MEMB     85       POPC     HB       HAL2     0.900000E-01   1.00800           0
      8833 MEMB     85       POPC     C2       CTL1     0.170000       12.0110           0
      8834 MEMB     85       POPC     HS       HAL1     0.900000E-01   1.00800           0
      8835 MEMB     85       POPC     O21      OSL     -0.490000       15.9994           0
      8836 MEMB     85       POPC     C21      CL       0.900000       12.0110           0
      8837 MEMB     85       POPC     O22      OBL     -0.630000       15.9994           0
      8838 MEMB     85       POPC     C22      CTL2    -0.220000       12.0110           0
      8839 MEMB     85       POPC     H2R      HAL2     0.900000E-01   1.00800           0
      8840 MEMB     85       POPC     H2S      HAL2     0.900000E-01   1.00800           0
      8841 MEMB     85       POPC     C3       CTL2     0.800000E-01   12.0110           0
      8842 MEMB     85       POPC     HX       HAL2     0.900000E-01   1.00800           0
      8843 MEMB     85       POPC     HY       HAL2     0.900000E-01   1.00800           0
      8844 MEMB     85       POPC     O31      OSL     -0.490000       15.9994           0
      8845 MEMB     85       POPC     C31      CL       0.900000       12.0110           0
      8846 MEMB     85       POPC     O32      OBL     -0.630000       15.9994           0
      8847 MEMB     85       POPC     C32      CTL2    -0.220000       12.0110           0
      8848 MEMB     85       POPC     H2X      HAL2     0.900000E-01   1.00800           0
      8849 MEMB     85       POPC     H2Y      HAL2     0.900000E-01   1.00800           0
      8850 MEMB     85       POPC     C23      CTL2    -0.180000       12.0110           0
      8851 MEMB     85       POPC     H3R      HAL2     0.900000E-01   1.00800           0
      8852 MEMB     85       POPC     H3S      HAL2     0.900000E-01   1.00800           0
      8853 MEMB     85       POPC     C24      CTL2    -0.180000       12.0110           0
      8854 MEMB     85       POPC     H4R      HAL2     0.900000E-01   1.00800           0
      8855 MEMB     85       POPC     H4S      HAL2     0.900000E-01   1.00800           0
      8856 MEMB     85       POPC     C25      CTL2    -0.180000       12.0110           0
      8857 MEMB     85       POPC     H5R      HAL2     0.900000E-01   1.00800           0
      8858 MEMB     85       POPC     H5S      HAL2     0.900000E-01   1.00800           0
      8859 MEMB     85       POPC     C26      CTL2    -0.180000       12.0110           0
      8860 MEMB     85       POPC     H6R      HAL2     0.900000E-01   1.00800           0
      8861 MEMB     85       POPC     H6S      HAL2     0.900000E-01   1.00800           0
      8862 MEMB     85       POPC     C27      CTL2    -0.180000       12.0110           0
      8863 MEMB     85       POPC     H7R      HAL2     0.900000E-01   1.00800           0
      8864 MEMB     85       POPC     H7S      HAL2     0.900000E-01   1.00800           0
      8865 MEMB     85       POPC     C28      CTL2    -0.180000       12.0110           0
      8866 MEMB     85       POPC     H8R      HAL2     0.900000E-01   1.00800           0
      8867 MEMB     85       POPC     H8S      HAL2     0.900000E-01   1.00800           0
      8868 MEMB     85       POPC     C29      CEL1    -0.150000       12.0110           0
      8869 MEMB     85       POPC     H91      HEL1     0.150000       1.00800           0
      8870 MEMB     85       POPC     C210     CEL1    -0.150000       12.0110           0
      8871 MEMB     85       POPC     H101     HEL1     0.150000       1.00800           0
      8872 MEMB     85       POPC     C211     CTL2    -0.180000       12.0110           0
      8873 MEMB     85       POPC     H11R     HAL2     0.900000E-01   1.00800           0
      8874 MEMB     85       POPC     H11S     HAL2     0.900000E-01   1.00800           0
      8875 MEMB     85       POPC     C212     CTL2    -0.180000       12.0110           0
      8876 MEMB     85       POPC     H12R     HAL2     0.900000E-01   1.00800           0
      8877 MEMB     85       POPC     H12S     HAL2     0.900000E-01   1.00800           0
      8878 MEMB     85       POPC     C213     CTL2    -0.180000       12.0110           0
      8879 MEMB     85       POPC     H13R     HAL2     0.900000E-01   1.00800           0
      8880 MEMB     85       POPC     H13S     HAL2     0.900000E-01   1.00800           0
      8881 MEMB     85       POPC     C214     CTL2    -0.180000       12.0110           0
      8882 MEMB     85       POPC     H14R     HAL2     0.900000E-01   1.00800           0
      8883 MEMB     85       POPC     H14S     HAL2     0.900000E-01   1.00800           0
      8884 MEMB     85       POPC     C215     CTL2    -0.180000       12.0110           0
      8885 MEMB     85       POPC     H15R     HAL2     0.900000E-01   1.00800           0
      8886 MEMB     85       POPC     H15S     HAL2     0.900000E-01   1.00800           0
      8887 MEMB     85       POPC     C216     CTL2    -0.180000       12.0110           0
      8888 MEMB     85       POPC     H16R     HAL2     0.900000E-01   1.00800           0
      8889 MEMB     85       POPC     H16S     HAL2     0.900000E-01   1.00800           0
      8890 MEMB     85       POPC     C217     CTL2    -0.180000       12.0110           0
      8891 MEMB     85       POPC     H17R     HAL2     0.900000E-01   1.00800           0
      8892 MEMB     85       POPC     H17S     HAL2     0.900000E-01   1.00800           0
      8893 MEMB     85       POPC     C218     CTL3    -0.270000       12.0110           0
      8894 MEMB     85       POPC     H18R     HAL3     0.900000E-01   1.00800           0
      8895 MEMB     85       POPC     H18S     HAL3     0.900000E-01   1.00800           0
      8896 MEMB     85       POPC     H18T     HAL3     0.900000E-01   1.00800           0
      8897 MEMB     85       POPC     C33      CTL2    -0.180000       12.0110           0
      8898 MEMB     85       POPC     H3X      HAL2     0.900000E-01   1.00800           0
      8899 MEMB     85       POPC     H3Y      HAL2     0.900000E-01   1.00800           0
      8900 MEMB     85       POPC     C34      CTL2    -0.180000       12.0110           0
      8901 MEMB     85       POPC     H4X      HAL2     0.900000E-01   1.00800           0
      8902 MEMB     85       POPC     H4Y      HAL2     0.900000E-01   1.00800           0
      8903 MEMB     85       POPC     C35      CTL2    -0.180000       12.0110           0
      8904 MEMB     85       POPC     H5X      HAL2     0.900000E-01   1.00800           0
      8905 MEMB     85       POPC     H5Y      HAL2     0.900000E-01   1.00800           0
      8906 MEMB     85       POPC     C36      CTL2    -0.180000       12.0110           0
      8907 MEMB     85       POPC     H6X      HAL2     0.900000E-01   1.00800           0
      8908 MEMB     85       POPC     H6Y      HAL2     0.900000E-01   1.00800           0
      8909 MEMB     85       POPC     C37      CTL2    -0.180000       12.0110           0
      8910 MEMB     85       POPC     H7X      HAL2     0.900000E-01   1.00800           0
      8911 MEMB     85       POPC     H7Y      HAL2     0.900000E-01   1.00800           0
      8912 MEMB     85       POPC     C38      CTL2    -0.180000       12.0110           0
      8913 MEMB     85       POPC     H8X      HAL2     0.900000E-01   1.00800           0
      8914 MEMB     85       POPC     H8Y      HAL2     0.900000E-01   1.00800           0
      8915 MEMB     85       POPC     C39      CTL2    -0.180000       12.0110           0
      8916 MEMB     85       POPC     H9X      HAL2     0.900000E-01   1.00800           0
      8917 MEMB     85       POPC     H9Y      HAL2     0.900000E-01   1.00800           0
      8918 MEMB     85       POPC     C310     CTL2    -0.180000       12.0110           0
      8919 MEMB     85       POPC     H10X     HAL2     0.900000E-01   1.00800           0
      8920 MEMB     85       POPC     H10Y     HAL2     0.900000E-01   1.00800           0
      8921 MEMB     85       POPC     C311     CTL2    -0.180000       12.0110           0
      8922 MEMB     85       POPC     H11X     HAL2     0.900000E-01   1.00800           0
      8923 MEMB     85       POPC     H11Y     HAL2     0.900000E-01   1.00800           0
      8924 MEMB     85       POPC     C312     CTL2    -0.180000       12.0110           0
      8925 MEMB     85       POPC     H12X     HAL2     0.900000E-01   1.00800           0
      8926 MEMB     85       POPC     H12Y     HAL2     0.900000E-01   1.00800           0
      8927 MEMB     85       POPC     C313     CTL2    -0.180000       12.0110           0
      8928 MEMB     85       POPC     H13X     HAL2     0.900000E-01   1.00800           0
      8929 MEMB     85       POPC     H13Y     HAL2     0.900000E-01   1.00800           0
      8930 MEMB     85       POPC     C314     CTL2    -0.180000       12.0110           0
      8931 MEMB     85       POPC     H14X     HAL2     0.900000E-01   1.00800           0
      8932 MEMB     85       POPC     H14Y     HAL2     0.900000E-01   1.00800           0
      8933 MEMB     85       POPC     C315     CTL2    -0.180000       12.0110           0
      8934 MEMB     85       POPC     H15X     HAL2     0.900000E-01   1.00800           0
      8935 MEMB     85       POPC     H15Y     HAL2     0.900000E-01   1.00800           0
      8936 MEMB     85       POPC     C316     CTL3    -0.270000       12.0110           0
      8937 MEMB     85       POPC     H16X     HAL3     0.900000E-01   1.00800           0
      8938 MEMB     85       POPC     H16Y     HAL3     0.900000E-01   1.00800           0
      8939 MEMB     85       POPC     H16Z     HAL3     0.900000E-01   1.00800           0
      8940 MEMB     86       POPE     N        NH3L    -0.300000       14.0070           0
      8941 MEMB     86       POPE     HN1      HCL      0.330000       1.00800           0
      8942 MEMB     86       POPE     HN2      HCL      0.330000       1.00800           0
      8943 MEMB     86       POPE     HN3      HCL      0.330000       1.00800           0
      8944 MEMB     86       POPE     C12      CTL2     0.130000       12.0110           0
      8945 MEMB     86       POPE     H12A     HAL2     0.900000E-01   1.00800           0
      8946 MEMB     86       POPE     H12B     HAL2     0.900000E-01   1.00800           0
      8947 MEMB     86       POPE     C11      CTL2    -0.800000E-01   12.0110           0
      8948 MEMB     86       POPE     H11A     HAL2     0.900000E-01   1.00800           0
      8949 MEMB     86       POPE     H11B     HAL2     0.900000E-01   1.00800           0
      8950 MEMB     86       POPE     P        PL        1.50000       30.9740           0
      8951 MEMB     86       POPE     O13      O2L     -0.780000       15.9994           0
      8952 MEMB     86       POPE     O14      O2L     -0.780000       15.9994           0
      8953 MEMB     86       POPE     O11      OSLP    -0.570000       15.9994           0
      8954 MEMB     86       POPE     O12      OSLP    -0.570000       15.9994           0
      8955 MEMB     86       POPE     C1       CTL2    -0.800000E-01   12.0110           0
      8956 MEMB     86       POPE     HA       HAL2     0.900000E-01   1.00800           0
      8957 MEMB     86       POPE     HB       HAL2     0.900000E-01   1.00800           0
      8958 MEMB     86       POPE     C2       CTL1     0.170000       12.0110           0
      8959 MEMB     86       POPE     HS       HAL1     0.900000E-01   1.00800           0
      8960 MEMB     86       POPE     O21      OSL     -0.490000       15.9994           0
      8961 MEMB     86       POPE     C21      CL       0.900000       12.0110           0
      8962 MEMB     86       POPE     O22      OBL     -0.630000       15.9994           0
      8963 MEMB     86       POPE     C22      CTL2    -0.220000       12.0110           0
      8964 MEMB     86       POPE     H2R      HAL2     0.900000E-01   1.00800           0
      8965 MEMB     86       POPE     H2S      HAL2     0.900000E-01   1.00800           0
      8966 MEMB     86       POPE     C3       CTL2     0.800000E-01   12.0110           0
      8967 MEMB     86       POPE     HX       HAL2     0.900000E-01   1.00800           0
      8968 MEMB     86       POPE     HY       HAL2     0.900000E-01   1.00800           0
      8969 MEMB     86       POPE     O31      OSL     -0.490000       15.9994           0
      8970 MEMB     86       POPE     C31      CL       0.900000       12.0110           0
      8971 MEMB     86       POPE     O32      OBL     -0.630000       15.9994           0
      8972 MEMB     86       POPE     C32      CTL2    -0.220000       12.0110           0
      8973 MEMB     86       POPE     H2X      HAL2     0.900000E-01   1.00800           0
      8974 MEMB     86       POPE     H2Y      HAL2     0.900000E-01   1.00800           0
      8975 MEMB     86       POPE     C23      CTL2    -0.180000       12.0110           0
      8976 MEMB     86       POPE     H3R      HAL2     0.900000E-01   1.00800           0
      8977 MEMB     86       POPE     H3S      HAL2     0.900000E-01   1.00800           0
      8978 MEMB     86       POPE     C24      CTL2    -0.180000       12.0110           0
      8979 MEMB     86       POPE     H4R      HAL2     0.900000E-01   1.00800           0
      8980 MEMB     86       POPE     H4S      HAL2     0.900000E-01   1.00800           0
      8981 MEMB     86       POPE     C25      CTL2    -0.180000       12.0110           0
      8982 MEMB     86       POPE     H5R      HAL2     0.900000E-01   1.00800           0
      8983 MEMB     86       POPE     H5S      HAL2     0.900000E-01   1.00800           0
      8984 MEMB     86       POPE     C26      CTL2    -0.180000       12.0110           0
      8985 MEMB     86       POPE     H6R      HAL2     0.900000E-01   1.00800           0
      8986 MEMB     86       POPE     H6S      HAL2     0.900000E-01   1.00800           0
      8987 MEMB     86       POPE     C27      CTL2    -0.180000       12.0110           0
      8988 MEMB     86       POPE     H7R      HAL2     0.900000E-01   1.00800           0
      8989 MEMB     86       POPE     H7S      HAL2     0.900000E-01   1.00800           0
      8990 MEMB     86       POPE     C28      CTL2    -0.180000       12.0110           0
      8991 MEMB     86       POPE     H8R      HAL2     0.900000E-01   1.00800           0
      8992 MEMB     86       POPE     H8S      HAL2     0.900000E-01   1.00800           0
      8993 MEMB     86       POPE     C29      CEL1    -0.150000       12.0110           0
      8994 MEMB     86       POPE     H91      HEL1     0.150000       1.00800           0
      8995 MEMB     86       POPE     C210     CEL1    -0.150000       12.0110           0
      8996 MEMB     86       POPE     H101     HEL1     0.150000       1.00800           0
      8997 MEMB     86       POPE     C211     CTL2    -0.180000       12.0110           0
      8998 MEMB     86       POPE     H11R     HAL2     0.900000E-01   1.00800           0
      8999 MEMB     86       POPE     H11S     HAL2     0.900000E-01   1.00800           0
      9000 MEMB     86       POPE     C212     CTL2    -0.180000       12.0110           0
      9001 MEMB     86       POPE     H12R     HAL2     0.900000E-01   1.00800           0
      9002 MEMB     86       POPE     H12S     HAL2     0.900000E-01   1.00800           0
      9003 MEMB     86       POPE     C213     CTL2    -0.180000       12.0110           0
      9004 MEMB     86       POPE     H13R     HAL2     0.900000E-01   1.00800           0
      9005 MEMB     86       POPE     H13S     HAL2     0.900000E-01   1.00800           0
      9006 MEMB     86       POPE     C214     CTL2    -0.180000       12.0110           0
      9007 MEMB     86       POPE     H14R     HAL2     0.900000E-01   1.00800           0
      9008 MEMB     86       POPE     H14S     HAL2     0.900000E-01   1.00800           0
      9009 MEMB     86       POPE     C215     CTL2    -0.180000       12.0110           0
      9010 MEMB     86       POPE     H15R     HAL2     0.900000E-01   1.00800           0
      9011 MEMB     86       POPE     H15S     HAL2     0.900000E-01   1.00800           0
      9012 MEMB     86       POPE     C216     CTL2    -0.180000       12.0110           0
      9013 MEMB     86       POPE     H16R     HAL2     0.900000E-01   1.00800           0
      9014 MEMB     86       POPE     H16S     HAL2     0.900000E-01   1.00800           0
      9015 MEMB     86       POPE     C217     CTL2    -0.180000       12.0110           0
      9016 MEMB     86       POPE     H17R     HAL2     0.900000E-01   1.00800           0
      9017 MEMB     86       POPE     H17S     HAL2     0.900000E-01   1.00800           0
      9018 MEMB     86       POPE     C218     CTL3    -0.270000       12.0110           0
      9019 MEMB     86       POPE     H18R     HAL3     0.900000E-01   1.00800           0
      9020 MEMB     86       POPE     H18S     HAL3     0.900000E-01   1.00800           0
      9021 MEMB     86       POPE     H18T     HAL3     0.900000E-01   1.00800           0
      9022 MEMB     86       POPE     C33      CTL2    -0.180000       12.0110           0
      9023 MEMB     86       POPE     H3X      HAL2     0.900000E-01   1.00800           0
      9024 MEMB     86       POPE     H3Y      HAL2     0.900000E-01   1.00800           0
      9025 MEMB     86       POPE     C34      CTL2    -0.180000       12.0110           0
      9026 MEMB     86       POPE     H4X      HAL2     0.900000E-01   1.00800           0
      9027 MEMB     86       POPE     H4Y      HAL2     0.900000E-01   1.00800           0
      9028 MEMB     86       POPE     C35      CTL2    -0.180000       12.0110           0
      9029 MEMB     86       POPE     H5X      HAL2     0.900000E-01   1.00800           0
      9030 MEMB     86       POPE     H5Y      HAL2     0.900000E-01   1.00800           0
      9031 MEMB     86       POPE     C36      CTL2    -0.180000       12.0110           0
      9032 MEMB     86       POPE     H6X      HAL2     0.900000E-01   1.00800           0
      9033 MEMB     86       POPE     H6Y      HAL2     0.900000E-01   1.00800           0
      9034 MEMB     86       POPE     C37      CTL2    -0.180000       12.0110           0
      9035 MEMB     86       POPE     H7X      HAL2     0.900000E-01   1.00800           0
      9036 MEMB     86       POPE     H7Y      HAL2     0.900000E-01   1.00800           0
      9037 MEMB     86       POPE     C38      CTL2    -0.180000       12.0110           0
      9038 MEMB     86       POPE     H8X      HAL2     0.900000E-01   1.00800           0
      9039 MEMB     86       POPE     H8Y      HAL2     0.900000E-01   1.00800           0
      9040 MEMB     86       POPE     C39      CTL2    -0.180000       12.0110           0
      9041 MEMB     86       POPE     H9X      HAL2     0.900000E-01   1.00800           0
      9042 MEMB     86       POPE     H9Y      HAL2     0.900000E-01   1.00800           0
      9043 MEMB     86       POPE     C310     CTL2    -0.180000       12.0110           0
      9044 MEMB     86       POPE     H10X     HAL2     0.900000E-01   1.00800           0
      9045 MEMB     86       POPE     H10Y     HAL2     0.900000E-01   1.00800           0
      9046 MEMB     86       POPE     C311     CTL2    -0.180000       12.0110           0
      9047 MEMB     86       POPE     H11X     HAL2     0.900000E-01   1.00800           0
      9048 MEMB     86       POPE     H11Y     HAL2     0.900000E-01   1.00800           0
      9049 MEMB     86       POPE     C312     CTL2    -0.180000       12.0110           0
      9050 MEMB     86       POPE     H12X     HAL2     0.900000E-01   1.00800           0
      9051 MEMB     86       POPE     H12Y     HAL2     0.900000E-01   1.00800           0
      9052 MEMB     86       POPE     C313     CTL2    -0.180000       12.0110           0
      9053 MEMB     86       POPE     H13X     HAL2     0.900000E-01   1.00800           0
      9054 MEMB     86       POPE     H13Y     HAL2     0.900000E-01   1.00800           0
      9055 MEMB     86       POPE     C314     CTL2    -0.180000       12.0110           0
      9056 MEMB     86       POPE     H14X     HAL2     0.900000E-01   1.00800           0
      9057 MEMB     86       POPE     H14Y     HAL2     0.900000E-01   1.00800           0
      9058 MEMB     86       POPE     C315     CTL2    -0.180000       12.0110           0
      9059 MEMB     86       POPE     H15X     HAL2     0.900000E-01   1.00800           0
      9060 MEMB     86       POPE     H15Y     HAL2     0.900000E-01   1.00800           0
      9061 MEMB     86       POPE     C316     CTL3    -0.270000       12.0110           0
      9062 MEMB     86       POPE     H16X     HAL3     0.900000E-01   1.00800           0
      9063 MEMB     86       POPE     H16Y     HAL3     0.900000E-01   1.00800           0
      9064 MEMB     86       POPE     H16Z     HAL3     0.900000E-01   1.00800           0
      9065 MEMB     87       POPC     N        NTL     -0.600000       14.0070           0
      9066 MEMB     87       POPC     C12      CTL2    -0.100000       12.0110           0
      9067 MEMB     87       POPC     H12A     HL       0.250000       1.00800           0
      9068 MEMB     87       POPC     H12B     HL       0.250000       1.00800           0
      9069 MEMB     87       POPC     C13      CTL5    -0.350000       12.0110           0
      9070 MEMB     87       POPC     H13A     HL       0.250000       1.00800           0
      9071 MEMB     87       POPC     H13B     HL       0.250000       1.00800           0
      9072 MEMB     87       POPC     H13C     HL       0.250000       1.00800           0
      9073 MEMB     87       POPC     C14      CTL5    -0.350000       12.0110           0
      9074 MEMB     87       POPC     H14A     HL       0.250000       1.00800           0
      9075 MEMB     87       POPC     H14B     HL       0.250000       1.00800           0
      9076 MEMB     87       POPC     H14C     HL       0.250000       1.00800           0
      9077 MEMB     87       POPC     C15      CTL5    -0.350000       12.0110           0
      9078 MEMB     87       POPC     H15A     HL       0.250000       1.00800           0
      9079 MEMB     87       POPC     H15B     HL       0.250000       1.00800           0
      9080 MEMB     87       POPC     H15C     HL       0.250000       1.00800           0
      9081 MEMB     87       POPC     C11      CTL2    -0.800000E-01   12.0110           0
      9082 MEMB     87       POPC     H11A     HAL2     0.900000E-01   1.00800           0
      9083 MEMB     87       POPC     H11B     HAL2     0.900000E-01   1.00800           0
      9084 MEMB     87       POPC     P        PL        1.50000       30.9740           0
      9085 MEMB     87       POPC     O13      O2L     -0.780000       15.9994           0
      9086 MEMB     87       POPC     O14      O2L     -0.780000       15.9994           0
      9087 MEMB     87       POPC     O12      OSLP    -0.570000       15.9994           0
      9088 MEMB     87       POPC     O11      OSLP    -0.570000       15.9994           0
      9089 MEMB     87       POPC     C1       CTL2    -0.800000E-01   12.0110           0
      9090 MEMB     87       POPC     HA       HAL2     0.900000E-01   1.00800           0
      9091 MEMB     87       POPC     HB       HAL2     0.900000E-01   1.00800           0
      9092 MEMB     87       POPC     C2       CTL1     0.170000       12.0110           0
      9093 MEMB     87       POPC     HS       HAL1     0.900000E-01   1.00800           0
      9094 MEMB     87       POPC     O21      OSL     -0.490000       15.9994           0
      9095 MEMB     87       POPC     C21      CL       0.900000       12.0110           0
      9096 MEMB     87       POPC     O22      OBL     -0.630000       15.9994           0
      9097 MEMB     87       POPC     C22      CTL2    -0.220000       12.0110           0
      9098 MEMB     87       POPC     H2R      HAL2     0.900000E-01   1.00800           0
      9099 MEMB     87       POPC     H2S      HAL2     0.900000E-01   1.00800           0
      9100 MEMB     87       POPC     C3       CTL2     0.800000E-01   12.0110           0
      9101 MEMB     87       POPC     HX       HAL2     0.900000E-01   1.00800           0
      9102 MEMB     87       POPC     HY       HAL2     0.900000E-01   1.00800           0
      9103 MEMB     87       POPC     O31      OSL     -0.490000       15.9994           0
      9104 MEMB     87       POPC     C31      CL       0.900000       12.0110           0
      9105 MEMB     87       POPC     O32      OBL     -0.630000       15.9994           0
      9106 MEMB     87       POPC     C32      CTL2    -0.220000       12.0110           0
      9107 MEMB     87       POPC     H2X      HAL2     0.900000E-01   1.00800           0
      9108 MEMB     87       POPC     H2Y      HAL2     0.900000E-01   1.00800           0
      9109 MEMB     87       POPC     C23      CTL2    -0.180000       12.0110           0
      9110 MEMB     87       POPC     H3R      HAL2     0.900000E-01   1.00800           0
      9111 MEMB     87       POPC     H3S      HAL2     0.900000E-01   1.00800           0
      9112 MEMB     87       POPC     C24      CTL2    -0.180000       12.0110           0
      9113 MEMB     87       POPC     H4R      HAL2     0.900000E-01   1.00800           0
      9114 MEMB     87       POPC     H4S      HAL2     0.900000E-01   1.00800           0
      9115 MEMB     87       POPC     C25      CTL2    -0.180000       12.0110           0
      9116 MEMB     87       POPC     H5R      HAL2     0.900000E-01   1.00800           0
      9117 MEMB     87       POPC     H5S      HAL2     0.900000E-01   1.00800           0
      9118 MEMB     87       POPC     C26      CTL2    -0.180000       12.0110           0
      9119 MEMB     87       POPC     H6R      HAL2     0.900000E-01   1.00800           0
      9120 MEMB     87       POPC     H6S      HAL2     0.900000E-01   1.00800           0
      9121 MEMB     87       POPC     C27      CTL2    -0.180000       12.0110           0
      9122 MEMB     87       POPC     H7R      HAL2     0.900000E-01   1.00800           0
      9123 MEMB     87       POPC     H7S      HAL2     0.900000E-01   1.00800           0
      9124 MEMB     87       POPC     C28      CTL2    -0.180000       12.0110           0
      9125 MEMB     87       POPC     H8R      HAL2     0.900000E-01   1.00800           0
      9126 MEMB     87       POPC     H8S      HAL2     0.900000E-01   1.00800           0
      9127 MEMB     87       POPC     C29      CEL1    -0.150000       12.0110           0
      9128 MEMB     87       POPC     H91      HEL1     0.150000       1.00800           0
      9129 MEMB     87       POPC     C210     CEL1    -0.150000       12.0110           0
      9130 MEMB     87       POPC     H101     HEL1     0.150000       1.00800           0
      9131 MEMB     87       POPC     C211     CTL2    -0.180000       12.0110           0
      9132 MEMB     87       POPC     H11R     HAL2     0.900000E-01   1.00800           0
      9133 MEMB     87       POPC     H11S     HAL2     0.900000E-01   1.00800           0
      9134 MEMB     87       POPC     C212     CTL2    -0.180000       12.0110           0
      9135 MEMB     87       POPC     H12R     HAL2     0.900000E-01   1.00800           0
      9136 MEMB     87       POPC     H12S     HAL2     0.900000E-01   1.00800           0
      9137 MEMB     87       POPC     C213     CTL2    -0.180000       12.0110           0
      9138 MEMB     87       POPC     H13R     HAL2     0.900000E-01   1.00800           0
      9139 MEMB     87       POPC     H13S     HAL2     0.900000E-01   1.00800           0
      9140 MEMB     87       POPC     C214     CTL2    -0.180000       12.0110           0
      9141 MEMB     87       POPC     H14R     HAL2     0.900000E-01   1.00800           0
      9142 MEMB     87       POPC     H14S     HAL2     0.900000E-01   1.00800           0
      9143 MEMB     87       POPC     C215     CTL2    -0.180000       12.0110           0
      9144 MEMB     87       POPC     H15R     HAL2     0.900000E-01   1.00800           0
      9145 MEMB     87       POPC     H15S     HAL2     0.900000E-01   1.00800           0
      9146 MEMB     87       POPC     C216     CTL2    -0.180000       12.0110           0
      9147 MEMB     87       POPC     H16R     HAL2     0.900000E-01   1.00800           0
      9148 MEMB     87       POPC     H16S     HAL2     0.900000E-01   1.00800           0
      9149 MEMB     87       POPC     C217     CTL2    -0.180000       12.0110           0
      9150 MEMB     87       POPC     H17R     HAL2     0.900000E-01   1.00800           0
      9151 MEMB     87       POPC     H17S     HAL2     0.900000E-01   1.00800           0
      9152 MEMB     87       POPC     C218     CTL3    -0.270000       12.0110           0
      9153 MEMB     87       POPC     H18R     HAL3     0.900000E-01   1.00800           0
      9154 MEMB     87       POPC     H18S     HAL3     0.900000E-01   1.00800           0
      9155 MEMB     87       POPC     H18T     HAL3     0.900000E-01   1.00800           0
      9156 MEMB     87       POPC     C33      CTL2    -0.180000       12.0110           0
      9157 MEMB     87       POPC     H3X      HAL2     0.900000E-01   1.00800           0
      9158 MEMB     87       POPC     H3Y      HAL2     0.900000E-01   1.00800           0
      9159 MEMB     87       POPC     C34      CTL2    -0.180000       12.0110           0
      9160 MEMB     87       POPC     H4X      HAL2     0.900000E-01   1.00800           0
      9161 MEMB     87       POPC     H4Y      HAL2     0.900000E-01   1.00800           0
      9162 MEMB     87       POPC     C35      CTL2    -0.180000       12.0110           0
      9163 MEMB     87       POPC     H5X      HAL2     0.900000E-01   1.00800           0
      9164 MEMB     87       POPC     H5Y      HAL2     0.900000E-01   1.00800           0
      9165 MEMB     87       POPC     C36      CTL2    -0.180000       12.0110           0
      9166 MEMB     87       POPC     H6X      HAL2     0.900000E-01   1.00800           0
      9167 MEMB     87       POPC     H6Y      HAL2     0.900000E-01   1.00800           0
      9168 MEMB     87       POPC     C37      CTL2    -0.180000       12.0110           0
      9169 MEMB     87       POPC     H7X      HAL2     0.900000E-01   1.00800           0
      9170 MEMB     87       POPC     H7Y      HAL2     0.900000E-01   1.00800           0
      9171 MEMB     87       POPC     C38      CTL2    -0.180000       12.0110           0
      9172 MEMB     87       POPC     H8X      HAL2     0.900000E-01   1.00800           0
      9173 MEMB     87       POPC     H8Y      HAL2     0.900000E-01   1.00800           0
      9174 MEMB     87       POPC     C39      CTL2    -0.180000       12.0110           0
      9175 MEMB     87       POPC     H9X      HAL2     0.900000E-01   1.00800           0
      9176 MEMB     87       POPC     H9Y      HAL2     0.900000E-01   1.00800           0
      9177 MEMB     87       POPC     C310     CTL2    -0.180000       12.0110           0
      9178 MEMB     87       POPC     H10X     HAL2     0.900000E-01   1.00800           0
      9179 MEMB     87       POPC     H10Y     HAL2     0.900000E-01   1.00800           0
      9180 MEMB     87       POPC     C311     CTL2    -0.180000       12.0110           0
      9181 MEMB     87       POPC     H11X     HAL2     0.900000E-01   1.00800           0
      9182 MEMB     87       POPC     H11Y     HAL2     0.900000E-01   1.00800           0
      9183 MEMB     87       POPC     C312     CTL2    -0.180000       12.0110           0
      9184 MEMB     87       POPC     H12X     HAL2     0.900000E-01   1.00800           0
      9185 MEMB     87       POPC     H12Y     HAL2     0.900000E-01   1.00800           0
      9186 MEMB     87       POPC     C313     CTL2    -0.180000       12.0110           0
      9187 MEMB     87       POPC     H13X     HAL2     0.900000E-01   1.00800           0
      9188 MEMB     87       POPC     H13Y     HAL2     0.900000E-01   1.00800           0
      9189 MEMB     87       POPC     C314     CTL2    -0.180000       12.0110           0
      9190 MEMB     87       POPC     H14X     HAL2     0.900000E-01   1.00800           0
      9191 MEMB     87       POPC     H14Y     HAL2     0.900000E-01   1.00800           0
      9192 MEMB     87       POPC     C315     CTL2    -0.180000       12.0110           0
      9193 MEMB     87       POPC     H15X     HAL2     0.900000E-01   1.00800           0
      9194 MEMB     87       POPC     H15Y     HAL2     0.900000E-01   1.00800           0
      9195 MEMB     87       POPC     C316     CTL3    -0.270000       12.0110           0
      9196 MEMB     87       POPC     H16X     HAL3     0.900000E-01   1.00800           0
      9197 MEMB     87       POPC     H16Y     HAL3     0.900000E-01   1.00800           0
      9198 MEMB     87       POPC     H16Z     HAL3     0.900000E-01   1.00800           0
      9199 MEMB     88       POPE     N        NH3L    -0.300000       14.0070           0
      9200 MEMB     88       POPE     HN1      HCL      0.330000       1.00800           0
      9201 MEMB     88       POPE     HN2      HCL      0.330000       1.00800           0
      9202 MEMB     88       POPE     HN3      HCL      0.330000       1.00800           0
      9203 MEMB     88       POPE     C12      CTL2     0.130000       12.0110           0
      9204 MEMB     88       POPE     H12A     HAL2     0.900000E-01   1.00800           0
      9205 MEMB     88       POPE     H12B     HAL2     0.900000E-01   1.00800           0
      9206 MEMB     88       POPE     C11      CTL2    -0.800000E-01   12.0110           0
      9207 MEMB     88       POPE     H11A     HAL2     0.900000E-01   1.00800           0
      9208 MEMB     88       POPE     H11B     HAL2     0.900000E-01   1.00800           0
      9209 MEMB     88       POPE     P        PL        1.50000       30.9740           0
      9210 MEMB     88       POPE     O13      O2L     -0.780000       15.9994           0
      9211 MEMB     88       POPE     O14      O2L     -0.780000       15.9994           0
      9212 MEMB     88       POPE     O11      OSLP    -0.570000       15.9994           0
      9213 MEMB     88       POPE     O12      OSLP    -0.570000       15.9994           0
      9214 MEMB     88       POPE     C1       CTL2    -0.800000E-01   12.0110           0
      9215 MEMB     88       POPE     HA       HAL2     0.900000E-01   1.00800           0
      9216 MEMB     88       POPE     HB       HAL2     0.900000E-01   1.00800           0
      9217 MEMB     88       POPE     C2       CTL1     0.170000       12.0110           0
      9218 MEMB     88       POPE     HS       HAL1     0.900000E-01   1.00800           0
      9219 MEMB     88       POPE     O21      OSL     -0.490000       15.9994           0
      9220 MEMB     88       POPE     C21      CL       0.900000       12.0110           0
      9221 MEMB     88       POPE     O22      OBL     -0.630000       15.9994           0
      9222 MEMB     88       POPE     C22      CTL2    -0.220000       12.0110           0
      9223 MEMB     88       POPE     H2R      HAL2     0.900000E-01   1.00800           0
      9224 MEMB     88       POPE     H2S      HAL2     0.900000E-01   1.00800           0
      9225 MEMB     88       POPE     C3       CTL2     0.800000E-01   12.0110           0
      9226 MEMB     88       POPE     HX       HAL2     0.900000E-01   1.00800           0
      9227 MEMB     88       POPE     HY       HAL2     0.900000E-01   1.00800           0
      9228 MEMB     88       POPE     O31      OSL     -0.490000       15.9994           0
      9229 MEMB     88       POPE     C31      CL       0.900000       12.0110           0
      9230 MEMB     88       POPE     O32      OBL     -0.630000       15.9994           0
      9231 MEMB     88       POPE     C32      CTL2    -0.220000       12.0110           0
      9232 MEMB     88       POPE     H2X      HAL2     0.900000E-01   1.00800           0
      9233 MEMB     88       POPE     H2Y      HAL2     0.900000E-01   1.00800           0
      9234 MEMB     88       POPE     C23      CTL2    -0.180000       12.0110           0
      9235 MEMB     88       POPE     H3R      HAL2     0.900000E-01   1.00800           0
      9236 MEMB     88       POPE     H3S      HAL2     0.900000E-01   1.00800           0
      9237 MEMB     88       POPE     C24      CTL2    -0.180000       12.0110           0
      9238 MEMB     88       POPE     H4R      HAL2     0.900000E-01   1.00800           0
      9239 MEMB     88       POPE     H4S      HAL2     0.900000E-01   1.00800           0
      9240 MEMB     88       POPE     C25      CTL2    -0.180000       12.0110           0
      9241 MEMB     88       POPE     H5R      HAL2     0.900000E-01   1.00800           0
      9242 MEMB     88       POPE     H5S      HAL2     0.900000E-01   1.00800           0
      9243 MEMB     88       POPE     C26      CTL2    -0.180000       12.0110           0
      9244 MEMB     88       POPE     H6R      HAL2     0.900000E-01   1.00800           0
      9245 MEMB     88       POPE     H6S      HAL2     0.900000E-01   1.00800           0
      9246 MEMB     88       POPE     C27      CTL2    -0.180000       12.0110           0
      9247 MEMB     88       POPE     H7R      HAL2     0.900000E-01   1.00800           0
      9248 MEMB     88       POPE     H7S      HAL2     0.900000E-01   1.00800           0
      9249 MEMB     88       POPE     C28      CTL2    -0.180000       12.0110           0
      9250 MEMB     88       POPE     H8R      HAL2     0.900000E-01   1.00800           0
      9251 MEMB     88       POPE     H8S      HAL2     0.900000E-01   1.00800           0
      9252 MEMB     88       POPE     C29      CEL1    -0.150000       12.0110           0
      9253 MEMB     88       POPE     H91      HEL1     0.150000       1.00800           0
      9254 MEMB     88       POPE     C210     CEL1    -0.150000       12.0110           0
      9255 MEMB     88       POPE     H101     HEL1     0.150000       1.00800           0
      9256 MEMB     88       POPE     C211     CTL2    -0.180000       12.0110           0
      9257 MEMB     88       POPE     H11R     HAL2     0.900000E-01   1.00800           0
      9258 MEMB     88       POPE     H11S     HAL2     0.900000E-01   1.00800           0
      9259 MEMB     88       POPE     C212     CTL2    -0.180000       12.0110           0
      9260 MEMB     88       POPE     H12R     HAL2     0.900000E-01   1.00800           0
      9261 MEMB     88       POPE     H12S     HAL2     0.900000E-01   1.00800           0
      9262 MEMB     88       POPE     C213     CTL2    -0.180000       12.0110           0
      9263 MEMB     88       POPE     H13R     HAL2     0.900000E-01   1.00800           0
      9264 MEMB     88       POPE     H13S     HAL2     0.900000E-01   1.00800           0
      9265 MEMB     88       POPE     C214     CTL2    -0.180000       12.0110           0
      9266 MEMB     88       POPE     H14R     HAL2     0.900000E-01   1.00800           0
      9267 MEMB     88       POPE     H14S     HAL2     0.900000E-01   1.00800           0
      9268 MEMB     88       POPE     C215     CTL2    -0.180000       12.0110           0
      9269 MEMB     88       POPE     H15R     HAL2     0.900000E-01   1.00800           0
      9270 MEMB     88       POPE     H15S     HAL2     0.900000E-01   1.00800           0
      9271 MEMB     88       POPE     C216     CTL2    -0.180000       12.0110           0
      9272 MEMB     88       POPE     H16R     HAL2     0.900000E-01   1.00800           0
      9273 MEMB     88       POPE     H16S     HAL2     0.900000E-01   1.00800           0
      9274 MEMB     88       POPE     C217     CTL2    -0.180000       12.0110           0
      9275 MEMB     88       POPE     H17R     HAL2     0.900000E-01   1.00800           0
      9276 MEMB     88       POPE     H17S     HAL2     0.900000E-01   1.00800           0
      9277 MEMB     88       POPE     C218     CTL3    -0.270000       12.0110           0
      9278 MEMB     88       POPE     H18R     HAL3     0.900000E-01   1.00800           0
      9279 MEMB     88       POPE     H18S     HAL3     0.900000E-01   1.00800           0
      9280 MEMB     88       POPE     H18T     HAL3     0.900000E-01   1.00800           0
      9281 MEMB     88       POPE     C33      CTL2    -0.180000       12.0110           0
      9282 MEMB     88       POPE     H3X      HAL2     0.900000E-01   1.00800           0
      9283 MEMB     88       POPE     H3Y      HAL2     0.900000E-01   1.00800           0
      9284 MEMB     88       POPE     C34      CTL2    -0.180000       12.0110           0
      9285 MEMB     88       POPE     H4X      HAL2     0.900000E-01   1.00800           0
      9286 MEMB     88       POPE     H4Y      HAL2     0.900000E-01   1.00800           0
      9287 MEMB     88       POPE     C35      CTL2    -0.180000       12.0110           0
      9288 MEMB     88       POPE     H5X      HAL2     0.900000E-01   1.00800           0
      9289 MEMB     88       POPE     H5Y      HAL2     0.900000E-01   1.00800           0
      9290 MEMB     88       POPE     C36      CTL2    -0.180000       12.0110           0
      9291 MEMB     88       POPE     H6X      HAL2     0.900000E-01   1.00800           0
      9292 MEMB     88       POPE     H6Y      HAL2     0.900000E-01   1.00800           0
      9293 MEMB     88       POPE     C37      CTL2    -0.180000       12.0110           0
      9294 MEMB     88       POPE     H7X      HAL2     0.900000E-01   1.00800           0
      9295 MEMB     88       POPE     H7Y      HAL2     0.900000E-01   1.00800           0
      9296 MEMB     88       POPE     C38      CTL2    -0.180000       12.0110           0
      9297 MEMB     88       POPE     H8X      HAL2     0.900000E-01   1.00800           0
      9298 MEMB     88       POPE     H8Y      HAL2     0.900000E-01   1.00800           0
      9299 MEMB     88       POPE     C39      CTL2    -0.180000       12.0110           0
      9300 MEMB     88       POPE     H9X      HAL2     0.900000E-01   1.00800           0
      9301 MEMB     88       POPE     H9Y      HAL2     0.900000E-01   1.00800           0
      9302 MEMB     88       POPE     C310     CTL2    -0.180000       12.0110           0
      9303 MEMB     88       POPE     H10X     HAL2     0.900000E-01   1.00800           0
      9304 MEMB     88       POPE     H10Y     HAL2     0.900000E-01   1.00800           0
      9305 MEMB     88       POPE     C311     CTL2    -0.180000       12.0110           0
      9306 MEMB     88       POPE     H11X     HAL2     0.900000E-01   1.00800           0
      9307 MEMB     88       POPE     H11Y     HAL2     0.900000E-01   1.00800           0
      9308 MEMB     88       POPE     C312     CTL2    -0.180000       12.0110           0
      9309 MEMB     88       POPE     H12X     HAL2     0.900000E-01   1.00800           0
      9310 MEMB     88       POPE     H12Y     HAL2     0.900000E-01   1.00800           0
      9311 MEMB     88       POPE     C313     CTL2    -0.180000       12.0110           0
      9312 MEMB     88       POPE     H13X     HAL2     0.900000E-01   1.00800           0
      9313 MEMB     88       POPE     H13Y     HAL2     0.900000E-01   1.00800           0
      9314 MEMB     88       POPE     C314     CTL2    -0.180000       12.0110           0
      9315 MEMB     88       POPE     H14X     HAL2     0.900000E-01   1.00800           0
      9316 MEMB     88       POPE     H14Y     HAL2     0.900000E-01   1.00800           0
      9317 MEMB     88       POPE     C315     CTL2    -0.180000       12.0110           0
      9318 MEMB     88       POPE     H15X     HAL2     0.900000E-01   1.00800           0
      9319 MEMB     88       POPE     H15Y     HAL2     0.900000E-01   1.00800           0
      9320 MEMB     88       POPE     C316     CTL3    -0.270000       12.0110           0
      9321 MEMB     88       POPE     H16X     HAL3     0.900000E-01   1.00800           0
      9322 MEMB     88       POPE     H16Y     HAL3     0.900000E-01   1.00800           0
      9323 MEMB     88       POPE     H16Z     HAL3     0.900000E-01   1.00800           0
      9324 MEMB     89       POPE     N        NH3L    -0.300000       14.0070           0
      9325 MEMB     89       POPE     HN1      HCL      0.330000       1.00800           0
      9326 MEMB     89       POPE     HN2      HCL      0.330000       1.00800           0
      9327 MEMB     89       POPE     HN3      HCL      0.330000       1.00800           0
      9328 MEMB     89       POPE     C12      CTL2     0.130000       12.0110           0
      9329 MEMB     89       POPE     H12A     HAL2     0.900000E-01   1.00800           0
      9330 MEMB     89       POPE     H12B     HAL2     0.900000E-01   1.00800           0
      9331 MEMB     89       POPE     C11      CTL2    -0.800000E-01   12.0110           0
      9332 MEMB     89       POPE     H11A     HAL2     0.900000E-01   1.00800           0
      9333 MEMB     89       POPE     H11B     HAL2     0.900000E-01   1.00800           0
      9334 MEMB     89       POPE     P        PL        1.50000       30.9740           0
      9335 MEMB     89       POPE     O13      O2L     -0.780000       15.9994           0
      9336 MEMB     89       POPE     O14      O2L     -0.780000       15.9994           0
      9337 MEMB     89       POPE     O11      OSLP    -0.570000       15.9994           0
      9338 MEMB     89       POPE     O12      OSLP    -0.570000       15.9994           0
      9339 MEMB     89       POPE     C1       CTL2    -0.800000E-01   12.0110           0
      9340 MEMB     89       POPE     HA       HAL2     0.900000E-01   1.00800           0
      9341 MEMB     89       POPE     HB       HAL2     0.900000E-01   1.00800           0
      9342 MEMB     89       POPE     C2       CTL1     0.170000       12.0110           0
      9343 MEMB     89       POPE     HS       HAL1     0.900000E-01   1.00800           0
      9344 MEMB     89       POPE     O21      OSL     -0.490000       15.9994           0
      9345 MEMB     89       POPE     C21      CL       0.900000       12.0110           0
      9346 MEMB     89       POPE     O22      OBL     -0.630000       15.9994           0
      9347 MEMB     89       POPE     C22      CTL2    -0.220000       12.0110           0
      9348 MEMB     89       POPE     H2R      HAL2     0.900000E-01   1.00800           0
      9349 MEMB     89       POPE     H2S      HAL2     0.900000E-01   1.00800           0
      9350 MEMB     89       POPE     C3       CTL2     0.800000E-01   12.0110           0
      9351 MEMB     89       POPE     HX       HAL2     0.900000E-01   1.00800           0
      9352 MEMB     89       POPE     HY       HAL2     0.900000E-01   1.00800           0
      9353 MEMB     89       POPE     O31      OSL     -0.490000       15.9994           0
      9354 MEMB     89       POPE     C31      CL       0.900000       12.0110           0
      9355 MEMB     89       POPE     O32      OBL     -0.630000       15.9994           0
      9356 MEMB     89       POPE     C32      CTL2    -0.220000       12.0110           0
      9357 MEMB     89       POPE     H2X      HAL2     0.900000E-01   1.00800           0
      9358 MEMB     89       POPE     H2Y      HAL2     0.900000E-01   1.00800           0
      9359 MEMB     89       POPE     C23      CTL2    -0.180000       12.0110           0
      9360 MEMB     89       POPE     H3R      HAL2     0.900000E-01   1.00800           0
      9361 MEMB     89       POPE     H3S      HAL2     0.900000E-01   1.00800           0
      9362 MEMB     89       POPE     C24      CTL2    -0.180000       12.0110           0
      9363 MEMB     89       POPE     H4R      HAL2     0.900000E-01   1.00800           0
      9364 MEMB     89       POPE     H4S      HAL2     0.900000E-01   1.00800           0
      9365 MEMB     89       POPE     C25      CTL2    -0.180000       12.0110           0
      9366 MEMB     89       POPE     H5R      HAL2     0.900000E-01   1.00800           0
      9367 MEMB     89       POPE     H5S      HAL2     0.900000E-01   1.00800           0
      9368 MEMB     89       POPE     C26      CTL2    -0.180000       12.0110           0
      9369 MEMB     89       POPE     H6R      HAL2     0.900000E-01   1.00800           0
      9370 MEMB     89       POPE     H6S      HAL2     0.900000E-01   1.00800           0
      9371 MEMB     89       POPE     C27      CTL2    -0.180000       12.0110           0
      9372 MEMB     89       POPE     H7R      HAL2     0.900000E-01   1.00800           0
      9373 MEMB     89       POPE     H7S      HAL2     0.900000E-01   1.00800           0
      9374 MEMB     89       POPE     C28      CTL2    -0.180000       12.0110           0
      9375 MEMB     89       POPE     H8R      HAL2     0.900000E-01   1.00800           0
      9376 MEMB     89       POPE     H8S      HAL2     0.900000E-01   1.00800           0
      9377 MEMB     89       POPE     C29      CEL1    -0.150000       12.0110           0
      9378 MEMB     89       POPE     H91      HEL1     0.150000       1.00800           0
      9379 MEMB     89       POPE     C210     CEL1    -0.150000       12.0110           0
      9380 MEMB     89       POPE     H101     HEL1     0.150000       1.00800           0
      9381 MEMB     89       POPE     C211     CTL2    -0.180000       12.0110           0
      9382 MEMB     89       POPE     H11R     HAL2     0.900000E-01   1.00800           0
      9383 MEMB     89       POPE     H11S     HAL2     0.900000E-01   1.00800           0
      9384 MEMB     89       POPE     C212     CTL2    -0.180000       12.0110           0
      9385 MEMB     89       POPE     H12R     HAL2     0.900000E-01   1.00800           0
      9386 MEMB     89       POPE     H12S     HAL2     0.900000E-01   1.00800           0
      9387 MEMB     89       POPE     C213     CTL2    -0.180000       12.0110           0
      9388 MEMB     89       POPE     H13R     HAL2     0.900000E-01   1.00800           0
      9389 MEMB     89       POPE     H13S     HAL2     0.900000E-01   1.00800           0
      9390 MEMB     89       POPE     C214     CTL2    -0.180000       12.0110           0
      9391 MEMB     89       POPE     H14R     HAL2     0.900000E-01   1.00800           0
      9392 MEMB     89       POPE     H14S     HAL2     0.900000E-01   1.00800           0
      9393 MEMB     89       POPE     C215     CTL2    -0.180000       12.0110           0
      9394 MEMB     89       POPE     H15R     HAL2     0.900000E-01   1.00800           0
      9395 MEMB     89       POPE     H15S     HAL2     0.900000E-01   1.00800           0
      9396 MEMB     89       POPE     C216     CTL2    -0.180000       12.0110           0
      9397 MEMB     89       POPE     H16R     HAL2     0.900000E-01   1.00800           0
      9398 MEMB     89       POPE     H16S     HAL2     0.900000E-01   1.00800           0
      9399 MEMB     89       POPE     C217     CTL2    -0.180000       12.0110           0
      9400 MEMB     89       POPE     H17R     HAL2     0.900000E-01   1.00800           0
      9401 MEMB     89       POPE     H17S     HAL2     0.900000E-01   1.00800           0
      9402 MEMB     89       POPE     C218     CTL3    -0.270000       12.0110           0
      9403 MEMB     89       POPE     H18R     HAL3     0.900000E-01   1.00800           0
      9404 MEMB     89       POPE     H18S     HAL3     0.900000E-01   1.00800           0
      9405 MEMB     89       POPE     H18T     HAL3     0.900000E-01   1.00800           0
      9406 MEMB     89       POPE     C33      CTL2    -0.180000       12.0110           0
      9407 MEMB     89       POPE     H3X      HAL2     0.900000E-01   1.00800           0
      9408 MEMB     89       POPE     H3Y      HAL2     0.900000E-01   1.00800           0
      9409 MEMB     89       POPE     C34      CTL2    -0.180000       12.0110           0
      9410 MEMB     89       POPE     H4X      HAL2     0.900000E-01   1.00800           0
      9411 MEMB     89       POPE     H4Y      HAL2     0.900000E-01   1.00800           0
      9412 MEMB     89       POPE     C35      CTL2    -0.180000       12.0110           0
      9413 MEMB     89       POPE     H5X      HAL2     0.900000E-01   1.00800           0
      9414 MEMB     89       POPE     H5Y      HAL2     0.900000E-01   1.00800           0
      9415 MEMB     89       POPE     C36      CTL2    -0.180000       12.0110           0
      9416 MEMB     89       POPE     H6X      HAL2     0.900000E-01   1.00800           0
      9417 MEMB     89       POPE     H6Y      HAL2     0.900000E-01   1.00800           0
      9418 MEMB     89       POPE     C37      CTL2    -0.180000       12.0110           0
      9419 MEMB     89       POPE     H7X      HAL2     0.900000E-01   1.00800           0
      9420 MEMB     89       POPE     H7Y      HAL2     0.900000E-01   1.00800           0
      9421 MEMB     89       POPE     C38      CTL2    -0.180000       12.0110           0
      9422 MEMB     89       POPE     H8X      HAL2     0.900000E-01   1.00800           0
      9423 MEMB     89       POPE     H8Y      HAL2     0.900000E-01   1.00800           0
      9424 MEMB     89       POPE     C39      CTL2    -0.180000       12.0110           0
      9425 MEMB     89       POPE     H9X      HAL2     0.900000E-01   1.00800           0
      9426 MEMB     89       POPE     H9Y      HAL2     0.900000E-01   1.00800           0
      9427 MEMB     89       POPE     C310     CTL2    -0.180000       12.0110           0
      9428 MEMB     89       POPE     H10X     HAL2     0.900000E-01   1.00800           0
      9429 MEMB     89       POPE     H10Y     HAL2     0.900000E-01   1.00800           0
      9430 MEMB     89       POPE     C311     CTL2    -0.180000       12.0110           0
      9431 MEMB     89       POPE     H11X     HAL2     0.900000E-01   1.00800           0
      9432 MEMB     89       POPE     H11Y     HAL2     0.900000E-01   1.00800           0
      9433 MEMB     89       POPE     C312     CTL2    -0.180000       12.0110           0
      9434 MEMB     89       POPE     H12X     HAL2     0.900000E-01   1.00800           0
      9435 MEMB     89       POPE     H12Y     HAL2     0.900000E-01   1.00800           0
      9436 MEMB     89       POPE     C313     CTL2    -0.180000       12.0110           0
      9437 MEMB     89       POPE     H13X     HAL2     0.900000E-01   1.00800           0
      9438 MEMB     89       POPE     H13Y     HAL2     0.900000E-01   1.00800           0
      9439 MEMB     89       POPE     C314     CTL2    -0.180000       12.0110           0
      9440 MEMB     89       POPE     H14X     HAL2     0.900000E-01   1.00800           0
      9441 MEMB     89       POPE     H14Y     HAL2     0.900000E-01   1.00800           0
      9442 MEMB     89       POPE     C315     CTL2    -0.180000       12.0110           0
      9443 MEMB     89       POPE     H15X     HAL2     0.900000E-01   1.00800           0
      9444 MEMB     89       POPE     H15Y     HAL2     0.900000E-01   1.00800           0
      9445 MEMB     89       POPE     C316     CTL3    -0.270000       12.0110           0
      9446 MEMB     89       POPE     H16X     HAL3     0.900000E-01   1.00800           0
      9447 MEMB     89       POPE     H16Y     HAL3     0.900000E-01   1.00800           0
      9448 MEMB     89       POPE     H16Z     HAL3     0.900000E-01   1.00800           0
      9449 MEMB     90       POPC     N        NTL     -0.600000       14.0070           0
      9450 MEMB     90       POPC     C12      CTL2    -0.100000       12.0110           0
      9451 MEMB     90       POPC     H12A     HL       0.250000       1.00800           0
      9452 MEMB     90       POPC     H12B     HL       0.250000       1.00800           0
      9453 MEMB     90       POPC     C13      CTL5    -0.350000       12.0110           0
      9454 MEMB     90       POPC     H13A     HL       0.250000       1.00800           0
      9455 MEMB     90       POPC     H13B     HL       0.250000       1.00800           0
      9456 MEMB     90       POPC     H13C     HL       0.250000       1.00800           0
      9457 MEMB     90       POPC     C14      CTL5    -0.350000       12.0110           0
      9458 MEMB     90       POPC     H14A     HL       0.250000       1.00800           0
      9459 MEMB     90       POPC     H14B     HL       0.250000       1.00800           0
      9460 MEMB     90       POPC     H14C     HL       0.250000       1.00800           0
      9461 MEMB     90       POPC     C15      CTL5    -0.350000       12.0110           0
      9462 MEMB     90       POPC     H15A     HL       0.250000       1.00800           0
      9463 MEMB     90       POPC     H15B     HL       0.250000       1.00800           0
      9464 MEMB     90       POPC     H15C     HL       0.250000       1.00800           0
      9465 MEMB     90       POPC     C11      CTL2    -0.800000E-01   12.0110           0
      9466 MEMB     90       POPC     H11A     HAL2     0.900000E-01   1.00800           0
      9467 MEMB     90       POPC     H11B     HAL2     0.900000E-01   1.00800           0
      9468 MEMB     90       POPC     P        PL        1.50000       30.9740           0
      9469 MEMB     90       POPC     O13      O2L     -0.780000       15.9994           0
      9470 MEMB     90       POPC     O14      O2L     -0.780000       15.9994           0
      9471 MEMB     90       POPC     O12      OSLP    -0.570000       15.9994           0
      9472 MEMB     90       POPC     O11      OSLP    -0.570000       15.9994           0
      9473 MEMB     90       POPC     C1       CTL2    -0.800000E-01   12.0110           0
      9474 MEMB     90       POPC     HA       HAL2     0.900000E-01   1.00800           0
      9475 MEMB     90       POPC     HB       HAL2     0.900000E-01   1.00800           0
      9476 MEMB     90       POPC     C2       CTL1     0.170000       12.0110           0
      9477 MEMB     90       POPC     HS       HAL1     0.900000E-01   1.00800           0
      9478 MEMB     90       POPC     O21      OSL     -0.490000       15.9994           0
      9479 MEMB     90       POPC     C21      CL       0.900000       12.0110           0
      9480 MEMB     90       POPC     O22      OBL     -0.630000       15.9994           0
      9481 MEMB     90       POPC     C22      CTL2    -0.220000       12.0110           0
      9482 MEMB     90       POPC     H2R      HAL2     0.900000E-01   1.00800           0
      9483 MEMB     90       POPC     H2S      HAL2     0.900000E-01   1.00800           0
      9484 MEMB     90       POPC     C3       CTL2     0.800000E-01   12.0110           0
      9485 MEMB     90       POPC     HX       HAL2     0.900000E-01   1.00800           0
      9486 MEMB     90       POPC     HY       HAL2     0.900000E-01   1.00800           0
      9487 MEMB     90       POPC     O31      OSL     -0.490000       15.9994           0
      9488 MEMB     90       POPC     C31      CL       0.900000       12.0110           0
      9489 MEMB     90       POPC     O32      OBL     -0.630000       15.9994           0
      9490 MEMB     90       POPC     C32      CTL2    -0.220000       12.0110           0
      9491 MEMB     90       POPC     H2X      HAL2     0.900000E-01   1.00800           0
      9492 MEMB     90       POPC     H2Y      HAL2     0.900000E-01   1.00800           0
      9493 MEMB     90       POPC     C23      CTL2    -0.180000       12.0110           0
      9494 MEMB     90       POPC     H3R      HAL2     0.900000E-01   1.00800           0
      9495 MEMB     90       POPC     H3S      HAL2     0.900000E-01   1.00800           0
      9496 MEMB     90       POPC     C24      CTL2    -0.180000       12.0110           0
      9497 MEMB     90       POPC     H4R      HAL2     0.900000E-01   1.00800           0
      9498 MEMB     90       POPC     H4S      HAL2     0.900000E-01   1.00800           0
      9499 MEMB     90       POPC     C25      CTL2    -0.180000       12.0110           0
      9500 MEMB     90       POPC     H5R      HAL2     0.900000E-01   1.00800           0
      9501 MEMB     90       POPC     H5S      HAL2     0.900000E-01   1.00800           0
      9502 MEMB     90       POPC     C26      CTL2    -0.180000       12.0110           0
      9503 MEMB     90       POPC     H6R      HAL2     0.900000E-01   1.00800           0
      9504 MEMB     90       POPC     H6S      HAL2     0.900000E-01   1.00800           0
      9505 MEMB     90       POPC     C27      CTL2    -0.180000       12.0110           0
      9506 MEMB     90       POPC     H7R      HAL2     0.900000E-01   1.00800           0
      9507 MEMB     90       POPC     H7S      HAL2     0.900000E-01   1.00800           0
      9508 MEMB     90       POPC     C28      CTL2    -0.180000       12.0110           0
      9509 MEMB     90       POPC     H8R      HAL2     0.900000E-01   1.00800           0
      9510 MEMB     90       POPC     H8S      HAL2     0.900000E-01   1.00800           0
      9511 MEMB     90       POPC     C29      CEL1    -0.150000       12.0110           0
      9512 MEMB     90       POPC     H91      HEL1     0.150000       1.00800           0
      9513 MEMB     90       POPC     C210     CEL1    -0.150000       12.0110           0
      9514 MEMB     90       POPC     H101     HEL1     0.150000       1.00800           0
      9515 MEMB     90       POPC     C211     CTL2    -0.180000       12.0110           0
      9516 MEMB     90       POPC     H11R     HAL2     0.900000E-01   1.00800           0
      9517 MEMB     90       POPC     H11S     HAL2     0.900000E-01   1.00800           0
      9518 MEMB     90       POPC     C212     CTL2    -0.180000       12.0110           0
      9519 MEMB     90       POPC     H12R     HAL2     0.900000E-01   1.00800           0
      9520 MEMB     90       POPC     H12S     HAL2     0.900000E-01   1.00800           0
      9521 MEMB     90       POPC     C213     CTL2    -0.180000       12.0110           0
      9522 MEMB     90       POPC     H13R     HAL2     0.900000E-01   1.00800           0
      9523 MEMB     90       POPC     H13S     HAL2     0.900000E-01   1.00800           0
      9524 MEMB     90       POPC     C214     CTL2    -0.180000       12.0110           0
      9525 MEMB     90       POPC     H14R     HAL2     0.900000E-01   1.00800           0
      9526 MEMB     90       POPC     H14S     HAL2     0.900000E-01   1.00800           0
      9527 MEMB     90       POPC     C215     CTL2    -0.180000       12.0110           0
      9528 MEMB     90       POPC     H15R     HAL2     0.900000E-01   1.00800           0
      9529 MEMB     90       POPC     H15S     HAL2     0.900000E-01   1.00800           0
      9530 MEMB     90       POPC     C216     CTL2    -0.180000       12.0110           0
      9531 MEMB     90       POPC     H16R     HAL2     0.900000E-01   1.00800           0
      9532 MEMB     90       POPC     H16S     HAL2     0.900000E-01   1.00800           0
      9533 MEMB     90       POPC     C217     CTL2    -0.180000       12.0110           0
      9534 MEMB     90       POPC     H17R     HAL2     0.900000E-01   1.00800           0
      9535 MEMB     90       POPC     H17S     HAL2     0.900000E-01   1.00800           0
      9536 MEMB     90       POPC     C218     CTL3    -0.270000       12.0110           0
      9537 MEMB     90       POPC     H18R     HAL3     0.900000E-01   1.00800           0
      9538 MEMB     90       POPC     H18S     HAL3     0.900000E-01   1.00800           0
      9539 MEMB     90       POPC     H18T     HAL3     0.900000E-01   1.00800           0
      9540 MEMB     90       POPC     C33      CTL2    -0.180000       12.0110           0
      9541 MEMB     90       POPC     H3X      HAL2     0.900000E-01   1.00800           0
      9542 MEMB     90       POPC     H3Y      HAL2     0.900000E-01   1.00800           0
      9543 MEMB     90       POPC     C34      CTL2    -0.180000       12.0110           0
      9544 MEMB     90       POPC     H4X      HAL2     0.900000E-01   1.00800           0
      9545 MEMB     90       POPC     H4Y      HAL2     0.900000E-01   1.00800           0
      9546 MEMB     90       POPC     C35      CTL2    -0.180000       12.0110           0
      9547 MEMB     90       POPC     H5X      HAL2     0.900000E-01   1.00800           0
      9548 MEMB     90       POPC     H5Y      HAL2     0.900000E-01   1.00800           0
      9549 MEMB     90       POPC     C36      CTL2    -0.180000       12.0110           0
      9550 MEMB     90       POPC     H6X      HAL2     0.900000E-01   1.00800           0
      9551 MEMB     90       POPC     H6Y      HAL2     0.900000E-01   1.00800           0
      9552 MEMB     90       POPC     C37      CTL2    -0.180000       12.0110           0
      9553 MEMB     90       POPC     H7X      HAL2     0.900000E-01   1.00800           0
      9554 MEMB     90       POPC     H7Y      HAL2     0.900000E-01   1.00800           0
      9555 MEMB     90       POPC     C38      CTL2    -0.180000       12.0110           0
      9556 MEMB     90       POPC     H8X      HAL2     0.900000E-01   1.00800           0
      9557 MEMB     90       POPC     H8Y      HAL2     0.900000E-01   1.00800           0
      9558 MEMB     90       POPC     C39      CTL2    -0.180000       12.0110           0
      9559 MEMB     90       POPC     H9X      HAL2     0.900000E-01   1.00800           0
      9560 MEMB     90       POPC     H9Y      HAL2     0.900000E-01   1.00800           0
      9561 MEMB     90       POPC     C310     CTL2    -0.180000       12.0110           0
      9562 MEMB     90       POPC     H10X     HAL2     0.900000E-01   1.00800           0
      9563 MEMB     90       POPC     H10Y     HAL2     0.900000E-01   1.00800           0
      9564 MEMB     90       POPC     C311     CTL2    -0.180000       12.0110           0
      9565 MEMB     90       POPC     H11X     HAL2     0.900000E-01   1.00800           0
      9566 MEMB     90       POPC     H11Y     HAL2     0.900000E-01   1.00800           0
      9567 MEMB     90       POPC     C312     CTL2    -0.180000       12.0110           0
      9568 MEMB     90       POPC     H12X     HAL2     0.900000E-01   1.00800           0
      9569 MEMB     90       POPC     H12Y     HAL2     0.900000E-01   1.00800           0
      9570 MEMB     90       POPC     C313     CTL2    -0.180000       12.0110           0
      9571 MEMB     90       POPC     H13X     HAL2     0.900000E-01   1.00800           0
      9572 MEMB     90       POPC     H13Y     HAL2     0.900000E-01   1.00800           0
      9573 MEMB     90       POPC     C314     CTL2    -0.180000       12.0110           0
      9574 MEMB     90       POPC     H14X     HAL2     0.900000E-01   1.00800           0
      9575 MEMB     90       POPC     H14Y     HAL2     0.900000E-01   1.00800           0
      9576 MEMB     90       POPC     C315     CTL2    -0.180000       12.0110           0
      9577 MEMB     90       POPC     H15X     HAL2     0.900000E-01   1.00800           0
      9578 MEMB     90       POPC     H15Y     HAL2     0.900000E-01   1.00800           0
      9579 MEMB     90       POPC     C316     CTL3    -0.270000       12.0110           0
      9580 MEMB     90       POPC     H16X     HAL3     0.900000E-01   1.00800           0
      9581 MEMB     90       POPC     H16Y     HAL3     0.900000E-01   1.00800           0
      9582 MEMB     90       POPC     H16Z     HAL3     0.900000E-01   1.00800           0
      9583 MEMB     91       POPE     N        NH3L    -0.300000       14.0070           0
      9584 MEMB     91       POPE     HN1      HCL      0.330000       1.00800           0
      9585 MEMB     91       POPE     HN2      HCL      0.330000       1.00800           0
      9586 MEMB     91       POPE     HN3      HCL      0.330000       1.00800           0
      9587 MEMB     91       POPE     C12      CTL2     0.130000       12.0110           0
      9588 MEMB     91       POPE     H12A     HAL2     0.900000E-01   1.00800           0
      9589 MEMB     91       POPE     H12B     HAL2     0.900000E-01   1.00800           0
      9590 MEMB     91       POPE     C11      CTL2    -0.800000E-01   12.0110           0
      9591 MEMB     91       POPE     H11A     HAL2     0.900000E-01   1.00800           0
      9592 MEMB     91       POPE     H11B     HAL2     0.900000E-01   1.00800           0
      9593 MEMB     91       POPE     P        PL        1.50000       30.9740           0
      9594 MEMB     91       POPE     O13      O2L     -0.780000       15.9994           0
      9595 MEMB     91       POPE     O14      O2L     -0.780000       15.9994           0
      9596 MEMB     91       POPE     O11      OSLP    -0.570000       15.9994           0
      9597 MEMB     91       POPE     O12      OSLP    -0.570000       15.9994           0
      9598 MEMB     91       POPE     C1       CTL2    -0.800000E-01   12.0110           0
      9599 MEMB     91       POPE     HA       HAL2     0.900000E-01   1.00800           0
      9600 MEMB     91       POPE     HB       HAL2     0.900000E-01   1.00800           0
      9601 MEMB     91       POPE     C2       CTL1     0.170000       12.0110           0
      9602 MEMB     91       POPE     HS       HAL1     0.900000E-01   1.00800           0
      9603 MEMB     91       POPE     O21      OSL     -0.490000       15.9994           0
      9604 MEMB     91       POPE     C21      CL       0.900000       12.0110           0
      9605 MEMB     91       POPE     O22      OBL     -0.630000       15.9994           0
      9606 MEMB     91       POPE     C22      CTL2    -0.220000       12.0110           0
      9607 MEMB     91       POPE     H2R      HAL2     0.900000E-01   1.00800           0
      9608 MEMB     91       POPE     H2S      HAL2     0.900000E-01   1.00800           0
      9609 MEMB     91       POPE     C3       CTL2     0.800000E-01   12.0110           0
      9610 MEMB     91       POPE     HX       HAL2     0.900000E-01   1.00800           0
      9611 MEMB     91       POPE     HY       HAL2     0.900000E-01   1.00800           0
      9612 MEMB     91       POPE     O31      OSL     -0.490000       15.9994           0
      9613 MEMB     91       POPE     C31      CL       0.900000       12.0110           0
      9614 MEMB     91       POPE     O32      OBL     -0.630000       15.9994           0
      9615 MEMB     91       POPE     C32      CTL2    -0.220000       12.0110           0
      9616 MEMB     91       POPE     H2X      HAL2     0.900000E-01   1.00800           0
      9617 MEMB     91       POPE     H2Y      HAL2     0.900000E-01   1.00800           0
      9618 MEMB     91       POPE     C23      CTL2    -0.180000       12.0110           0
      9619 MEMB     91       POPE     H3R      HAL2     0.900000E-01   1.00800           0
      9620 MEMB     91       POPE     H3S      HAL2     0.900000E-01   1.00800           0
      9621 MEMB     91       POPE     C24      CTL2    -0.180000       12.0110           0
      9622 MEMB     91       POPE     H4R      HAL2     0.900000E-01   1.00800           0
      9623 MEMB     91       POPE     H4S      HAL2     0.900000E-01   1.00800           0
      9624 MEMB     91       POPE     C25      CTL2    -0.180000       12.0110           0
      9625 MEMB     91       POPE     H5R      HAL2     0.900000E-01   1.00800           0
      9626 MEMB     91       POPE     H5S      HAL2     0.900000E-01   1.00800           0
      9627 MEMB     91       POPE     C26      CTL2    -0.180000       12.0110           0
      9628 MEMB     91       POPE     H6R      HAL2     0.900000E-01   1.00800           0
      9629 MEMB     91       POPE     H6S      HAL2     0.900000E-01   1.00800           0
      9630 MEMB     91       POPE     C27      CTL2    -0.180000       12.0110           0
      9631 MEMB     91       POPE     H7R      HAL2     0.900000E-01   1.00800           0
      9632 MEMB     91       POPE     H7S      HAL2     0.900000E-01   1.00800           0
      9633 MEMB     91       POPE     C28      CTL2    -0.180000       12.0110           0
      9634 MEMB     91       POPE     H8R      HAL2     0.900000E-01   1.00800           0
      9635 MEMB     91       POPE     H8S      HAL2     0.900000E-01   1.00800           0
      9636 MEMB     91       POPE     C29      CEL1    -0.150000       12.0110           0
      9637 MEMB     91       POPE     H91      HEL1     0.150000       1.00800           0
      9638 MEMB     91       POPE     C210     CEL1    -0.150000       12.0110           0
      9639 MEMB     91       POPE     H101     HEL1     0.150000       1.00800           0
      9640 MEMB     91       POPE     C211     CTL2    -0.180000       12.0110           0
      9641 MEMB     91       POPE     H11R     HAL2     0.900000E-01   1.00800           0
      9642 MEMB     91       POPE     H11S     HAL2     0.900000E-01   1.00800           0
      9643 MEMB     91       POPE     C212     CTL2    -0.180000       12.0110           0
      9644 MEMB     91       POPE     H12R     HAL2     0.900000E-01   1.00800           0
      9645 MEMB     91       POPE     H12S     HAL2     0.900000E-01   1.00800           0
      9646 MEMB     91       POPE     C213     CTL2    -0.180000       12.0110           0
      9647 MEMB     91       POPE     H13R     HAL2     0.900000E-01   1.00800           0
      9648 MEMB     91       POPE     H13S     HAL2     0.900000E-01   1.00800           0
      9649 MEMB     91       POPE     C214     CTL2    -0.180000       12.0110           0
      9650 MEMB     91       POPE     H14R     HAL2     0.900000E-01   1.00800           0
      9651 MEMB     91       POPE     H14S     HAL2     0.900000E-01   1.00800           0
      9652 MEMB     91       POPE     C215     CTL2    -0.180000       12.0110           0
      9653 MEMB     91       POPE     H15R     HAL2     0.900000E-01   1.00800           0
      9654 MEMB     91       POPE     H15S     HAL2     0.900000E-01   1.00800           0
      9655 MEMB     91       POPE     C216     CTL2    -0.180000       12.0110           0
      9656 MEMB     91       POPE     H16R     HAL2     0.900000E-01   1.00800           0
      9657 MEMB     91       POPE     H16S     HAL2     0.900000E-01   1.00800           0
      9658 MEMB     91       POPE     C217     CTL2    -0.180000       12.0110           0
      9659 MEMB     91       POPE     H17R     HAL2     0.900000E-01   1.00800           0
      9660 MEMB     91       POPE     H17S     HAL2     0.900000E-01   1.00800           0
      9661 MEMB     91       POPE     C218     CTL3    -0.270000       12.0110           0
      9662 MEMB     91       POPE     H18R     HAL3     0.900000E-01   1.00800           0
      9663 MEMB     91       POPE     H18S     HAL3     0.900000E-01   1.00800           0
      9664 MEMB     91       POPE     H18T     HAL3     0.900000E-01   1.00800           0
      9665 MEMB     91       POPE     C33      CTL2    -0.180000       12.0110           0
      9666 MEMB     91       POPE     H3X      HAL2     0.900000E-01   1.00800           0
      9667 MEMB     91       POPE     H3Y      HAL2     0.900000E-01   1.00800           0
      9668 MEMB     91       POPE     C34      CTL2    -0.180000       12.0110           0
      9669 MEMB     91       POPE     H4X      HAL2     0.900000E-01   1.00800           0
      9670 MEMB     91       POPE     H4Y      HAL2     0.900000E-01   1.00800           0
      9671 MEMB     91       POPE     C35      CTL2    -0.180000       12.0110           0
      9672 MEMB     91       POPE     H5X      HAL2     0.900000E-01   1.00800           0
      9673 MEMB     91       POPE     H5Y      HAL2     0.900000E-01   1.00800           0
      9674 MEMB     91       POPE     C36      CTL2    -0.180000       12.0110           0
      9675 MEMB     91       POPE     H6X      HAL2     0.900000E-01   1.00800           0
      9676 MEMB     91       POPE     H6Y      HAL2     0.900000E-01   1.00800           0
      9677 MEMB     91       POPE     C37      CTL2    -0.180000       12.0110           0
      9678 MEMB     91       POPE     H7X      HAL2     0.900000E-01   1.00800           0
      9679 MEMB     91       POPE     H7Y      HAL2     0.900000E-01   1.00800           0
      9680 MEMB     91       POPE     C38      CTL2    -0.180000       12.0110           0
      9681 MEMB     91       POPE     H8X      HAL2     0.900000E-01   1.00800           0
      9682 MEMB     91       POPE     H8Y      HAL2     0.900000E-01   1.00800           0
      9683 MEMB     91       POPE     C39      CTL2    -0.180000       12.0110           0
      9684 MEMB     91       POPE     H9X      HAL2     0.900000E-01   1.00800           0
      9685 MEMB     91       POPE     H9Y      HAL2     0.900000E-01   1.00800           0
      9686 MEMB     91       POPE     C310     CTL2    -0.180000       12.0110           0
      9687 MEMB     91       POPE     H10X     HAL2     0.900000E-01   1.00800           0
      9688 MEMB     91       POPE     H10Y     HAL2     0.900000E-01   1.00800           0
      9689 MEMB     91       POPE     C311     CTL2    -0.180000       12.0110           0
      9690 MEMB     91       POPE     H11X     HAL2     0.900000E-01   1.00800           0
      9691 MEMB     91       POPE     H11Y     HAL2     0.900000E-01   1.00800           0
      9692 MEMB     91       POPE     C312     CTL2    -0.180000       12.0110           0
      9693 MEMB     91       POPE     H12X     HAL2     0.900000E-01   1.00800           0
      9694 MEMB     91       POPE     H12Y     HAL2     0.900000E-01   1.00800           0
      9695 MEMB     91       POPE     C313     CTL2    -0.180000       12.0110           0
      9696 MEMB     91       POPE     H13X     HAL2     0.900000E-01   1.00800           0
      9697 MEMB     91       POPE     H13Y     HAL2     0.900000E-01   1.00800           0
      9698 MEMB     91       POPE     C314     CTL2    -0.180000       12.0110           0
      9699 MEMB     91       POPE     H14X     HAL2     0.900000E-01   1.00800           0
      9700 MEMB     91       POPE     H14Y     HAL2     0.900000E-01   1.00800           0
      9701 MEMB     91       POPE     C315     CTL2    -0.180000       12.0110           0
      9702 MEMB     91       POPE     H15X     HAL2     0.900000E-01   1.00800           0
      9703 MEMB     91       POPE     H15Y     HAL2     0.900000E-01   1.00800           0
      9704 MEMB     91       POPE     C316     CTL3    -0.270000       12.0110           0
      9705 MEMB     91       POPE     H16X     HAL3     0.900000E-01   1.00800           0
      9706 MEMB     91       POPE     H16Y     HAL3     0.900000E-01   1.00800           0
      9707 MEMB     91       POPE     H16Z     HAL3     0.900000E-01   1.00800           0
      9708 MEMB     92       POPE     N        NH3L    -0.300000       14.0070           0
      9709 MEMB     92       POPE     HN1      HCL      0.330000       1.00800           0
      9710 MEMB     92       POPE     HN2      HCL      0.330000       1.00800           0
      9711 MEMB     92       POPE     HN3      HCL      0.330000       1.00800           0
      9712 MEMB     92       POPE     C12      CTL2     0.130000       12.0110           0
      9713 MEMB     92       POPE     H12A     HAL2     0.900000E-01   1.00800           0
      9714 MEMB     92       POPE     H12B     HAL2     0.900000E-01   1.00800           0
      9715 MEMB     92       POPE     C11      CTL2    -0.800000E-01   12.0110           0
      9716 MEMB     92       POPE     H11A     HAL2     0.900000E-01   1.00800           0
      9717 MEMB     92       POPE     H11B     HAL2     0.900000E-01   1.00800           0
      9718 MEMB     92       POPE     P        PL        1.50000       30.9740           0
      9719 MEMB     92       POPE     O13      O2L     -0.780000       15.9994           0
      9720 MEMB     92       POPE     O14      O2L     -0.780000       15.9994           0
      9721 MEMB     92       POPE     O11      OSLP    -0.570000       15.9994           0
      9722 MEMB     92       POPE     O12      OSLP    -0.570000       15.9994           0
      9723 MEMB     92       POPE     C1       CTL2    -0.800000E-01   12.0110           0
      9724 MEMB     92       POPE     HA       HAL2     0.900000E-01   1.00800           0
      9725 MEMB     92       POPE     HB       HAL2     0.900000E-01   1.00800           0
      9726 MEMB     92       POPE     C2       CTL1     0.170000       12.0110           0
      9727 MEMB     92       POPE     HS       HAL1     0.900000E-01   1.00800           0
      9728 MEMB     92       POPE     O21      OSL     -0.490000       15.9994           0
      9729 MEMB     92       POPE     C21      CL       0.900000       12.0110           0
      9730 MEMB     92       POPE     O22      OBL     -0.630000       15.9994           0
      9731 MEMB     92       POPE     C22      CTL2    -0.220000       12.0110           0
      9732 MEMB     92       POPE     H2R      HAL2     0.900000E-01   1.00800           0
      9733 MEMB     92       POPE     H2S      HAL2     0.900000E-01   1.00800           0
      9734 MEMB     92       POPE     C3       CTL2     0.800000E-01   12.0110           0
      9735 MEMB     92       POPE     HX       HAL2     0.900000E-01   1.00800           0
      9736 MEMB     92       POPE     HY       HAL2     0.900000E-01   1.00800           0
      9737 MEMB     92       POPE     O31      OSL     -0.490000       15.9994           0
      9738 MEMB     92       POPE     C31      CL       0.900000       12.0110           0
      9739 MEMB     92       POPE     O32      OBL     -0.630000       15.9994           0
      9740 MEMB     92       POPE     C32      CTL2    -0.220000       12.0110           0
      9741 MEMB     92       POPE     H2X      HAL2     0.900000E-01   1.00800           0
      9742 MEMB     92       POPE     H2Y      HAL2     0.900000E-01   1.00800           0
      9743 MEMB     92       POPE     C23      CTL2    -0.180000       12.0110           0
      9744 MEMB     92       POPE     H3R      HAL2     0.900000E-01   1.00800           0
      9745 MEMB     92       POPE     H3S      HAL2     0.900000E-01   1.00800           0
      9746 MEMB     92       POPE     C24      CTL2    -0.180000       12.0110           0
      9747 MEMB     92       POPE     H4R      HAL2     0.900000E-01   1.00800           0
      9748 MEMB     92       POPE     H4S      HAL2     0.900000E-01   1.00800           0
      9749 MEMB     92       POPE     C25      CTL2    -0.180000       12.0110           0
      9750 MEMB     92       POPE     H5R      HAL2     0.900000E-01   1.00800           0
      9751 MEMB     92       POPE     H5S      HAL2     0.900000E-01   1.00800           0
      9752 MEMB     92       POPE     C26      CTL2    -0.180000       12.0110           0
      9753 MEMB     92       POPE     H6R      HAL2     0.900000E-01   1.00800           0
      9754 MEMB     92       POPE     H6S      HAL2     0.900000E-01   1.00800           0
      9755 MEMB     92       POPE     C27      CTL2    -0.180000       12.0110           0
      9756 MEMB     92       POPE     H7R      HAL2     0.900000E-01   1.00800           0
      9757 MEMB     92       POPE     H7S      HAL2     0.900000E-01   1.00800           0
      9758 MEMB     92       POPE     C28      CTL2    -0.180000       12.0110           0
      9759 MEMB     92       POPE     H8R      HAL2     0.900000E-01   1.00800           0
      9760 MEMB     92       POPE     H8S      HAL2     0.900000E-01   1.00800           0
      9761 MEMB     92       POPE     C29      CEL1    -0.150000       12.0110           0
      9762 MEMB     92       POPE     H91      HEL1     0.150000       1.00800           0
      9763 MEMB     92       POPE     C210     CEL1    -0.150000       12.0110           0
      9764 MEMB     92       POPE     H101     HEL1     0.150000       1.00800           0
      9765 MEMB     92       POPE     C211     CTL2    -0.180000       12.0110           0
      9766 MEMB     92       POPE     H11R     HAL2     0.900000E-01   1.00800           0
      9767 MEMB     92       POPE     H11S     HAL2     0.900000E-01   1.00800           0
      9768 MEMB     92       POPE     C212     CTL2    -0.180000       12.0110           0
      9769 MEMB     92       POPE     H12R     HAL2     0.900000E-01   1.00800           0
      9770 MEMB     92       POPE     H12S     HAL2     0.900000E-01   1.00800           0
      9771 MEMB     92       POPE     C213     CTL2    -0.180000       12.0110           0
      9772 MEMB     92       POPE     H13R     HAL2     0.900000E-01   1.00800           0
      9773 MEMB     92       POPE     H13S     HAL2     0.900000E-01   1.00800           0
      9774 MEMB     92       POPE     C214     CTL2    -0.180000       12.0110           0
      9775 MEMB     92       POPE     H14R     HAL2     0.900000E-01   1.00800           0
      9776 MEMB     92       POPE     H14S     HAL2     0.900000E-01   1.00800           0
      9777 MEMB     92       POPE     C215     CTL2    -0.180000       12.0110           0
      9778 MEMB     92       POPE     H15R     HAL2     0.900000E-01   1.00800           0
      9779 MEMB     92       POPE     H15S     HAL2     0.900000E-01   1.00800           0
      9780 MEMB     92       POPE     C216     CTL2    -0.180000       12.0110           0
      9781 MEMB     92       POPE     H16R     HAL2     0.900000E-01   1.00800           0
      9782 MEMB     92       POPE     H16S     HAL2     0.900000E-01   1.00800           0
      9783 MEMB     92       POPE     C217     CTL2    -0.180000       12.0110           0
      9784 MEMB     92       POPE     H17R     HAL2     0.900000E-01   1.00800           0
      9785 MEMB     92       POPE     H17S     HAL2     0.900000E-01   1.00800           0
      9786 MEMB     92       POPE     C218     CTL3    -0.270000       12.0110           0
      9787 MEMB     92       POPE     H18R     HAL3     0.900000E-01   1.00800           0
      9788 MEMB     92       POPE     H18S     HAL3     0.900000E-01   1.00800           0
      9789 MEMB     92       POPE     H18T     HAL3     0.900000E-01   1.00800           0
      9790 MEMB     92       POPE     C33      CTL2    -0.180000       12.0110           0
      9791 MEMB     92       POPE     H3X      HAL2     0.900000E-01   1.00800           0
      9792 MEMB     92       POPE     H3Y      HAL2     0.900000E-01   1.00800           0
      9793 MEMB     92       POPE     C34      CTL2    -0.180000       12.0110           0
      9794 MEMB     92       POPE     H4X      HAL2     0.900000E-01   1.00800           0
      9795 MEMB     92       POPE     H4Y      HAL2     0.900000E-01   1.00800           0
      9796 MEMB     92       POPE     C35      CTL2    -0.180000       12.0110           0
      9797 MEMB     92       POPE     H5X      HAL2     0.900000E-01   1.00800           0
      9798 MEMB     92       POPE     H5Y      HAL2     0.900000E-01   1.00800           0
      9799 MEMB     92       POPE     C36      CTL2    -0.180000       12.0110           0
      9800 MEMB     92       POPE     H6X      HAL2     0.900000E-01   1.00800           0
      9801 MEMB     92       POPE     H6Y      HAL2     0.900000E-01   1.00800           0
      9802 MEMB     92       POPE     C37      CTL2    -0.180000       12.0110           0
      9803 MEMB     92       POPE     H7X      HAL2     0.900000E-01   1.00800           0
      9804 MEMB     92       POPE     H7Y      HAL2     0.900000E-01   1.00800           0
      9805 MEMB     92       POPE     C38      CTL2    -0.180000       12.0110           0
      9806 MEMB     92       POPE     H8X      HAL2     0.900000E-01   1.00800           0
      9807 MEMB     92       POPE     H8Y      HAL2     0.900000E-01   1.00800           0
      9808 MEMB     92       POPE     C39      CTL2    -0.180000       12.0110           0
      9809 MEMB     92       POPE     H9X      HAL2     0.900000E-01   1.00800           0
      9810 MEMB     92       POPE     H9Y      HAL2     0.900000E-01   1.00800           0
      9811 MEMB     92       POPE     C310     CTL2    -0.180000       12.0110           0
      9812 MEMB     92       POPE     H10X     HAL2     0.900000E-01   1.00800           0
      9813 MEMB     92       POPE     H10Y     HAL2     0.900000E-01   1.00800           0
      9814 MEMB     92       POPE     C311     CTL2    -0.180000       12.0110           0
      9815 MEMB     92       POPE     H11X     HAL2     0.900000E-01   1.00800           0
      9816 MEMB     92       POPE     H11Y     HAL2     0.900000E-01   1.00800           0
      9817 MEMB     92       POPE     C312     CTL2    -0.180000       12.0110           0
      9818 MEMB     92       POPE     H12X     HAL2     0.900000E-01   1.00800           0
      9819 MEMB     92       POPE     H12Y     HAL2     0.900000E-01   1.00800           0
      9820 MEMB     92       POPE     C313     CTL2    -0.180000       12.0110           0
      9821 MEMB     92       POPE     H13X     HAL2     0.900000E-01   1.00800           0
      9822 MEMB     92       POPE     H13Y     HAL2     0.900000E-01   1.00800           0
      9823 MEMB     92       POPE     C314     CTL2    -0.180000       12.0110           0
      9824 MEMB     92       POPE     H14X     HAL2     0.900000E-01   1.00800           0
      9825 MEMB     92       POPE     H14Y     HAL2     0.900000E-01   1.00800           0
      9826 MEMB     92       POPE     C315     CTL2    -0.180000       12.0110           0
      9827 MEMB     92       POPE     H15X     HAL2     0.900000E-01   1.00800           0
      9828 MEMB     92       POPE     H15Y     HAL2     0.900000E-01   1.00800           0
      9829 MEMB     92       POPE     C316     CTL3    -0.270000       12.0110           0
      9830 MEMB     92       POPE     H16X     HAL3     0.900000E-01   1.00800           0
      9831 MEMB     92       POPE     H16Y     HAL3     0.900000E-01   1.00800           0
      9832 MEMB     92       POPE     H16Z     HAL3     0.900000E-01   1.00800           0
      9833 MEMB     93       POPC     N        NTL     -0.600000       14.0070           0
      9834 MEMB     93       POPC     C12      CTL2    -0.100000       12.0110           0
      9835 MEMB     93       POPC     H12A     HL       0.250000       1.00800           0
      9836 MEMB     93       POPC     H12B     HL       0.250000       1.00800           0
      9837 MEMB     93       POPC     C13      CTL5    -0.350000       12.0110           0
      9838 MEMB     93       POPC     H13A     HL       0.250000       1.00800           0
      9839 MEMB     93       POPC     H13B     HL       0.250000       1.00800           0
      9840 MEMB     93       POPC     H13C     HL       0.250000       1.00800           0
      9841 MEMB     93       POPC     C14      CTL5    -0.350000       12.0110           0
      9842 MEMB     93       POPC     H14A     HL       0.250000       1.00800           0
      9843 MEMB     93       POPC     H14B     HL       0.250000       1.00800           0
      9844 MEMB     93       POPC     H14C     HL       0.250000       1.00800           0
      9845 MEMB     93       POPC     C15      CTL5    -0.350000       12.0110           0
      9846 MEMB     93       POPC     H15A     HL       0.250000       1.00800           0
      9847 MEMB     93       POPC     H15B     HL       0.250000       1.00800           0
      9848 MEMB     93       POPC     H15C     HL       0.250000       1.00800           0
      9849 MEMB     93       POPC     C11      CTL2    -0.800000E-01   12.0110           0
      9850 MEMB     93       POPC     H11A     HAL2     0.900000E-01   1.00800           0
      9851 MEMB     93       POPC     H11B     HAL2     0.900000E-01   1.00800           0
      9852 MEMB     93       POPC     P        PL        1.50000       30.9740           0
      9853 MEMB     93       POPC     O13      O2L     -0.780000       15.9994           0
      9854 MEMB     93       POPC     O14      O2L     -0.780000       15.9994           0
      9855 MEMB     93       POPC     O12      OSLP    -0.570000       15.9994           0
      9856 MEMB     93       POPC     O11      OSLP    -0.570000       15.9994           0
      9857 MEMB     93       POPC     C1       CTL2    -0.800000E-01   12.0110           0
      9858 MEMB     93       POPC     HA       HAL2     0.900000E-01   1.00800           0
      9859 MEMB     93       POPC     HB       HAL2     0.900000E-01   1.00800           0
      9860 MEMB     93       POPC     C2       CTL1     0.170000       12.0110           0
      9861 MEMB     93       POPC     HS       HAL1     0.900000E-01   1.00800           0
      9862 MEMB     93       POPC     O21      OSL     -0.490000       15.9994           0
      9863 MEMB     93       POPC     C21      CL       0.900000       12.0110           0
      9864 MEMB     93       POPC     O22      OBL     -0.630000       15.9994           0
      9865 MEMB     93       POPC     C22      CTL2    -0.220000       12.0110           0
      9866 MEMB     93       POPC     H2R      HAL2     0.900000E-01   1.00800           0
      9867 MEMB     93       POPC     H2S      HAL2     0.900000E-01   1.00800           0
      9868 MEMB     93       POPC     C3       CTL2     0.800000E-01   12.0110           0
      9869 MEMB     93       POPC     HX       HAL2     0.900000E-01   1.00800           0
      9870 MEMB     93       POPC     HY       HAL2     0.900000E-01   1.00800           0
      9871 MEMB     93       POPC     O31      OSL     -0.490000       15.9994           0
      9872 MEMB     93       POPC     C31      CL       0.900000       12.0110           0
      9873 MEMB     93       POPC     O32      OBL     -0.630000       15.9994           0
      9874 MEMB     93       POPC     C32      CTL2    -0.220000       12.0110           0
      9875 MEMB     93       POPC     H2X      HAL2     0.900000E-01   1.00800           0
      9876 MEMB     93       POPC     H2Y      HAL2     0.900000E-01   1.00800           0
      9877 MEMB     93       POPC     C23      CTL2    -0.180000       12.0110           0
      9878 MEMB     93       POPC     H3R      HAL2     0.900000E-01   1.00800           0
      9879 MEMB     93       POPC     H3S      HAL2     0.900000E-01   1.00800           0
      9880 MEMB     93       POPC     C24      CTL2    -0.180000       12.0110           0
      9881 MEMB     93       POPC     H4R      HAL2     0.900000E-01   1.00800           0
      9882 MEMB     93       POPC     H4S      HAL2     0.900000E-01   1.00800           0
      9883 MEMB     93       POPC     C25      CTL2    -0.180000       12.0110           0
      9884 MEMB     93       POPC     H5R      HAL2     0.900000E-01   1.00800           0
      9885 MEMB     93       POPC     H5S      HAL2     0.900000E-01   1.00800           0
      9886 MEMB     93       POPC     C26      CTL2    -0.180000       12.0110           0
      9887 MEMB     93       POPC     H6R      HAL2     0.900000E-01   1.00800           0
      9888 MEMB     93       POPC     H6S      HAL2     0.900000E-01   1.00800           0
      9889 MEMB     93       POPC     C27      CTL2    -0.180000       12.0110           0
      9890 MEMB     93       POPC     H7R      HAL2     0.900000E-01   1.00800           0
      9891 MEMB     93       POPC     H7S      HAL2     0.900000E-01   1.00800           0
      9892 MEMB     93       POPC     C28      CTL2    -0.180000       12.0110           0
      9893 MEMB     93       POPC     H8R      HAL2     0.900000E-01   1.00800           0
      9894 MEMB     93       POPC     H8S      HAL2     0.900000E-01   1.00800           0
      9895 MEMB     93       POPC     C29      CEL1    -0.150000       12.0110           0
      9896 MEMB     93       POPC     H91      HEL1     0.150000       1.00800           0
      9897 MEMB     93       POPC     C210     CEL1    -0.150000       12.0110           0
      9898 MEMB     93       POPC     H101     HEL1     0.150000       1.00800           0
      9899 MEMB     93       POPC     C211     CTL2    -0.180000       12.0110           0
      9900 MEMB     93       POPC     H11R     HAL2     0.900000E-01   1.00800           0
      9901 MEMB     93       POPC     H11S     HAL2     0.900000E-01   1.00800           0
      9902 MEMB     93       POPC     C212     CTL2    -0.180000       12.0110           0
      9903 MEMB     93       POPC     H12R     HAL2     0.900000E-01   1.00800           0
      9904 MEMB     93       POPC     H12S     HAL2     0.900000E-01   1.00800           0
      9905 MEMB     93       POPC     C213     CTL2    -0.180000       12.0110           0
      9906 MEMB     93       POPC     H13R     HAL2     0.900000E-01   1.00800           0
      9907 MEMB     93       POPC     H13S     HAL2     0.900000E-01   1.00800           0
      9908 MEMB     93       POPC     C214     CTL2    -0.180000       12.0110           0
      9909 MEMB     93       POPC     H14R     HAL2     0.900000E-01   1.00800           0
      9910 MEMB     93       POPC     H14S     HAL2     0.900000E-01   1.00800           0
      9911 MEMB     93       POPC     C215     CTL2    -0.180000       12.0110           0
      9912 MEMB     93       POPC     H15R     HAL2     0.900000E-01   1.00800           0
      9913 MEMB     93       POPC     H15S     HAL2     0.900000E-01   1.00800           0
      9914 MEMB     93       POPC     C216     CTL2    -0.180000       12.0110           0
      9915 MEMB     93       POPC     H16R     HAL2     0.900000E-01   1.00800           0
      9916 MEMB     93       POPC     H16S     HAL2     0.900000E-01   1.00800           0
      9917 MEMB     93       POPC     C217     CTL2    -0.180000       12.0110           0
      9918 MEMB     93       POPC     H17R     HAL2     0.900000E-01   1.00800           0
      9919 MEMB     93       POPC     H17S     HAL2     0.900000E-01   1.00800           0
      9920 MEMB     93       POPC     C218     CTL3    -0.270000       12.0110           0
      9921 MEMB     93       POPC     H18R     HAL3     0.900000E-01   1.00800           0
      9922 MEMB     93       POPC     H18S     HAL3     0.900000E-01   1.00800           0
      9923 MEMB     93       POPC     H18T     HAL3     0.900000E-01   1.00800           0
      9924 MEMB     93       POPC     C33      CTL2    -0.180000       12.0110           0
      9925 MEMB     93       POPC     H3X      HAL2     0.900000E-01   1.00800           0
      9926 MEMB     93       POPC     H3Y      HAL2     0.900000E-01   1.00800           0
      9927 MEMB     93       POPC     C34      CTL2    -0.180000       12.0110           0
      9928 MEMB     93       POPC     H4X      HAL2     0.900000E-01   1.00800           0
      9929 MEMB     93       POPC     H4Y      HAL2     0.900000E-01   1.00800           0
      9930 MEMB     93       POPC     C35      CTL2    -0.180000       12.0110           0
      9931 MEMB     93       POPC     H5X      HAL2     0.900000E-01   1.00800           0
      9932 MEMB     93       POPC     H5Y      HAL2     0.900000E-01   1.00800           0
      9933 MEMB     93       POPC     C36      CTL2    -0.180000       12.0110           0
      9934 MEMB     93       POPC     H6X      HAL2     0.900000E-01   1.00800           0
      9935 MEMB     93       POPC     H6Y      HAL2     0.900000E-01   1.00800           0
      9936 MEMB     93       POPC     C37      CTL2    -0.180000       12.0110           0
      9937 MEMB     93       POPC     H7X      HAL2     0.900000E-01   1.00800           0
      9938 MEMB     93       POPC     H7Y      HAL2     0.900000E-01   1.00800           0
      9939 MEMB     93       POPC     C38      CTL2    -0.180000       12.0110           0
      9940 MEMB     93       POPC     H8X      HAL2     0.900000E-01   1.00800           0
      9941 MEMB     93       POPC     H8Y      HAL2     0.900000E-01   1.00800           0
      9942 MEMB     93       POPC     C39      CTL2    -0.180000       12.0110           0
      9943 MEMB     93       POPC     H9X      HAL2     0.900000E-01   1.00800           0
      9944 MEMB     93       POPC     H9Y      HAL2     0.900000E-01   1.00800           0
      9945 MEMB     93       POPC     C310     CTL2    -0.180000       12.0110           0
      9946 MEMB     93       POPC     H10X     HAL2     0.900000E-01   1.00800           0
      9947 MEMB     93       POPC     H10Y     HAL2     0.900000E-01   1.00800           0
      9948 MEMB     93       POPC     C311     CTL2    -0.180000       12.0110           0
      9949 MEMB     93       POPC     H11X     HAL2     0.900000E-01   1.00800           0
      9950 MEMB     93       POPC     H11Y     HAL2     0.900000E-01   1.00800           0
      9951 MEMB     93       POPC     C312     CTL2    -0.180000       12.0110           0
      9952 MEMB     93       POPC     H12X     HAL2     0.900000E-01   1.00800           0
      9953 MEMB     93       POPC     H12Y     HAL2     0.900000E-01   1.00800           0
      9954 MEMB     93       POPC     C313     CTL2    -0.180000       12.0110           0
      9955 MEMB     93       POPC     H13X     HAL2     0.900000E-01   1.00800           0
      9956 MEMB     93       POPC     H13Y     HAL2     0.900000E-01   1.00800           0
      9957 MEMB     93       POPC     C314     CTL2    -0.180000       12.0110           0
      9958 MEMB     93       POPC     H14X     HAL2     0.900000E-01   1.00800           0
      9959 MEMB     93       POPC     H14Y     HAL2     0.900000E-01   1.00800           0
      9960 MEMB     93       POPC     C315     CTL2    -0.180000       12.0110           0
      9961 MEMB     93       POPC     H15X     HAL2     0.900000E-01   1.00800           0
      9962 MEMB     93       POPC     H15Y     HAL2     0.900000E-01   1.00800           0
      9963 MEMB     93       POPC     C316     CTL3    -0.270000       12.0110           0
      9964 MEMB     93       POPC     H16X     HAL3     0.900000E-01   1.00800           0
      9965 MEMB     93       POPC     H16Y     HAL3     0.900000E-01   1.00800           0
      9966 MEMB     93       POPC     H16Z     HAL3     0.900000E-01   1.00800           0
      9967 MEMB     94       POPE     N        NH3L    -0.300000       14.0070           0
      9968 MEMB     94       POPE     HN1      HCL      0.330000       1.00800           0
      9969 MEMB     94       POPE     HN2      HCL      0.330000       1.00800           0
      9970 MEMB     94       POPE     HN3      HCL      0.330000       1.00800           0
      9971 MEMB     94       POPE     C12      CTL2     0.130000       12.0110           0
      9972 MEMB     94       POPE     H12A     HAL2     0.900000E-01   1.00800           0
      9973 MEMB     94       POPE     H12B     HAL2     0.900000E-01   1.00800           0
      9974 MEMB     94       POPE     C11      CTL2    -0.800000E-01   12.0110           0
      9975 MEMB     94       POPE     H11A     HAL2     0.900000E-01   1.00800           0
      9976 MEMB     94       POPE     H11B     HAL2     0.900000E-01   1.00800           0
      9977 MEMB     94       POPE     P        PL        1.50000       30.9740           0
      9978 MEMB     94       POPE     O13      O2L     -0.780000       15.9994           0
      9979 MEMB     94       POPE     O14      O2L     -0.780000       15.9994           0
      9980 MEMB     94       POPE     O11      OSLP    -0.570000       15.9994           0
      9981 MEMB     94       POPE     O12      OSLP    -0.570000       15.9994           0
      9982 MEMB     94       POPE     C1       CTL2    -0.800000E-01   12.0110           0
      9983 MEMB     94       POPE     HA       HAL2     0.900000E-01   1.00800           0
      9984 MEMB     94       POPE     HB       HAL2     0.900000E-01   1.00800           0
      9985 MEMB     94       POPE     C2       CTL1     0.170000       12.0110           0
      9986 MEMB     94       POPE     HS       HAL1     0.900000E-01   1.00800           0
      9987 MEMB     94       POPE     O21      OSL     -0.490000       15.9994           0
      9988 MEMB     94       POPE     C21      CL       0.900000       12.0110           0
      9989 MEMB     94       POPE     O22      OBL     -0.630000       15.9994           0
      9990 MEMB     94       POPE     C22      CTL2    -0.220000       12.0110           0
      9991 MEMB     94       POPE     H2R      HAL2     0.900000E-01   1.00800           0
      9992 MEMB     94       POPE     H2S      HAL2     0.900000E-01   1.00800           0
      9993 MEMB     94       POPE     C3       CTL2     0.800000E-01   12.0110           0
      9994 MEMB     94       POPE     HX       HAL2     0.900000E-01   1.00800           0
      9995 MEMB     94       POPE     HY       HAL2     0.900000E-01   1.00800           0
      9996 MEMB     94       POPE     O31      OSL     -0.490000       15.9994           0
      9997 MEMB     94       POPE     C31      CL       0.900000       12.0110           0
      9998 MEMB     94       POPE     O32      OBL     -0.630000       15.9994           0
      9999 MEMB     94       POPE     C32      CTL2    -0.220000       12.0110           0
     10000 MEMB     94       POPE     H2X      HAL2     0.900000E-01   1.00800           0
     10001 MEMB     94       POPE     H2Y      HAL2     0.900000E-01   1.00800           0
     10002 MEMB     94       POPE     C23      CTL2    -0.180000       12.0110           0
     10003 MEMB     94       POPE     H3R      HAL2     0.900000E-01   1.00800           0
     10004 MEMB     94       POPE     H3S      HAL2     0.900000E-01   1.00800           0
     10005 MEMB     94       POPE     C24      CTL2    -0.180000       12.0110           0
     10006 MEMB     94       POPE     H4R      HAL2     0.900000E-01   1.00800           0
     10007 MEMB     94       POPE     H4S      HAL2     0.900000E-01   1.00800           0
     10008 MEMB     94       POPE     C25      CTL2    -0.180000       12.0110           0
     10009 MEMB     94       POPE     H5R      HAL2     0.900000E-01   1.00800           0
     10010 MEMB     94       POPE     H5S      HAL2     0.900000E-01   1.00800           0
     10011 MEMB     94       POPE     C26      CTL2    -0.180000       12.0110           0
     10012 MEMB     94       POPE     H6R      HAL2     0.900000E-01   1.00800           0
     10013 MEMB     94       POPE     H6S      HAL2     0.900000E-01   1.00800           0
     10014 MEMB     94       POPE     C27      CTL2    -0.180000       12.0110           0
     10015 MEMB     94       POPE     H7R      HAL2     0.900000E-01   1.00800           0
     10016 MEMB     94       POPE     H7S      HAL2     0.900000E-01   1.00800           0
     10017 MEMB     94       POPE     C28      CTL2    -0.180000       12.0110           0
     10018 MEMB     94       POPE     H8R      HAL2     0.900000E-01   1.00800           0
     10019 MEMB     94       POPE     H8S      HAL2     0.900000E-01   1.00800           0
     10020 MEMB     94       POPE     C29      CEL1    -0.150000       12.0110           0
     10021 MEMB     94       POPE     H91      HEL1     0.150000       1.00800           0
     10022 MEMB     94       POPE     C210     CEL1    -0.150000       12.0110           0
     10023 MEMB     94       POPE     H101     HEL1     0.150000       1.00800           0
     10024 MEMB     94       POPE     C211     CTL2    -0.180000       12.0110           0
     10025 MEMB     94       POPE     H11R     HAL2     0.900000E-01   1.00800           0
     10026 MEMB     94       POPE     H11S     HAL2     0.900000E-01   1.00800           0
     10027 MEMB     94       POPE     C212     CTL2    -0.180000       12.0110           0
     10028 MEMB     94       POPE     H12R     HAL2     0.900000E-01   1.00800           0
     10029 MEMB     94       POPE     H12S     HAL2     0.900000E-01   1.00800           0
     10030 MEMB     94       POPE     C213     CTL2    -0.180000       12.0110           0
     10031 MEMB     94       POPE     H13R     HAL2     0.900000E-01   1.00800           0
     10032 MEMB     94       POPE     H13S     HAL2     0.900000E-01   1.00800           0
     10033 MEMB     94       POPE     C214     CTL2    -0.180000       12.0110           0
     10034 MEMB     94       POPE     H14R     HAL2     0.900000E-01   1.00800           0
     10035 MEMB     94       POPE     H14S     HAL2     0.900000E-01   1.00800           0
     10036 MEMB     94       POPE     C215     CTL2    -0.180000       12.0110           0
     10037 MEMB     94       POPE     H15R     HAL2     0.900000E-01   1.00800           0
     10038 MEMB     94       POPE     H15S     HAL2     0.900000E-01   1.00800           0
     10039 MEMB     94       POPE     C216     CTL2    -0.180000       12.0110           0
     10040 MEMB     94       POPE     H16R     HAL2     0.900000E-01   1.00800           0
     10041 MEMB     94       POPE     H16S     HAL2     0.900000E-01   1.00800           0
     10042 MEMB     94       POPE     C217     CTL2    -0.180000       12.0110           0
     10043 MEMB     94       POPE     H17R     HAL2     0.900000E-01   1.00800           0
     10044 MEMB     94       POPE     H17S     HAL2     0.900000E-01   1.00800           0
     10045 MEMB     94       POPE     C218     CTL3    -0.270000       12.0110           0
     10046 MEMB     94       POPE     H18R     HAL3     0.900000E-01   1.00800           0
     10047 MEMB     94       POPE     H18S     HAL3     0.900000E-01   1.00800           0
     10048 MEMB     94       POPE     H18T     HAL3     0.900000E-01   1.00800           0
     10049 MEMB     94       POPE     C33      CTL2    -0.180000       12.0110           0
     10050 MEMB     94       POPE     H3X      HAL2     0.900000E-01   1.00800           0
     10051 MEMB     94       POPE     H3Y      HAL2     0.900000E-01   1.00800           0
     10052 MEMB     94       POPE     C34      CTL2    -0.180000       12.0110           0
     10053 MEMB     94       POPE     H4X      HAL2     0.900000E-01   1.00800           0
     10054 MEMB     94       POPE     H4Y      HAL2     0.900000E-01   1.00800           0
     10055 MEMB     94       POPE     C35      CTL2    -0.180000       12.0110           0
     10056 MEMB     94       POPE     H5X      HAL2     0.900000E-01   1.00800           0
     10057 MEMB     94       POPE     H5Y      HAL2     0.900000E-01   1.00800           0
     10058 MEMB     94       POPE     C36      CTL2    -0.180000       12.0110           0
     10059 MEMB     94       POPE     H6X      HAL2     0.900000E-01   1.00800           0
     10060 MEMB     94       POPE     H6Y      HAL2     0.900000E-01   1.00800           0
     10061 MEMB     94       POPE     C37      CTL2    -0.180000       12.0110           0
     10062 MEMB     94       POPE     H7X      HAL2     0.900000E-01   1.00800           0
     10063 MEMB     94       POPE     H7Y      HAL2     0.900000E-01   1.00800           0
     10064 MEMB     94       POPE     C38      CTL2    -0.180000       12.0110           0
     10065 MEMB     94       POPE     H8X      HAL2     0.900000E-01   1.00800           0
     10066 MEMB     94       POPE     H8Y      HAL2     0.900000E-01   1.00800           0
     10067 MEMB     94       POPE     C39      CTL2    -0.180000       12.0110           0
     10068 MEMB     94       POPE     H9X      HAL2     0.900000E-01   1.00800           0
     10069 MEMB     94       POPE     H9Y      HAL2     0.900000E-01   1.00800           0
     10070 MEMB     94       POPE     C310     CTL2    -0.180000       12.0110           0
     10071 MEMB     94       POPE     H10X     HAL2     0.900000E-01   1.00800           0
     10072 MEMB     94       POPE     H10Y     HAL2     0.900000E-01   1.00800           0
     10073 MEMB     94       POPE     C311     CTL2    -0.180000       12.0110           0
     10074 MEMB     94       POPE     H11X     HAL2     0.900000E-01   1.00800           0
     10075 MEMB     94       POPE     H11Y     HAL2     0.900000E-01   1.00800           0
     10076 MEMB     94       POPE     C312     CTL2    -0.180000       12.0110           0
     10077 MEMB     94       POPE     H12X     HAL2     0.900000E-01   1.00800           0
     10078 MEMB     94       POPE     H12Y     HAL2     0.900000E-01   1.00800           0
     10079 MEMB     94       POPE     C313     CTL2    -0.180000       12.0110           0
     10080 MEMB     94       POPE     H13X     HAL2     0.900000E-01   1.00800           0
     10081 MEMB     94       POPE     H13Y     HAL2     0.900000E-01   1.00800           0
     10082 MEMB     94       POPE     C314     CTL2    -0.180000       12.0110           0
     10083 MEMB     94       POPE     H14X     HAL2     0.900000E-01   1.00800           0
     10084 MEMB     94       POPE     H14Y     HAL2     0.900000E-01   1.00800           0
     10085 MEMB     94       POPE     C315     CTL2    -0.180000       12.0110           0
     10086 MEMB     94       POPE     H15X     HAL2     0.900000E-01   1.00800           0
     10087 MEMB     94       POPE     H15Y     HAL2     0.900000E-01   1.00800           0
     10088 MEMB     94       POPE     C316     CTL3    -0.270000       12.0110           0
     10089 MEMB     94       POPE     H16X     HAL3     0.900000E-01   1.00800           0
     10090 MEMB     94       POPE     H16Y     HAL3     0.900000E-01   1.00800           0
     10091 MEMB     94       POPE     H16Z     HAL3     0.900000E-01   1.00800           0
     10092 MEMB     95       POPE     N        NH3L    -0.300000       14.0070           0
     10093 MEMB     95       POPE     HN1      HCL      0.330000       1.00800           0
     10094 MEMB     95       POPE     HN2      HCL      0.330000       1.00800           0
     10095 MEMB     95       POPE     HN3      HCL      0.330000       1.00800           0
     10096 MEMB     95       POPE     C12      CTL2     0.130000       12.0110           0
     10097 MEMB     95       POPE     H12A     HAL2     0.900000E-01   1.00800           0
     10098 MEMB     95       POPE     H12B     HAL2     0.900000E-01   1.00800           0
     10099 MEMB     95       POPE     C11      CTL2    -0.800000E-01   12.0110           0
     10100 MEMB     95       POPE     H11A     HAL2     0.900000E-01   1.00800           0
     10101 MEMB     95       POPE     H11B     HAL2     0.900000E-01   1.00800           0
     10102 MEMB     95       POPE     P        PL        1.50000       30.9740           0
     10103 MEMB     95       POPE     O13      O2L     -0.780000       15.9994           0
     10104 MEMB     95       POPE     O14      O2L     -0.780000       15.9994           0
     10105 MEMB     95       POPE     O11      OSLP    -0.570000       15.9994           0
     10106 MEMB     95       POPE     O12      OSLP    -0.570000       15.9994           0
     10107 MEMB     95       POPE     C1       CTL2    -0.800000E-01   12.0110           0
     10108 MEMB     95       POPE     HA       HAL2     0.900000E-01   1.00800           0
     10109 MEMB     95       POPE     HB       HAL2     0.900000E-01   1.00800           0
     10110 MEMB     95       POPE     C2       CTL1     0.170000       12.0110           0
     10111 MEMB     95       POPE     HS       HAL1     0.900000E-01   1.00800           0
     10112 MEMB     95       POPE     O21      OSL     -0.490000       15.9994           0
     10113 MEMB     95       POPE     C21      CL       0.900000       12.0110           0
     10114 MEMB     95       POPE     O22      OBL     -0.630000       15.9994           0
     10115 MEMB     95       POPE     C22      CTL2    -0.220000       12.0110           0
     10116 MEMB     95       POPE     H2R      HAL2     0.900000E-01   1.00800           0
     10117 MEMB     95       POPE     H2S      HAL2     0.900000E-01   1.00800           0
     10118 MEMB     95       POPE     C3       CTL2     0.800000E-01   12.0110           0
     10119 MEMB     95       POPE     HX       HAL2     0.900000E-01   1.00800           0
     10120 MEMB     95       POPE     HY       HAL2     0.900000E-01   1.00800           0
     10121 MEMB     95       POPE     O31      OSL     -0.490000       15.9994           0
     10122 MEMB     95       POPE     C31      CL       0.900000       12.0110           0
     10123 MEMB     95       POPE     O32      OBL     -0.630000       15.9994           0
     10124 MEMB     95       POPE     C32      CTL2    -0.220000       12.0110           0
     10125 MEMB     95       POPE     H2X      HAL2     0.900000E-01   1.00800           0
     10126 MEMB     95       POPE     H2Y      HAL2     0.900000E-01   1.00800           0
     10127 MEMB     95       POPE     C23      CTL2    -0.180000       12.0110           0
     10128 MEMB     95       POPE     H3R      HAL2     0.900000E-01   1.00800           0
     10129 MEMB     95       POPE     H3S      HAL2     0.900000E-01   1.00800           0
     10130 MEMB     95       POPE     C24      CTL2    -0.180000       12.0110           0
     10131 MEMB     95       POPE     H4R      HAL2     0.900000E-01   1.00800           0
     10132 MEMB     95       POPE     H4S      HAL2     0.900000E-01   1.00800           0
     10133 MEMB     95       POPE     C25      CTL2    -0.180000       12.0110           0
     10134 MEMB     95       POPE     H5R      HAL2     0.900000E-01   1.00800           0
     10135 MEMB     95       POPE     H5S      HAL2     0.900000E-01   1.00800           0
     10136 MEMB     95       POPE     C26      CTL2    -0.180000       12.0110           0
     10137 MEMB     95       POPE     H6R      HAL2     0.900000E-01   1.00800           0
     10138 MEMB     95       POPE     H6S      HAL2     0.900000E-01   1.00800           0
     10139 MEMB     95       POPE     C27      CTL2    -0.180000       12.0110           0
     10140 MEMB     95       POPE     H7R      HAL2     0.900000E-01   1.00800           0
     10141 MEMB     95       POPE     H7S      HAL2     0.900000E-01   1.00800           0
     10142 MEMB     95       POPE     C28      CTL2    -0.180000       12.0110           0
     10143 MEMB     95       POPE     H8R      HAL2     0.900000E-01   1.00800           0
     10144 MEMB     95       POPE     H8S      HAL2     0.900000E-01   1.00800           0
     10145 MEMB     95       POPE     C29      CEL1    -0.150000       12.0110           0
     10146 MEMB     95       POPE     H91      HEL1     0.150000       1.00800           0
     10147 MEMB     95       POPE     C210     CEL1    -0.150000       12.0110           0
     10148 MEMB     95       POPE     H101     HEL1     0.150000       1.00800           0
     10149 MEMB     95       POPE     C211     CTL2    -0.180000       12.0110           0
     10150 MEMB     95       POPE     H11R     HAL2     0.900000E-01   1.00800           0
     10151 MEMB     95       POPE     H11S     HAL2     0.900000E-01   1.00800           0
     10152 MEMB     95       POPE     C212     CTL2    -0.180000       12.0110           0
     10153 MEMB     95       POPE     H12R     HAL2     0.900000E-01   1.00800           0
     10154 MEMB     95       POPE     H12S     HAL2     0.900000E-01   1.00800           0
     10155 MEMB     95       POPE     C213     CTL2    -0.180000       12.0110           0
     10156 MEMB     95       POPE     H13R     HAL2     0.900000E-01   1.00800           0
     10157 MEMB     95       POPE     H13S     HAL2     0.900000E-01   1.00800           0
     10158 MEMB     95       POPE     C214     CTL2    -0.180000       12.0110           0
     10159 MEMB     95       POPE     H14R     HAL2     0.900000E-01   1.00800           0
     10160 MEMB     95       POPE     H14S     HAL2     0.900000E-01   1.00800           0
     10161 MEMB     95       POPE     C215     CTL2    -0.180000       12.0110           0
     10162 MEMB     95       POPE     H15R     HAL2     0.900000E-01   1.00800           0
     10163 MEMB     95       POPE     H15S     HAL2     0.900000E-01   1.00800           0
     10164 MEMB     95       POPE     C216     CTL2    -0.180000       12.0110           0
     10165 MEMB     95       POPE     H16R     HAL2     0.900000E-01   1.00800           0
     10166 MEMB     95       POPE     H16S     HAL2     0.900000E-01   1.00800           0
     10167 MEMB     95       POPE     C217     CTL2    -0.180000       12.0110           0
     10168 MEMB     95       POPE     H17R     HAL2     0.900000E-01   1.00800           0
     10169 MEMB     95       POPE     H17S     HAL2     0.900000E-01   1.00800           0
     10170 MEMB     95       POPE     C218     CTL3    -0.270000       12.0110           0
     10171 MEMB     95       POPE     H18R     HAL3     0.900000E-01   1.00800           0
     10172 MEMB     95       POPE     H18S     HAL3     0.900000E-01   1.00800           0
     10173 MEMB     95       POPE     H18T     HAL3     0.900000E-01   1.00800           0
     10174 MEMB     95       POPE     C33      CTL2    -0.180000       12.0110           0
     10175 MEMB     95       POPE     H3X      HAL2     0.900000E-01   1.00800           0
     10176 MEMB     95       POPE     H3Y      HAL2     0.900000E-01   1.00800           0
     10177 MEMB     95       POPE     C34      CTL2    -0.180000       12.0110           0
     10178 MEMB     95       POPE     H4X      HAL2     0.900000E-01   1.00800           0
     10179 MEMB     95       POPE     H4Y      HAL2     0.900000E-01   1.00800           0
     10180 MEMB     95       POPE     C35      CTL2    -0.180000       12.0110           0
     10181 MEMB     95       POPE     H5X      HAL2     0.900000E-01   1.00800           0
     10182 MEMB     95       POPE     H5Y      HAL2     0.900000E-01   1.00800           0
     10183 MEMB     95       POPE     C36      CTL2    -0.180000       12.0110           0
     10184 MEMB     95       POPE     H6X      HAL2     0.900000E-01   1.00800           0
     10185 MEMB     95       POPE     H6Y      HAL2     0.900000E-01   1.00800           0
     10186 MEMB     95       POPE     C37      CTL2    -0.180000       12.0110           0
     10187 MEMB     95       POPE     H7X      HAL2     0.900000E-01   1.00800           0
     10188 MEMB     95       POPE     H7Y      HAL2     0.900000E-01   1.00800           0
     10189 MEMB     95       POPE     C38      CTL2    -0.180000       12.0110           0
     10190 MEMB     95       POPE     H8X      HAL2     0.900000E-01   1.00800           0
     10191 MEMB     95       POPE     H8Y      HAL2     0.900000E-01   1.00800           0
     10192 MEMB     95       POPE     C39      CTL2    -0.180000       12.0110           0
     10193 MEMB     95       POPE     H9X      HAL2     0.900000E-01   1.00800           0
     10194 MEMB     95       POPE     H9Y      HAL2     0.900000E-01   1.00800           0
     10195 MEMB     95       POPE     C310     CTL2    -0.180000       12.0110           0
     10196 MEMB     95       POPE     H10X     HAL2     0.900000E-01   1.00800           0
     10197 MEMB     95       POPE     H10Y     HAL2     0.900000E-01   1.00800           0
     10198 MEMB     95       POPE     C311     CTL2    -0.180000       12.0110           0
     10199 MEMB     95       POPE     H11X     HAL2     0.900000E-01   1.00800           0
     10200 MEMB     95       POPE     H11Y     HAL2     0.900000E-01   1.00800           0
     10201 MEMB     95       POPE     C312     CTL2    -0.180000       12.0110           0
     10202 MEMB     95       POPE     H12X     HAL2     0.900000E-01   1.00800           0
     10203 MEMB     95       POPE     H12Y     HAL2     0.900000E-01   1.00800           0
     10204 MEMB     95       POPE     C313     CTL2    -0.180000       12.0110           0
     10205 MEMB     95       POPE     H13X     HAL2     0.900000E-01   1.00800           0
     10206 MEMB     95       POPE     H13Y     HAL2     0.900000E-01   1.00800           0
     10207 MEMB     95       POPE     C314     CTL2    -0.180000       12.0110           0
     10208 MEMB     95       POPE     H14X     HAL2     0.900000E-01   1.00800           0
     10209 MEMB     95       POPE     H14Y     HAL2     0.900000E-01   1.00800           0
     10210 MEMB     95       POPE     C315     CTL2    -0.180000       12.0110           0
     10211 MEMB     95       POPE     H15X     HAL2     0.900000E-01   1.00800           0
     10212 MEMB     95       POPE     H15Y     HAL2     0.900000E-01   1.00800           0
     10213 MEMB     95       POPE     C316     CTL3    -0.270000       12.0110           0
     10214 MEMB     95       POPE     H16X     HAL3     0.900000E-01   1.00800           0
     10215 MEMB     95       POPE     H16Y     HAL3     0.900000E-01   1.00800           0
     10216 MEMB     95       POPE     H16Z     HAL3     0.900000E-01   1.00800           0
     10217 MEMB     96       POPC     N        NTL     -0.600000       14.0070           0
     10218 MEMB     96       POPC     C12      CTL2    -0.100000       12.0110           0
     10219 MEMB     96       POPC     H12A     HL       0.250000       1.00800           0
     10220 MEMB     96       POPC     H12B     HL       0.250000       1.00800           0
     10221 MEMB     96       POPC     C13      CTL5    -0.350000       12.0110           0
     10222 MEMB     96       POPC     H13A     HL       0.250000       1.00800           0
     10223 MEMB     96       POPC     H13B     HL       0.250000       1.00800           0
     10224 MEMB     96       POPC     H13C     HL       0.250000       1.00800           0
     10225 MEMB     96       POPC     C14      CTL5    -0.350000       12.0110           0
     10226 MEMB     96       POPC     H14A     HL       0.250000       1.00800           0
     10227 MEMB     96       POPC     H14B     HL       0.250000       1.00800           0
     10228 MEMB     96       POPC     H14C     HL       0.250000       1.00800           0
     10229 MEMB     96       POPC     C15      CTL5    -0.350000       12.0110           0
     10230 MEMB     96       POPC     H15A     HL       0.250000       1.00800           0
     10231 MEMB     96       POPC     H15B     HL       0.250000       1.00800           0
     10232 MEMB     96       POPC     H15C     HL       0.250000       1.00800           0
     10233 MEMB     96       POPC     C11      CTL2    -0.800000E-01   12.0110           0
     10234 MEMB     96       POPC     H11A     HAL2     0.900000E-01   1.00800           0
     10235 MEMB     96       POPC     H11B     HAL2     0.900000E-01   1.00800           0
     10236 MEMB     96       POPC     P        PL        1.50000       30.9740           0
     10237 MEMB     96       POPC     O13      O2L     -0.780000       15.9994           0
     10238 MEMB     96       POPC     O14      O2L     -0.780000       15.9994           0
     10239 MEMB     96       POPC     O12      OSLP    -0.570000       15.9994           0
     10240 MEMB     96       POPC     O11      OSLP    -0.570000       15.9994           0
     10241 MEMB     96       POPC     C1       CTL2    -0.800000E-01   12.0110           0
     10242 MEMB     96       POPC     HA       HAL2     0.900000E-01   1.00800           0
     10243 MEMB     96       POPC     HB       HAL2     0.900000E-01   1.00800           0
     10244 MEMB     96       POPC     C2       CTL1     0.170000       12.0110           0
     10245 MEMB     96       POPC     HS       HAL1     0.900000E-01   1.00800           0
     10246 MEMB     96       POPC     O21      OSL     -0.490000       15.9994           0
     10247 MEMB     96       POPC     C21      CL       0.900000       12.0110           0
     10248 MEMB     96       POPC     O22      OBL     -0.630000       15.9994           0
     10249 MEMB     96       POPC     C22      CTL2    -0.220000       12.0110           0
     10250 MEMB     96       POPC     H2R      HAL2     0.900000E-01   1.00800           0
     10251 MEMB     96       POPC     H2S      HAL2     0.900000E-01   1.00800           0
     10252 MEMB     96       POPC     C3       CTL2     0.800000E-01   12.0110           0
     10253 MEMB     96       POPC     HX       HAL2     0.900000E-01   1.00800           0
     10254 MEMB     96       POPC     HY       HAL2     0.900000E-01   1.00800           0
     10255 MEMB     96       POPC     O31      OSL     -0.490000       15.9994           0
     10256 MEMB     96       POPC     C31      CL       0.900000       12.0110           0
     10257 MEMB     96       POPC     O32      OBL     -0.630000       15.9994           0
     10258 MEMB     96       POPC     C32      CTL2    -0.220000       12.0110           0
     10259 MEMB     96       POPC     H2X      HAL2     0.900000E-01   1.00800           0
     10260 MEMB     96       POPC     H2Y      HAL2     0.900000E-01   1.00800           0
     10261 MEMB     96       POPC     C23      CTL2    -0.180000       12.0110           0
     10262 MEMB     96       POPC     H3R      HAL2     0.900000E-01   1.00800           0
     10263 MEMB     96       POPC     H3S      HAL2     0.900000E-01   1.00800           0
     10264 MEMB     96       POPC     C24      CTL2    -0.180000       12.0110           0
     10265 MEMB     96       POPC     H4R      HAL2     0.900000E-01   1.00800           0
     10266 MEMB     96       POPC     H4S      HAL2     0.900000E-01   1.00800           0
     10267 MEMB     96       POPC     C25      CTL2    -0.180000       12.0110           0
     10268 MEMB     96       POPC     H5R      HAL2     0.900000E-01   1.00800           0
     10269 MEMB     96       POPC     H5S      HAL2     0.900000E-01   1.00800           0
     10270 MEMB     96       POPC     C26      CTL2    -0.180000       12.0110           0
     10271 MEMB     96       POPC     H6R      HAL2     0.900000E-01   1.00800           0
     10272 MEMB     96       POPC     H6S      HAL2     0.900000E-01   1.00800           0
     10273 MEMB     96       POPC     C27      CTL2    -0.180000       12.0110           0
     10274 MEMB     96       POPC     H7R      HAL2     0.900000E-01   1.00800           0
     10275 MEMB     96       POPC     H7S      HAL2     0.900000E-01   1.00800           0
     10276 MEMB     96       POPC     C28      CTL2    -0.180000       12.0110           0
     10277 MEMB     96       POPC     H8R      HAL2     0.900000E-01   1.00800           0
     10278 MEMB     96       POPC     H8S      HAL2     0.900000E-01   1.00800           0
     10279 MEMB     96       POPC     C29      CEL1    -0.150000       12.0110           0
     10280 MEMB     96       POPC     H91      HEL1     0.150000       1.00800           0
     10281 MEMB     96       POPC     C210     CEL1    -0.150000       12.0110           0
     10282 MEMB     96       POPC     H101     HEL1     0.150000       1.00800           0
     10283 MEMB     96       POPC     C211     CTL2    -0.180000       12.0110           0
     10284 MEMB     96       POPC     H11R     HAL2     0.900000E-01   1.00800           0
     10285 MEMB     96       POPC     H11S     HAL2     0.900000E-01   1.00800           0
     10286 MEMB     96       POPC     C212     CTL2    -0.180000       12.0110           0
     10287 MEMB     96       POPC     H12R     HAL2     0.900000E-01   1.00800           0
     10288 MEMB     96       POPC     H12S     HAL2     0.900000E-01   1.00800           0
     10289 MEMB     96       POPC     C213     CTL2    -0.180000       12.0110           0
     10290 MEMB     96       POPC     H13R     HAL2     0.900000E-01   1.00800           0
     10291 MEMB     96       POPC     H13S     HAL2     0.900000E-01   1.00800           0
     10292 MEMB     96       POPC     C214     CTL2    -0.180000       12.0110           0
     10293 MEMB     96       POPC     H14R     HAL2     0.900000E-01   1.00800           0
     10294 MEMB     96       POPC     H14S     HAL2     0.900000E-01   1.00800           0
     10295 MEMB     96       POPC     C215     CTL2    -0.180000       12.0110           0
     10296 MEMB     96       POPC     H15R     HAL2     0.900000E-01   1.00800           0
     10297 MEMB     96       POPC     H15S     HAL2     0.900000E-01   1.00800           0
     10298 MEMB     96       POPC     C216     CTL2    -0.180000       12.0110           0
     10299 MEMB     96       POPC     H16R     HAL2     0.900000E-01   1.00800           0
     10300 MEMB     96       POPC     H16S     HAL2     0.900000E-01   1.00800           0
     10301 MEMB     96       POPC     C217     CTL2    -0.180000       12.0110           0
     10302 MEMB     96       POPC     H17R     HAL2     0.900000E-01   1.00800           0
     10303 MEMB     96       POPC     H17S     HAL2     0.900000E-01   1.00800           0
     10304 MEMB     96       POPC     C218     CTL3    -0.270000       12.0110           0
     10305 MEMB     96       POPC     H18R     HAL3     0.900000E-01   1.00800           0
     10306 MEMB     96       POPC     H18S     HAL3     0.900000E-01   1.00800           0
     10307 MEMB     96       POPC     H18T     HAL3     0.900000E-01   1.00800           0
     10308 MEMB     96       POPC     C33      CTL2    -0.180000       12.0110           0
     10309 MEMB     96       POPC     H3X      HAL2     0.900000E-01   1.00800           0
     10310 MEMB     96       POPC     H3Y      HAL2     0.900000E-01   1.00800           0
     10311 MEMB     96       POPC     C34      CTL2    -0.180000       12.0110           0
     10312 MEMB     96       POPC     H4X      HAL2     0.900000E-01   1.00800           0
     10313 MEMB     96       POPC     H4Y      HAL2     0.900000E-01   1.00800           0
     10314 MEMB     96       POPC     C35      CTL2    -0.180000       12.0110           0
     10315 MEMB     96       POPC     H5X      HAL2     0.900000E-01   1.00800           0
     10316 MEMB     96       POPC     H5Y      HAL2     0.900000E-01   1.00800           0
     10317 MEMB     96       POPC     C36      CTL2    -0.180000       12.0110           0
     10318 MEMB     96       POPC     H6X      HAL2     0.900000E-01   1.00800           0
     10319 MEMB     96       POPC     H6Y      HAL2     0.900000E-01   1.00800           0
     10320 MEMB     96       POPC     C37      CTL2    -0.180000       12.0110           0
     10321 MEMB     96       POPC     H7X      HAL2     0.900000E-01   1.00800           0
     10322 MEMB     96       POPC     H7Y      HAL2     0.900000E-01   1.00800           0
     10323 MEMB     96       POPC     C38      CTL2    -0.180000       12.0110           0
     10324 MEMB     96       POPC     H8X      HAL2     0.900000E-01   1.00800           0
     10325 MEMB     96       POPC     H8Y      HAL2     0.900000E-01   1.00800           0
     10326 MEMB     96       POPC     C39      CTL2    -0.180000       12.0110           0
     10327 MEMB     96       POPC     H9X      HAL2     0.900000E-01   1.00800           0
     10328 MEMB     96       POPC     H9Y      HAL2     0.900000E-01   1.00800           0
     10329 MEMB     96       POPC     C310     CTL2    -0.180000       12.0110           0
     10330 MEMB     96       POPC     H10X     HAL2     0.900000E-01   1.00800           0
     10331 MEMB     96       POPC     H10Y     HAL2     0.900000E-01   1.00800           0
     10332 MEMB     96       POPC     C311     CTL2    -0.180000       12.0110           0
     10333 MEMB     96       POPC     H11X     HAL2     0.900000E-01   1.00800           0
     10334 MEMB     96       POPC     H11Y     HAL2     0.900000E-01   1.00800           0
     10335 MEMB     96       POPC     C312     CTL2    -0.180000       12.0110           0
     10336 MEMB     96       POPC     H12X     HAL2     0.900000E-01   1.00800           0
     10337 MEMB     96       POPC     H12Y     HAL2     0.900000E-01   1.00800           0
     10338 MEMB     96       POPC     C313     CTL2    -0.180000       12.0110           0
     10339 MEMB     96       POPC     H13X     HAL2     0.900000E-01   1.00800           0
     10340 MEMB     96       POPC     H13Y     HAL2     0.900000E-01   1.00800           0
     10341 MEMB     96       POPC     C314     CTL2    -0.180000       12.0110           0
     10342 MEMB     96       POPC     H14X     HAL2     0.900000E-01   1.00800           0
     10343 MEMB     96       POPC     H14Y     HAL2     0.900000E-01   1.00800           0
     10344 MEMB     96       POPC     C315     CTL2    -0.180000       12.0110           0
     10345 MEMB     96       POPC     H15X     HAL2     0.900000E-01   1.00800           0
     10346 MEMB     96       POPC     H15Y     HAL2     0.900000E-01   1.00800           0
     10347 MEMB     96       POPC     C316     CTL3    -0.270000       12.0110           0
     10348 MEMB     96       POPC     H16X     HAL3     0.900000E-01   1.00800           0
     10349 MEMB     96       POPC     H16Y     HAL3     0.900000E-01   1.00800           0
     10350 MEMB     96       POPC     H16Z     HAL3     0.900000E-01   1.00800           0
     10351 MEMB     97       POPE     N        NH3L    -0.300000       14.0070           0
     10352 MEMB     97       POPE     HN1      HCL      0.330000       1.00800           0
     10353 MEMB     97       POPE     HN2      HCL      0.330000       1.00800           0
     10354 MEMB     97       POPE     HN3      HCL      0.330000       1.00800           0
     10355 MEMB     97       POPE     C12      CTL2     0.130000       12.0110           0
     10356 MEMB     97       POPE     H12A     HAL2     0.900000E-01   1.00800           0
     10357 MEMB     97       POPE     H12B     HAL2     0.900000E-01   1.00800           0
     10358 MEMB     97       POPE     C11      CTL2    -0.800000E-01   12.0110           0
     10359 MEMB     97       POPE     H11A     HAL2     0.900000E-01   1.00800           0
     10360 MEMB     97       POPE     H11B     HAL2     0.900000E-01   1.00800           0
     10361 MEMB     97       POPE     P        PL        1.50000       30.9740           0
     10362 MEMB     97       POPE     O13      O2L     -0.780000       15.9994           0
     10363 MEMB     97       POPE     O14      O2L     -0.780000       15.9994           0
     10364 MEMB     97       POPE     O11      OSLP    -0.570000       15.9994           0
     10365 MEMB     97       POPE     O12      OSLP    -0.570000       15.9994           0
     10366 MEMB     97       POPE     C1       CTL2    -0.800000E-01   12.0110           0
     10367 MEMB     97       POPE     HA       HAL2     0.900000E-01   1.00800           0
     10368 MEMB     97       POPE     HB       HAL2     0.900000E-01   1.00800           0
     10369 MEMB     97       POPE     C2       CTL1     0.170000       12.0110           0
     10370 MEMB     97       POPE     HS       HAL1     0.900000E-01   1.00800           0
     10371 MEMB     97       POPE     O21      OSL     -0.490000       15.9994           0
     10372 MEMB     97       POPE     C21      CL       0.900000       12.0110           0
     10373 MEMB     97       POPE     O22      OBL     -0.630000       15.9994           0
     10374 MEMB     97       POPE     C22      CTL2    -0.220000       12.0110           0
     10375 MEMB     97       POPE     H2R      HAL2     0.900000E-01   1.00800           0
     10376 MEMB     97       POPE     H2S      HAL2     0.900000E-01   1.00800           0
     10377 MEMB     97       POPE     C3       CTL2     0.800000E-01   12.0110           0
     10378 MEMB     97       POPE     HX       HAL2     0.900000E-01   1.00800           0
     10379 MEMB     97       POPE     HY       HAL2     0.900000E-01   1.00800           0
     10380 MEMB     97       POPE     O31      OSL     -0.490000       15.9994           0
     10381 MEMB     97       POPE     C31      CL       0.900000       12.0110           0
     10382 MEMB     97       POPE     O32      OBL     -0.630000       15.9994           0
     10383 MEMB     97       POPE     C32      CTL2    -0.220000       12.0110           0
     10384 MEMB     97       POPE     H2X      HAL2     0.900000E-01   1.00800           0
     10385 MEMB     97       POPE     H2Y      HAL2     0.900000E-01   1.00800           0
     10386 MEMB     97       POPE     C23      CTL2    -0.180000       12.0110           0
     10387 MEMB     97       POPE     H3R      HAL2     0.900000E-01   1.00800           0
     10388 MEMB     97       POPE     H3S      HAL2     0.900000E-01   1.00800           0
     10389 MEMB     97       POPE     C24      CTL2    -0.180000       12.0110           0
     10390 MEMB     97       POPE     H4R      HAL2     0.900000E-01   1.00800           0
     10391 MEMB     97       POPE     H4S      HAL2     0.900000E-01   1.00800           0
     10392 MEMB     97       POPE     C25      CTL2    -0.180000       12.0110           0
     10393 MEMB     97       POPE     H5R      HAL2     0.900000E-01   1.00800           0
     10394 MEMB     97       POPE     H5S      HAL2     0.900000E-01   1.00800           0
     10395 MEMB     97       POPE     C26      CTL2    -0.180000       12.0110           0
     10396 MEMB     97       POPE     H6R      HAL2     0.900000E-01   1.00800           0
     10397 MEMB     97       POPE     H6S      HAL2     0.900000E-01   1.00800           0
     10398 MEMB     97       POPE     C27      CTL2    -0.180000       12.0110           0
     10399 MEMB     97       POPE     H7R      HAL2     0.900000E-01   1.00800           0
     10400 MEMB     97       POPE     H7S      HAL2     0.900000E-01   1.00800           0
     10401 MEMB     97       POPE     C28      CTL2    -0.180000       12.0110           0
     10402 MEMB     97       POPE     H8R      HAL2     0.900000E-01   1.00800           0
     10403 MEMB     97       POPE     H8S      HAL2     0.900000E-01   1.00800           0
     10404 MEMB     97       POPE     C29      CEL1    -0.150000       12.0110           0
     10405 MEMB     97       POPE     H91      HEL1     0.150000       1.00800           0
     10406 MEMB     97       POPE     C210     CEL1    -0.150000       12.0110           0
     10407 MEMB     97       POPE     H101     HEL1     0.150000       1.00800           0
     10408 MEMB     97       POPE     C211     CTL2    -0.180000       12.0110           0
     10409 MEMB     97       POPE     H11R     HAL2     0.900000E-01   1.00800           0
     10410 MEMB     97       POPE     H11S     HAL2     0.900000E-01   1.00800           0
     10411 MEMB     97       POPE     C212     CTL2    -0.180000       12.0110           0
     10412 MEMB     97       POPE     H12R     HAL2     0.900000E-01   1.00800           0
     10413 MEMB     97       POPE     H12S     HAL2     0.900000E-01   1.00800           0
     10414 MEMB     97       POPE     C213     CTL2    -0.180000       12.0110           0
     10415 MEMB     97       POPE     H13R     HAL2     0.900000E-01   1.00800           0
     10416 MEMB     97       POPE     H13S     HAL2     0.900000E-01   1.00800           0
     10417 MEMB     97       POPE     C214     CTL2    -0.180000       12.0110           0
     10418 MEMB     97       POPE     H14R     HAL2     0.900000E-01   1.00800           0
     10419 MEMB     97       POPE     H14S     HAL2     0.900000E-01   1.00800           0
     10420 MEMB     97       POPE     C215     CTL2    -0.180000       12.0110           0
     10421 MEMB     97       POPE     H15R     HAL2     0.900000E-01   1.00800           0
     10422 MEMB     97       POPE     H15S     HAL2     0.900000E-01   1.00800           0
     10423 MEMB     97       POPE     C216     CTL2    -0.180000       12.0110           0
     10424 MEMB     97       POPE     H16R     HAL2     0.900000E-01   1.00800           0
     10425 MEMB     97       POPE     H16S     HAL2     0.900000E-01   1.00800           0
     10426 MEMB     97       POPE     C217     CTL2    -0.180000       12.0110           0
     10427 MEMB     97       POPE     H17R     HAL2     0.900000E-01   1.00800           0
     10428 MEMB     97       POPE     H17S     HAL2     0.900000E-01   1.00800           0
     10429 MEMB     97       POPE     C218     CTL3    -0.270000       12.0110           0
     10430 MEMB     97       POPE     H18R     HAL3     0.900000E-01   1.00800           0
     10431 MEMB     97       POPE     H18S     HAL3     0.900000E-01   1.00800           0
     10432 MEMB     97       POPE     H18T     HAL3     0.900000E-01   1.00800           0
     10433 MEMB     97       POPE     C33      CTL2    -0.180000       12.0110           0
     10434 MEMB     97       POPE     H3X      HAL2     0.900000E-01   1.00800           0
     10435 MEMB     97       POPE     H3Y      HAL2     0.900000E-01   1.00800           0
     10436 MEMB     97       POPE     C34      CTL2    -0.180000       12.0110           0
     10437 MEMB     97       POPE     H4X      HAL2     0.900000E-01   1.00800           0
     10438 MEMB     97       POPE     H4Y      HAL2     0.900000E-01   1.00800           0
     10439 MEMB     97       POPE     C35      CTL2    -0.180000       12.0110           0
     10440 MEMB     97       POPE     H5X      HAL2     0.900000E-01   1.00800           0
     10441 MEMB     97       POPE     H5Y      HAL2     0.900000E-01   1.00800           0
     10442 MEMB     97       POPE     C36      CTL2    -0.180000       12.0110           0
     10443 MEMB     97       POPE     H6X      HAL2     0.900000E-01   1.00800           0
     10444 MEMB     97       POPE     H6Y      HAL2     0.900000E-01   1.00800           0
     10445 MEMB     97       POPE     C37      CTL2    -0.180000       12.0110           0
     10446 MEMB     97       POPE     H7X      HAL2     0.900000E-01   1.00800           0
     10447 MEMB     97       POPE     H7Y      HAL2     0.900000E-01   1.00800           0
     10448 MEMB     97       POPE     C38      CTL2    -0.180000       12.0110           0
     10449 MEMB     97       POPE     H8X      HAL2     0.900000E-01   1.00800           0
     10450 MEMB     97       POPE     H8Y      HAL2     0.900000E-01   1.00800           0
     10451 MEMB     97       POPE     C39      CTL2    -0.180000       12.0110           0
     10452 MEMB     97       POPE     H9X      HAL2     0.900000E-01   1.00800           0
     10453 MEMB     97       POPE     H9Y      HAL2     0.900000E-01   1.00800           0
     10454 MEMB     97       POPE     C310     CTL2    -0.180000       12.0110           0
     10455 MEMB     97       POPE     H10X     HAL2     0.900000E-01   1.00800           0
     10456 MEMB     97       POPE     H10Y     HAL2     0.900000E-01   1.00800           0
     10457 MEMB     97       POPE     C311     CTL2    -0.180000       12.0110           0
     10458 MEMB     97       POPE     H11X     HAL2     0.900000E-01   1.00800           0
     10459 MEMB     97       POPE     H11Y     HAL2     0.900000E-01   1.00800           0
     10460 MEMB     97       POPE     C312     CTL2    -0.180000       12.0110           0
     10461 MEMB     97       POPE     H12X     HAL2     0.900000E-01   1.00800           0
     10462 MEMB     97       POPE     H12Y     HAL2     0.900000E-01   1.00800           0
     10463 MEMB     97       POPE     C313     CTL2    -0.180000       12.0110           0
     10464 MEMB     97       POPE     H13X     HAL2     0.900000E-01   1.00800           0
     10465 MEMB     97       POPE     H13Y     HAL2     0.900000E-01   1.00800           0
     10466 MEMB     97       POPE     C314     CTL2    -0.180000       12.0110           0
     10467 MEMB     97       POPE     H14X     HAL2     0.900000E-01   1.00800           0
     10468 MEMB     97       POPE     H14Y     HAL2     0.900000E-01   1.00800           0
     10469 MEMB     97       POPE     C315     CTL2    -0.180000       12.0110           0
     10470 MEMB     97       POPE     H15X     HAL2     0.900000E-01   1.00800           0
     10471 MEMB     97       POPE     H15Y     HAL2     0.900000E-01   1.00800           0
     10472 MEMB     97       POPE     C316     CTL3    -0.270000       12.0110           0
     10473 MEMB     97       POPE     H16X     HAL3     0.900000E-01   1.00800           0
     10474 MEMB     97       POPE     H16Y     HAL3     0.900000E-01   1.00800           0
     10475 MEMB     97       POPE     H16Z     HAL3     0.900000E-01   1.00800           0
     10476 MEMB     98       POPE     N        NH3L    -0.300000       14.0070           0
     10477 MEMB     98       POPE     HN1      HCL      0.330000       1.00800           0
     10478 MEMB     98       POPE     HN2      HCL      0.330000       1.00800           0
     10479 MEMB     98       POPE     HN3      HCL      0.330000       1.00800           0
     10480 MEMB     98       POPE     C12      CTL2     0.130000       12.0110           0
     10481 MEMB     98       POPE     H12A     HAL2     0.900000E-01   1.00800           0
     10482 MEMB     98       POPE     H12B     HAL2     0.900000E-01   1.00800           0
     10483 MEMB     98       POPE     C11      CTL2    -0.800000E-01   12.0110           0
     10484 MEMB     98       POPE     H11A     HAL2     0.900000E-01   1.00800           0
     10485 MEMB     98       POPE     H11B     HAL2     0.900000E-01   1.00800           0
     10486 MEMB     98       POPE     P        PL        1.50000       30.9740           0
     10487 MEMB     98       POPE     O13      O2L     -0.780000       15.9994           0
     10488 MEMB     98       POPE     O14      O2L     -0.780000       15.9994           0
     10489 MEMB     98       POPE     O11      OSLP    -0.570000       15.9994           0
     10490 MEMB     98       POPE     O12      OSLP    -0.570000       15.9994           0
     10491 MEMB     98       POPE     C1       CTL2    -0.800000E-01   12.0110           0
     10492 MEMB     98       POPE     HA       HAL2     0.900000E-01   1.00800           0
     10493 MEMB     98       POPE     HB       HAL2     0.900000E-01   1.00800           0
     10494 MEMB     98       POPE     C2       CTL1     0.170000       12.0110           0
     10495 MEMB     98       POPE     HS       HAL1     0.900000E-01   1.00800           0
     10496 MEMB     98       POPE     O21      OSL     -0.490000       15.9994           0
     10497 MEMB     98       POPE     C21      CL       0.900000       12.0110           0
     10498 MEMB     98       POPE     O22      OBL     -0.630000       15.9994           0
     10499 MEMB     98       POPE     C22      CTL2    -0.220000       12.0110           0
     10500 MEMB     98       POPE     H2R      HAL2     0.900000E-01   1.00800           0
     10501 MEMB     98       POPE     H2S      HAL2     0.900000E-01   1.00800           0
     10502 MEMB     98       POPE     C3       CTL2     0.800000E-01   12.0110           0
     10503 MEMB     98       POPE     HX       HAL2     0.900000E-01   1.00800           0
     10504 MEMB     98       POPE     HY       HAL2     0.900000E-01   1.00800           0
     10505 MEMB     98       POPE     O31      OSL     -0.490000       15.9994           0
     10506 MEMB     98       POPE     C31      CL       0.900000       12.0110           0
     10507 MEMB     98       POPE     O32      OBL     -0.630000       15.9994           0
     10508 MEMB     98       POPE     C32      CTL2    -0.220000       12.0110           0
     10509 MEMB     98       POPE     H2X      HAL2     0.900000E-01   1.00800           0
     10510 MEMB     98       POPE     H2Y      HAL2     0.900000E-01   1.00800           0
     10511 MEMB     98       POPE     C23      CTL2    -0.180000       12.0110           0
     10512 MEMB     98       POPE     H3R      HAL2     0.900000E-01   1.00800           0
     10513 MEMB     98       POPE     H3S      HAL2     0.900000E-01   1.00800           0
     10514 MEMB     98       POPE     C24      CTL2    -0.180000       12.0110           0
     10515 MEMB     98       POPE     H4R      HAL2     0.900000E-01   1.00800           0
     10516 MEMB     98       POPE     H4S      HAL2     0.900000E-01   1.00800           0
     10517 MEMB     98       POPE     C25      CTL2    -0.180000       12.0110           0
     10518 MEMB     98       POPE     H5R      HAL2     0.900000E-01   1.00800           0
     10519 MEMB     98       POPE     H5S      HAL2     0.900000E-01   1.00800           0
     10520 MEMB     98       POPE     C26      CTL2    -0.180000       12.0110           0
     10521 MEMB     98       POPE     H6R      HAL2     0.900000E-01   1.00800           0
     10522 MEMB     98       POPE     H6S      HAL2     0.900000E-01   1.00800           0
     10523 MEMB     98       POPE     C27      CTL2    -0.180000       12.0110           0
     10524 MEMB     98       POPE     H7R      HAL2     0.900000E-01   1.00800           0
     10525 MEMB     98       POPE     H7S      HAL2     0.900000E-01   1.00800           0
     10526 MEMB     98       POPE     C28      CTL2    -0.180000       12.0110           0
     10527 MEMB     98       POPE     H8R      HAL2     0.900000E-01   1.00800           0
     10528 MEMB     98       POPE     H8S      HAL2     0.900000E-01   1.00800           0
     10529 MEMB     98       POPE     C29      CEL1    -0.150000       12.0110           0
     10530 MEMB     98       POPE     H91      HEL1     0.150000       1.00800           0
     10531 MEMB     98       POPE     C210     CEL1    -0.150000       12.0110           0
     10532 MEMB     98       POPE     H101     HEL1     0.150000       1.00800           0
     10533 MEMB     98       POPE     C211     CTL2    -0.180000       12.0110           0
     10534 MEMB     98       POPE     H11R     HAL2     0.900000E-01   1.00800           0
     10535 MEMB     98       POPE     H11S     HAL2     0.900000E-01   1.00800           0
     10536 MEMB     98       POPE     C212     CTL2    -0.180000       12.0110           0
     10537 MEMB     98       POPE     H12R     HAL2     0.900000E-01   1.00800           0
     10538 MEMB     98       POPE     H12S     HAL2     0.900000E-01   1.00800           0
     10539 MEMB     98       POPE     C213     CTL2    -0.180000       12.0110           0
     10540 MEMB     98       POPE     H13R     HAL2     0.900000E-01   1.00800           0
     10541 MEMB     98       POPE     H13S     HAL2     0.900000E-01   1.00800           0
     10542 MEMB     98       POPE     C214     CTL2    -0.180000       12.0110           0
     10543 MEMB     98       POPE     H14R     HAL2     0.900000E-01   1.00800           0
     10544 MEMB     98       POPE     H14S     HAL2     0.900000E-01   1.00800           0
     10545 MEMB     98       POPE     C215     CTL2    -0.180000       12.0110           0
     10546 MEMB     98       POPE     H15R     HAL2     0.900000E-01   1.00800           0
     10547 MEMB     98       POPE     H15S     HAL2     0.900000E-01   1.00800           0
     10548 MEMB     98       POPE     C216     CTL2    -0.180000       12.0110           0
     10549 MEMB     98       POPE     H16R     HAL2     0.900000E-01   1.00800           0
     10550 MEMB     98       POPE     H16S     HAL2     0.900000E-01   1.00800           0
     10551 MEMB     98       POPE     C217     CTL2    -0.180000       12.0110           0
     10552 MEMB     98       POPE     H17R     HAL2     0.900000E-01   1.00800           0
     10553 MEMB     98       POPE     H17S     HAL2     0.900000E-01   1.00800           0
     10554 MEMB     98       POPE     C218     CTL3    -0.270000       12.0110           0
     10555 MEMB     98       POPE     H18R     HAL3     0.900000E-01   1.00800           0
     10556 MEMB     98       POPE     H18S     HAL3     0.900000E-01   1.00800           0
     10557 MEMB     98       POPE     H18T     HAL3     0.900000E-01   1.00800           0
     10558 MEMB     98       POPE     C33      CTL2    -0.180000       12.0110           0
     10559 MEMB     98       POPE     H3X      HAL2     0.900000E-01   1.00800           0
     10560 MEMB     98       POPE     H3Y      HAL2     0.900000E-01   1.00800           0
     10561 MEMB     98       POPE     C34      CTL2    -0.180000       12.0110           0
     10562 MEMB     98       POPE     H4X      HAL2     0.900000E-01   1.00800           0
     10563 MEMB     98       POPE     H4Y      HAL2     0.900000E-01   1.00800           0
     10564 MEMB     98       POPE     C35      CTL2    -0.180000       12.0110           0
     10565 MEMB     98       POPE     H5X      HAL2     0.900000E-01   1.00800           0
     10566 MEMB     98       POPE     H5Y      HAL2     0.900000E-01   1.00800           0
     10567 MEMB     98       POPE     C36      CTL2    -0.180000       12.0110           0
     10568 MEMB     98       POPE     H6X      HAL2     0.900000E-01   1.00800           0
     10569 MEMB     98       POPE     H6Y      HAL2     0.900000E-01   1.00800           0
     10570 MEMB     98       POPE     C37      CTL2    -0.180000       12.0110           0
     10571 MEMB     98       POPE     H7X      HAL2     0.900000E-01   1.00800           0
     10572 MEMB     98       POPE     H7Y      HAL2     0.900000E-01   1.00800           0
     10573 MEMB     98       POPE     C38      CTL2    -0.180000       12.0110           0
     10574 MEMB     98       POPE     H8X      HAL2     0.900000E-01   1.00800           0
     10575 MEMB     98       POPE     H8Y      HAL2     0.900000E-01   1.00800           0
     10576 MEMB     98       POPE     C39      CTL2    -0.180000       12.0110           0
     10577 MEMB     98       POPE     H9X      HAL2     0.900000E-01   1.00800           0
     10578 MEMB     98       POPE     H9Y      HAL2     0.900000E-01   1.00800           0
     10579 MEMB     98       POPE     C310     CTL2    -0.180000       12.0110           0
     10580 MEMB     98       POPE     H10X     HAL2     0.900000E-01   1.00800           0
     10581 MEMB     98       POPE     H10Y     HAL2     0.900000E-01   1.00800           0
     10582 MEMB     98       POPE     C311     CTL2    -0.180000       12.0110           0
     10583 MEMB     98       POPE     H11X     HAL2     0.900000E-01   1.00800           0
     10584 MEMB     98       POPE     H11Y     HAL2     0.900000E-01   1.00800           0
     10585 MEMB     98       POPE     C312     CTL2    -0.180000       12.0110           0
     10586 MEMB     98       POPE     H12X     HAL2     0.900000E-01   1.00800           0
     10587 MEMB     98       POPE     H12Y     HAL2     0.900000E-01   1.00800           0
     10588 MEMB     98       POPE     C313     CTL2    -0.180000       12.0110           0
     10589 MEMB     98       POPE     H13X     HAL2     0.900000E-01   1.00800           0
     10590 MEMB     98       POPE     H13Y     HAL2     0.900000E-01   1.00800           0
     10591 MEMB     98       POPE     C314     CTL2    -0.180000       12.0110           0
     10592 MEMB     98       POPE     H14X     HAL2     0.900000E-01   1.00800           0
     10593 MEMB     98       POPE     H14Y     HAL2     0.900000E-01   1.00800           0
     10594 MEMB     98       POPE     C315     CTL2    -0.180000       12.0110           0
     10595 MEMB     98       POPE     H15X     HAL2     0.900000E-01   1.00800           0
     10596 MEMB     98       POPE     H15Y     HAL2     0.900000E-01   1.00800           0
     10597 MEMB     98       POPE     C316     CTL3    -0.270000       12.0110           0
     10598 MEMB     98       POPE     H16X     HAL3     0.900000E-01   1.00800           0
     10599 MEMB     98       POPE     H16Y     HAL3     0.900000E-01   1.00800           0
     10600 MEMB     98       POPE     H16Z     HAL3     0.900000E-01   1.00800           0
     10601 MEMB     99       POPC     N        NTL     -0.600000       14.0070           0
     10602 MEMB     99       POPC     C12      CTL2    -0.100000       12.0110           0
     10603 MEMB     99       POPC     H12A     HL       0.250000       1.00800           0
     10604 MEMB     99       POPC     H12B     HL       0.250000       1.00800           0
     10605 MEMB     99       POPC     C13      CTL5    -0.350000       12.0110           0
     10606 MEMB     99       POPC     H13A     HL       0.250000       1.00800           0
     10607 MEMB     99       POPC     H13B     HL       0.250000       1.00800           0
     10608 MEMB     99       POPC     H13C     HL       0.250000       1.00800           0
     10609 MEMB     99       POPC     C14      CTL5    -0.350000       12.0110           0
     10610 MEMB     99       POPC     H14A     HL       0.250000       1.00800           0
     10611 MEMB     99       POPC     H14B     HL       0.250000       1.00800           0
     10612 MEMB     99       POPC     H14C     HL       0.250000       1.00800           0
     10613 MEMB     99       POPC     C15      CTL5    -0.350000       12.0110           0
     10614 MEMB     99       POPC     H15A     HL       0.250000       1.00800           0
     10615 MEMB     99       POPC     H15B     HL       0.250000       1.00800           0
     10616 MEMB     99       POPC     H15C     HL       0.250000       1.00800           0
     10617 MEMB     99       POPC     C11      CTL2    -0.800000E-01   12.0110           0
     10618 MEMB     99       POPC     H11A     HAL2     0.900000E-01   1.00800           0
     10619 MEMB     99       POPC     H11B     HAL2     0.900000E-01   1.00800           0
     10620 MEMB     99       POPC     P        PL        1.50000       30.9740           0
     10621 MEMB     99       POPC     O13      O2L     -0.780000       15.9994           0
     10622 MEMB     99       POPC     O14      O2L     -0.780000       15.9994           0
     10623 MEMB     99       POPC     O12      OSLP    -0.570000       15.9994           0
     10624 MEMB     99       POPC     O11      OSLP    -0.570000       15.9994           0
     10625 MEMB     99       POPC     C1       CTL2    -0.800000E-01   12.0110           0
     10626 MEMB     99       POPC     HA       HAL2     0.900000E-01   1.00800           0
     10627 MEMB     99       POPC     HB       HAL2     0.900000E-01   1.00800           0
     10628 MEMB     99       POPC     C2       CTL1     0.170000       12.0110           0
     10629 MEMB     99       POPC     HS       HAL1     0.900000E-01   1.00800           0
     10630 MEMB     99       POPC     O21      OSL     -0.490000       15.9994           0
     10631 MEMB     99       POPC     C21      CL       0.900000       12.0110           0
     10632 MEMB     99       POPC     O22      OBL     -0.630000       15.9994           0
     10633 MEMB     99       POPC     C22      CTL2    -0.220000       12.0110           0
     10634 MEMB     99       POPC     H2R      HAL2     0.900000E-01   1.00800           0
     10635 MEMB     99       POPC     H2S      HAL2     0.900000E-01   1.00800           0
     10636 MEMB     99       POPC     C3       CTL2     0.800000E-01   12.0110           0
     10637 MEMB     99       POPC     HX       HAL2     0.900000E-01   1.00800           0
     10638 MEMB     99       POPC     HY       HAL2     0.900000E-01   1.00800           0
     10639 MEMB     99       POPC     O31      OSL     -0.490000       15.9994           0
     10640 MEMB     99       POPC     C31      CL       0.900000       12.0110           0
     10641 MEMB     99       POPC     O32      OBL     -0.630000       15.9994           0
     10642 MEMB     99       POPC     C32      CTL2    -0.220000       12.0110           0
     10643 MEMB     99       POPC     H2X      HAL2     0.900000E-01   1.00800           0
     10644 MEMB     99       POPC     H2Y      HAL2     0.900000E-01   1.00800           0
     10645 MEMB     99       POPC     C23      CTL2    -0.180000       12.0110           0
     10646 MEMB     99       POPC     H3R      HAL2     0.900000E-01   1.00800           0
     10647 MEMB     99       POPC     H3S      HAL2     0.900000E-01   1.00800           0
     10648 MEMB     99       POPC     C24      CTL2    -0.180000       12.0110           0
     10649 MEMB     99       POPC     H4R      HAL2     0.900000E-01   1.00800           0
     10650 MEMB     99       POPC     H4S      HAL2     0.900000E-01   1.00800           0
     10651 MEMB     99       POPC     C25      CTL2    -0.180000       12.0110           0
     10652 MEMB     99       POPC     H5R      HAL2     0.900000E-01   1.00800           0
     10653 MEMB     99       POPC     H5S      HAL2     0.900000E-01   1.00800           0
     10654 MEMB     99       POPC     C26      CTL2    -0.180000       12.0110           0
     10655 MEMB     99       POPC     H6R      HAL2     0.900000E-01   1.00800           0
     10656 MEMB     99       POPC     H6S      HAL2     0.900000E-01   1.00800           0
     10657 MEMB     99       POPC     C27      CTL2    -0.180000       12.0110           0
     10658 MEMB     99       POPC     H7R      HAL2     0.900000E-01   1.00800           0
     10659 MEMB     99       POPC     H7S      HAL2     0.900000E-01   1.00800           0
     10660 MEMB     99       POPC     C28      CTL2    -0.180000       12.0110           0
     10661 MEMB     99       POPC     H8R      HAL2     0.900000E-01   1.00800           0
     10662 MEMB     99       POPC     H8S      HAL2     0.900000E-01   1.00800           0
     10663 MEMB     99       POPC     C29      CEL1    -0.150000       12.0110           0
     10664 MEMB     99       POPC     H91      HEL1     0.150000       1.00800           0
     10665 MEMB     99       POPC     C210     CEL1    -0.150000       12.0110           0
     10666 MEMB     99       POPC     H101     HEL1     0.150000       1.00800           0
     10667 MEMB     99       POPC     C211     CTL2    -0.180000       12.0110           0
     10668 MEMB     99       POPC     H11R     HAL2     0.900000E-01   1.00800           0
     10669 MEMB     99       POPC     H11S     HAL2     0.900000E-01   1.00800           0
     10670 MEMB     99       POPC     C212     CTL2    -0.180000       12.0110           0
     10671 MEMB     99       POPC     H12R     HAL2     0.900000E-01   1.00800           0
     10672 MEMB     99       POPC     H12S     HAL2     0.900000E-01   1.00800           0
     10673 MEMB     99       POPC     C213     CTL2    -0.180000       12.0110           0
     10674 MEMB     99       POPC     H13R     HAL2     0.900000E-01   1.00800           0
     10675 MEMB     99       POPC     H13S     HAL2     0.900000E-01   1.00800           0
     10676 MEMB     99       POPC     C214     CTL2    -0.180000       12.0110           0
     10677 MEMB     99       POPC     H14R     HAL2     0.900000E-01   1.00800           0
     10678 MEMB     99       POPC     H14S     HAL2     0.900000E-01   1.00800           0
     10679 MEMB     99       POPC     C215     CTL2    -0.180000       12.0110           0
     10680 MEMB     99       POPC     H15R     HAL2     0.900000E-01   1.00800           0
     10681 MEMB     99       POPC     H15S     HAL2     0.900000E-01   1.00800           0
     10682 MEMB     99       POPC     C216     CTL2    -0.180000       12.0110           0
     10683 MEMB     99       POPC     H16R     HAL2     0.900000E-01   1.00800           0
     10684 MEMB     99       POPC     H16S     HAL2     0.900000E-01   1.00800           0
     10685 MEMB     99       POPC     C217     CTL2    -0.180000       12.0110           0
     10686 MEMB     99       POPC     H17R     HAL2     0.900000E-01   1.00800           0
     10687 MEMB     99       POPC     H17S     HAL2     0.900000E-01   1.00800           0
     10688 MEMB     99       POPC     C218     CTL3    -0.270000       12.0110           0
     10689 MEMB     99       POPC     H18R     HAL3     0.900000E-01   1.00800           0
     10690 MEMB     99       POPC     H18S     HAL3     0.900000E-01   1.00800           0
     10691 MEMB     99       POPC     H18T     HAL3     0.900000E-01   1.00800           0
     10692 MEMB     99       POPC     C33      CTL2    -0.180000       12.0110           0
     10693 MEMB     99       POPC     H3X      HAL2     0.900000E-01   1.00800           0
     10694 MEMB     99       POPC     H3Y      HAL2     0.900000E-01   1.00800           0
     10695 MEMB     99       POPC     C34      CTL2    -0.180000       12.0110           0
     10696 MEMB     99       POPC     H4X      HAL2     0.900000E-01   1.00800           0
     10697 MEMB     99       POPC     H4Y      HAL2     0.900000E-01   1.00800           0
     10698 MEMB     99       POPC     C35      CTL2    -0.180000       12.0110           0
     10699 MEMB     99       POPC     H5X      HAL2     0.900000E-01   1.00800           0
     10700 MEMB     99       POPC     H5Y      HAL2     0.900000E-01   1.00800           0
     10701 MEMB     99       POPC     C36      CTL2    -0.180000       12.0110           0
     10702 MEMB     99       POPC     H6X      HAL2     0.900000E-01   1.00800           0
     10703 MEMB     99       POPC     H6Y      HAL2     0.900000E-01   1.00800           0
     10704 MEMB     99       POPC     C37      CTL2    -0.180000       12.0110           0
     10705 MEMB     99       POPC     H7X      HAL2     0.900000E-01   1.00800           0
     10706 MEMB     99       POPC     H7Y      HAL2     0.900000E-01   1.00800           0
     10707 MEMB     99       POPC     C38      CTL2    -0.180000       12.0110           0
     10708 MEMB     99       POPC     H8X      HAL2     0.900000E-01   1.00800           0
     10709 MEMB     99       POPC     H8Y      HAL2     0.900000E-01   1.00800           0
     10710 MEMB     99       POPC     C39      CTL2    -0.180000       12.0110           0
     10711 MEMB     99       POPC     H9X      HAL2     0.900000E-01   1.00800           0
     10712 MEMB     99       POPC     H9Y      HAL2     0.900000E-01   1.00800           0
     10713 MEMB     99       POPC     C310     CTL2    -0.180000       12.0110           0
     10714 MEMB     99       POPC     H10X     HAL2     0.900000E-01   1.00800           0
     10715 MEMB     99       POPC     H10Y     HAL2     0.900000E-01   1.00800           0
     10716 MEMB     99       POPC     C311     CTL2    -0.180000       12.0110           0
     10717 MEMB     99       POPC     H11X     HAL2     0.900000E-01   1.00800           0
     10718 MEMB     99       POPC     H11Y     HAL2     0.900000E-01   1.00800           0
     10719 MEMB     99       POPC     C312     CTL2    -0.180000       12.0110           0
     10720 MEMB     99       POPC     H12X     HAL2     0.900000E-01   1.00800           0
     10721 MEMB     99       POPC     H12Y     HAL2     0.900000E-01   1.00800           0
     10722 MEMB     99       POPC     C313     CTL2    -0.180000       12.0110           0
     10723 MEMB     99       POPC     H13X     HAL2     0.900000E-01   1.00800           0
     10724 MEMB     99       POPC     H13Y     HAL2     0.900000E-01   1.00800           0
     10725 MEMB     99       POPC     C314     CTL2    -0.180000       12.0110           0
     10726 MEMB     99       POPC     H14X     HAL2     0.900000E-01   1.00800           0
     10727 MEMB     99       POPC     H14Y     HAL2     0.900000E-01   1.00800           0
     10728 MEMB     99       POPC     C315     CTL2    -0.180000       12.0110           0
     10729 MEMB     99       POPC     H15X     HAL2     0.900000E-01   1.00800           0
     10730 MEMB     99       POPC     H15Y     HAL2     0.900000E-01   1.00800           0
     10731 MEMB     99       POPC     C316     CTL3    -0.270000       12.0110           0
     10732 MEMB     99       POPC     H16X     HAL3     0.900000E-01   1.00800           0
     10733 MEMB     99       POPC     H16Y     HAL3     0.900000E-01   1.00800           0
     10734 MEMB     99       POPC     H16Z     HAL3     0.900000E-01   1.00800           0
     10735 MEMB     100      POPE     N        NH3L    -0.300000       14.0070           0
     10736 MEMB     100      POPE     HN1      HCL      0.330000       1.00800           0
     10737 MEMB     100      POPE     HN2      HCL      0.330000       1.00800           0
     10738 MEMB     100      POPE     HN3      HCL      0.330000       1.00800           0
     10739 MEMB     100      POPE     C12      CTL2     0.130000       12.0110           0
     10740 MEMB     100      POPE     H12A     HAL2     0.900000E-01   1.00800           0
     10741 MEMB     100      POPE     H12B     HAL2     0.900000E-01   1.00800           0
     10742 MEMB     100      POPE     C11      CTL2    -0.800000E-01   12.0110           0
     10743 MEMB     100      POPE     H11A     HAL2     0.900000E-01   1.00800           0
     10744 MEMB     100      POPE     H11B     HAL2     0.900000E-01   1.00800           0
     10745 MEMB     100      POPE     P        PL        1.50000       30.9740           0
     10746 MEMB     100      POPE     O13      O2L     -0.780000       15.9994           0
     10747 MEMB     100      POPE     O14      O2L     -0.780000       15.9994           0
     10748 MEMB     100      POPE     O11      OSLP    -0.570000       15.9994           0
     10749 MEMB     100      POPE     O12      OSLP    -0.570000       15.9994           0
     10750 MEMB     100      POPE     C1       CTL2    -0.800000E-01   12.0110           0
     10751 MEMB     100      POPE     HA       HAL2     0.900000E-01   1.00800           0
     10752 MEMB     100      POPE     HB       HAL2     0.900000E-01   1.00800           0
     10753 MEMB     100      POPE     C2       CTL1     0.170000       12.0110           0
     10754 MEMB     100      POPE     HS       HAL1     0.900000E-01   1.00800           0
     10755 MEMB     100      POPE     O21      OSL     -0.490000       15.9994           0
     10756 MEMB     100      POPE     C21      CL       0.900000       12.0110           0
     10757 MEMB     100      POPE     O22      OBL     -0.630000       15.9994           0
     10758 MEMB     100      POPE     C22      CTL2    -0.220000       12.0110           0
     10759 MEMB     100      POPE     H2R      HAL2     0.900000E-01   1.00800           0
     10760 MEMB     100      POPE     H2S      HAL2     0.900000E-01   1.00800           0
     10761 MEMB     100      POPE     C3       CTL2     0.800000E-01   12.0110           0
     10762 MEMB     100      POPE     HX       HAL2     0.900000E-01   1.00800           0
     10763 MEMB     100      POPE     HY       HAL2     0.900000E-01   1.00800           0
     10764 MEMB     100      POPE     O31      OSL     -0.490000       15.9994           0
     10765 MEMB     100      POPE     C31      CL       0.900000       12.0110           0
     10766 MEMB     100      POPE     O32      OBL     -0.630000       15.9994           0
     10767 MEMB     100      POPE     C32      CTL2    -0.220000       12.0110           0
     10768 MEMB     100      POPE     H2X      HAL2     0.900000E-01   1.00800           0
     10769 MEMB     100      POPE     H2Y      HAL2     0.900000E-01   1.00800           0
     10770 MEMB     100      POPE     C23      CTL2    -0.180000       12.0110           0
     10771 MEMB     100      POPE     H3R      HAL2     0.900000E-01   1.00800           0
     10772 MEMB     100      POPE     H3S      HAL2     0.900000E-01   1.00800           0
     10773 MEMB     100      POPE     C24      CTL2    -0.180000       12.0110           0
     10774 MEMB     100      POPE     H4R      HAL2     0.900000E-01   1.00800           0
     10775 MEMB     100      POPE     H4S      HAL2     0.900000E-01   1.00800           0
     10776 MEMB     100      POPE     C25      CTL2    -0.180000       12.0110           0
     10777 MEMB     100      POPE     H5R      HAL2     0.900000E-01   1.00800           0
     10778 MEMB     100      POPE     H5S      HAL2     0.900000E-01   1.00800           0
     10779 MEMB     100      POPE     C26      CTL2    -0.180000       12.0110           0
     10780 MEMB     100      POPE     H6R      HAL2     0.900000E-01   1.00800           0
     10781 MEMB     100      POPE     H6S      HAL2     0.900000E-01   1.00800           0
     10782 MEMB     100      POPE     C27      CTL2    -0.180000       12.0110           0
     10783 MEMB     100      POPE     H7R      HAL2     0.900000E-01   1.00800           0
     10784 MEMB     100      POPE     H7S      HAL2     0.900000E-01   1.00800           0
     10785 MEMB     100      POPE     C28      CTL2    -0.180000       12.0110           0
     10786 MEMB     100      POPE     H8R      HAL2     0.900000E-01   1.00800           0
     10787 MEMB     100      POPE     H8S      HAL2     0.900000E-01   1.00800           0
     10788 MEMB     100      POPE     C29      CEL1    -0.150000       12.0110           0
     10789 MEMB     100      POPE     H91      HEL1     0.150000       1.00800           0
     10790 MEMB     100      POPE     C210     CEL1    -0.150000       12.0110           0
     10791 MEMB     100      POPE     H101     HEL1     0.150000       1.00800           0
     10792 MEMB     100      POPE     C211     CTL2    -0.180000       12.0110           0
     10793 MEMB     100      POPE     H11R     HAL2     0.900000E-01   1.00800           0
     10794 MEMB     100      POPE     H11S     HAL2     0.900000E-01   1.00800           0
     10795 MEMB     100      POPE     C212     CTL2    -0.180000       12.0110           0
     10796 MEMB     100      POPE     H12R     HAL2     0.900000E-01   1.00800           0
     10797 MEMB     100      POPE     H12S     HAL2     0.900000E-01   1.00800           0
     10798 MEMB     100      POPE     C213     CTL2    -0.180000       12.0110           0
     10799 MEMB     100      POPE     H13R     HAL2     0.900000E-01   1.00800           0
     10800 MEMB     100      POPE     H13S     HAL2     0.900000E-01   1.00800           0
     10801 MEMB     100      POPE     C214     CTL2    -0.180000       12.0110           0
     10802 MEMB     100      POPE     H14R     HAL2     0.900000E-01   1.00800           0
     10803 MEMB     100      POPE     H14S     HAL2     0.900000E-01   1.00800           0
     10804 MEMB     100      POPE     C215     CTL2    -0.180000       12.0110           0
     10805 MEMB     100      POPE     H15R     HAL2     0.900000E-01   1.00800           0
     10806 MEMB     100      POPE     H15S     HAL2     0.900000E-01   1.00800           0
     10807 MEMB     100      POPE     C216     CTL2    -0.180000       12.0110           0
     10808 MEMB     100      POPE     H16R     HAL2     0.900000E-01   1.00800           0
     10809 MEMB     100      POPE     H16S     HAL2     0.900000E-01   1.00800           0
     10810 MEMB     100      POPE     C217     CTL2    -0.180000       12.0110           0
     10811 MEMB     100      POPE     H17R     HAL2     0.900000E-01   1.00800           0
     10812 MEMB     100      POPE     H17S     HAL2     0.900000E-01   1.00800           0
     10813 MEMB     100      POPE     C218     CTL3    -0.270000       12.0110           0
     10814 MEMB     100      POPE     H18R     HAL3     0.900000E-01   1.00800           0
     10815 MEMB     100      POPE     H18S     HAL3     0.900000E-01   1.00800           0
     10816 MEMB     100      POPE     H18T     HAL3     0.900000E-01   1.00800           0
     10817 MEMB     100      POPE     C33      CTL2    -0.180000       12.0110           0
     10818 MEMB     100      POPE     H3X      HAL2     0.900000E-01   1.00800           0
     10819 MEMB     100      POPE     H3Y      HAL2     0.900000E-01   1.00800           0
     10820 MEMB     100      POPE     C34      CTL2    -0.180000       12.0110           0
     10821 MEMB     100      POPE     H4X      HAL2     0.900000E-01   1.00800           0
     10822 MEMB     100      POPE     H4Y      HAL2     0.900000E-01   1.00800           0
     10823 MEMB     100      POPE     C35      CTL2    -0.180000       12.0110           0
     10824 MEMB     100      POPE     H5X      HAL2     0.900000E-01   1.00800           0
     10825 MEMB     100      POPE     H5Y      HAL2     0.900000E-01   1.00800           0
     10826 MEMB     100      POPE     C36      CTL2    -0.180000       12.0110           0
     10827 MEMB     100      POPE     H6X      HAL2     0.900000E-01   1.00800           0
     10828 MEMB     100      POPE     H6Y      HAL2     0.900000E-01   1.00800           0
     10829 MEMB     100      POPE     C37      CTL2    -0.180000       12.0110           0
     10830 MEMB     100      POPE     H7X      HAL2     0.900000E-01   1.00800           0
     10831 MEMB     100      POPE     H7Y      HAL2     0.900000E-01   1.00800           0
     10832 MEMB     100      POPE     C38      CTL2    -0.180000       12.0110           0
     10833 MEMB     100      POPE     H8X      HAL2     0.900000E-01   1.00800           0
     10834 MEMB     100      POPE     H8Y      HAL2     0.900000E-01   1.00800           0
     10835 MEMB     100      POPE     C39      CTL2    -0.180000       12.0110           0
     10836 MEMB     100      POPE     H9X      HAL2     0.900000E-01   1.00800           0
     10837 MEMB     100      POPE     H9Y      HAL2     0.900000E-01   1.00800           0
     10838 MEMB     100      POPE     C310     CTL2    -0.180000       12.0110           0
     10839 MEMB     100      POPE     H10X     HAL2     0.900000E-01   1.00800           0
     10840 MEMB     100      POPE     H10Y     HAL2     0.900000E-01   1.00800           0
     10841 MEMB     100      POPE     C311     CTL2    -0.180000       12.0110           0
     10842 MEMB     100      POPE     H11X     HAL2     0.900000E-01   1.00800           0
     10843 MEMB     100      POPE     H11Y     HAL2     0.900000E-01   1.00800           0
     10844 MEMB     100      POPE     C312     CTL2    -0.180000       12.0110           0
     10845 MEMB     100      POPE     H12X     HAL2     0.900000E-01   1.00800           0
     10846 MEMB     100      POPE     H12Y     HAL2     0.900000E-01   1.00800           0
     10847 MEMB     100      POPE     C313     CTL2    -0.180000       12.0110           0
     10848 MEMB     100      POPE     H13X     HAL2     0.900000E-01   1.00800           0
     10849 MEMB     100      POPE     H13Y     HAL2     0.900000E-01   1.00800           0
     10850 MEMB     100      POPE     C314     CTL2    -0.180000       12.0110           0
     10851 MEMB     100      POPE     H14X     HAL2     0.900000E-01   1.00800           0
     10852 MEMB     100      POPE     H14Y     HAL2     0.900000E-01   1.00800           0
     10853 MEMB     100      POPE     C315     CTL2    -0.180000       12.0110           0
     10854 MEMB     100      POPE     H15X     HAL2     0.900000E-01   1.00800           0
     10855 MEMB     100      POPE     H15Y     HAL2     0.900000E-01   1.00800           0
     10856 MEMB     100      POPE     C316     CTL3    -0.270000       12.0110           0
     10857 MEMB     100      POPE     H16X     HAL3     0.900000E-01   1.00800           0
     10858 MEMB     100      POPE     H16Y     HAL3     0.900000E-01   1.00800           0
     10859 MEMB     100      POPE     H16Z     HAL3     0.900000E-01   1.00800           0
     10860 MEMB     101      POPC     N        NTL     -0.600000       14.0070           0
     10861 MEMB     101      POPC     C12      CTL2    -0.100000       12.0110           0
     10862 MEMB     101      POPC     H12A     HL       0.250000       1.00800           0
     10863 MEMB     101      POPC     H12B     HL       0.250000       1.00800           0
     10864 MEMB     101      POPC     C13      CTL5    -0.350000       12.0110           0
     10865 MEMB     101      POPC     H13A     HL       0.250000       1.00800           0
     10866 MEMB     101      POPC     H13B     HL       0.250000       1.00800           0
     10867 MEMB     101      POPC     H13C     HL       0.250000       1.00800           0
     10868 MEMB     101      POPC     C14      CTL5    -0.350000       12.0110           0
     10869 MEMB     101      POPC     H14A     HL       0.250000       1.00800           0
     10870 MEMB     101      POPC     H14B     HL       0.250000       1.00800           0
     10871 MEMB     101      POPC     H14C     HL       0.250000       1.00800           0
     10872 MEMB     101      POPC     C15      CTL5    -0.350000       12.0110           0
     10873 MEMB     101      POPC     H15A     HL       0.250000       1.00800           0
     10874 MEMB     101      POPC     H15B     HL       0.250000       1.00800           0
     10875 MEMB     101      POPC     H15C     HL       0.250000       1.00800           0
     10876 MEMB     101      POPC     C11      CTL2    -0.800000E-01   12.0110           0
     10877 MEMB     101      POPC     H11A     HAL2     0.900000E-01   1.00800           0
     10878 MEMB     101      POPC     H11B     HAL2     0.900000E-01   1.00800           0
     10879 MEMB     101      POPC     P        PL        1.50000       30.9740           0
     10880 MEMB     101      POPC     O13      O2L     -0.780000       15.9994           0
     10881 MEMB     101      POPC     O14      O2L     -0.780000       15.9994           0
     10882 MEMB     101      POPC     O12      OSLP    -0.570000       15.9994           0
     10883 MEMB     101      POPC     O11      OSLP    -0.570000       15.9994           0
     10884 MEMB     101      POPC     C1       CTL2    -0.800000E-01   12.0110           0
     10885 MEMB     101      POPC     HA       HAL2     0.900000E-01   1.00800           0
     10886 MEMB     101      POPC     HB       HAL2     0.900000E-01   1.00800           0
     10887 MEMB     101      POPC     C2       CTL1     0.170000       12.0110           0
     10888 MEMB     101      POPC     HS       HAL1     0.900000E-01   1.00800           0
     10889 MEMB     101      POPC     O21      OSL     -0.490000       15.9994           0
     10890 MEMB     101      POPC     C21      CL       0.900000       12.0110           0
     10891 MEMB     101      POPC     O22      OBL     -0.630000       15.9994           0
     10892 MEMB     101      POPC     C22      CTL2    -0.220000       12.0110           0
     10893 MEMB     101      POPC     H2R      HAL2     0.900000E-01   1.00800           0
     10894 MEMB     101      POPC     H2S      HAL2     0.900000E-01   1.00800           0
     10895 MEMB     101      POPC     C3       CTL2     0.800000E-01   12.0110           0
     10896 MEMB     101      POPC     HX       HAL2     0.900000E-01   1.00800           0
     10897 MEMB     101      POPC     HY       HAL2     0.900000E-01   1.00800           0
     10898 MEMB     101      POPC     O31      OSL     -0.490000       15.9994           0
     10899 MEMB     101      POPC     C31      CL       0.900000       12.0110           0
     10900 MEMB     101      POPC     O32      OBL     -0.630000       15.9994           0
     10901 MEMB     101      POPC     C32      CTL2    -0.220000       12.0110           0
     10902 MEMB     101      POPC     H2X      HAL2     0.900000E-01   1.00800           0
     10903 MEMB     101      POPC     H2Y      HAL2     0.900000E-01   1.00800           0
     10904 MEMB     101      POPC     C23      CTL2    -0.180000       12.0110           0
     10905 MEMB     101      POPC     H3R      HAL2     0.900000E-01   1.00800           0
     10906 MEMB     101      POPC     H3S      HAL2     0.900000E-01   1.00800           0
     10907 MEMB     101      POPC     C24      CTL2    -0.180000       12.0110           0
     10908 MEMB     101      POPC     H4R      HAL2     0.900000E-01   1.00800           0
     10909 MEMB     101      POPC     H4S      HAL2     0.900000E-01   1.00800           0
     10910 MEMB     101      POPC     C25      CTL2    -0.180000       12.0110           0
     10911 MEMB     101      POPC     H5R      HAL2     0.900000E-01   1.00800           0
     10912 MEMB     101      POPC     H5S      HAL2     0.900000E-01   1.00800           0
     10913 MEMB     101      POPC     C26      CTL2    -0.180000       12.0110           0
     10914 MEMB     101      POPC     H6R      HAL2     0.900000E-01   1.00800           0
     10915 MEMB     101      POPC     H6S      HAL2     0.900000E-01   1.00800           0
     10916 MEMB     101      POPC     C27      CTL2    -0.180000       12.0110           0
     10917 MEMB     101      POPC     H7R      HAL2     0.900000E-01   1.00800           0
     10918 MEMB     101      POPC     H7S      HAL2     0.900000E-01   1.00800           0
     10919 MEMB     101      POPC     C28      CTL2    -0.180000       12.0110           0
     10920 MEMB     101      POPC     H8R      HAL2     0.900000E-01   1.00800           0
     10921 MEMB     101      POPC     H8S      HAL2     0.900000E-01   1.00800           0
     10922 MEMB     101      POPC     C29      CEL1    -0.150000       12.0110           0
     10923 MEMB     101      POPC     H91      HEL1     0.150000       1.00800           0
     10924 MEMB     101      POPC     C210     CEL1    -0.150000       12.0110           0
     10925 MEMB     101      POPC     H101     HEL1     0.150000       1.00800           0
     10926 MEMB     101      POPC     C211     CTL2    -0.180000       12.0110           0
     10927 MEMB     101      POPC     H11R     HAL2     0.900000E-01   1.00800           0
     10928 MEMB     101      POPC     H11S     HAL2     0.900000E-01   1.00800           0
     10929 MEMB     101      POPC     C212     CTL2    -0.180000       12.0110           0
     10930 MEMB     101      POPC     H12R     HAL2     0.900000E-01   1.00800           0
     10931 MEMB     101      POPC     H12S     HAL2     0.900000E-01   1.00800           0
     10932 MEMB     101      POPC     C213     CTL2    -0.180000       12.0110           0
     10933 MEMB     101      POPC     H13R     HAL2     0.900000E-01   1.00800           0
     10934 MEMB     101      POPC     H13S     HAL2     0.900000E-01   1.00800           0
     10935 MEMB     101      POPC     C214     CTL2    -0.180000       12.0110           0
     10936 MEMB     101      POPC     H14R     HAL2     0.900000E-01   1.00800           0
     10937 MEMB     101      POPC     H14S     HAL2     0.900000E-01   1.00800           0
     10938 MEMB     101      POPC     C215     CTL2    -0.180000       12.0110           0
     10939 MEMB     101      POPC     H15R     HAL2     0.900000E-01   1.00800           0
     10940 MEMB     101      POPC     H15S     HAL2     0.900000E-01   1.00800           0
     10941 MEMB     101      POPC     C216     CTL2    -0.180000       12.0110           0
     10942 MEMB     101      POPC     H16R     HAL2     0.900000E-01   1.00800           0
     10943 MEMB     101      POPC     H16S     HAL2     0.900000E-01   1.00800           0
     10944 MEMB     101      POPC     C217     CTL2    -0.180000       12.0110           0
     10945 MEMB     101      POPC     H17R     HAL2     0.900000E-01   1.00800           0
     10946 MEMB     101      POPC     H17S     HAL2     0.900000E-01   1.00800           0
     10947 MEMB     101      POPC     C218     CTL3    -0.270000       12.0110           0
     10948 MEMB     101      POPC     H18R     HAL3     0.900000E-01   1.00800           0
     10949 MEMB     101      POPC     H18S     HAL3     0.900000E-01   1.00800           0
     10950 MEMB     101      POPC     H18T     HAL3     0.900000E-01   1.00800           0
     10951 MEMB     101      POPC     C33      CTL2    -0.180000       12.0110           0
     10952 MEMB     101      POPC     H3X      HAL2     0.900000E-01   1.00800           0
     10953 MEMB     101      POPC     H3Y      HAL2     0.900000E-01   1.00800           0
     10954 MEMB     101      POPC     C34      CTL2    -0.180000       12.0110           0
     10955 MEMB     101      POPC     H4X      HAL2     0.900000E-01   1.00800           0
     10956 MEMB     101      POPC     H4Y      HAL2     0.900000E-01   1.00800           0
     10957 MEMB     101      POPC     C35      CTL2    -0.180000       12.0110           0
     10958 MEMB     101      POPC     H5X      HAL2     0.900000E-01   1.00800           0
     10959 MEMB     101      POPC     H5Y      HAL2     0.900000E-01   1.00800           0
     10960 MEMB     101      POPC     C36      CTL2    -0.180000       12.0110           0
     10961 MEMB     101      POPC     H6X      HAL2     0.900000E-01   1.00800           0
     10962 MEMB     101      POPC     H6Y      HAL2     0.900000E-01   1.00800           0
     10963 MEMB     101      POPC     C37      CTL2    -0.180000       12.0110           0
     10964 MEMB     101      POPC     H7X      HAL2     0.900000E-01   1.00800           0
     10965 MEMB     101      POPC     H7Y      HAL2     0.900000E-01   1.00800           0
     10966 MEMB     101      POPC     C38      CTL2    -0.180000       12.0110           0
     10967 MEMB     101      POPC     H8X      HAL2     0.900000E-01   1.00800           0
     10968 MEMB     101      POPC     H8Y      HAL2     0.900000E-01   1.00800           0
     10969 MEMB     101      POPC     C39      CTL2    -0.180000       12.0110           0
     10970 MEMB     101      POPC     H9X      HAL2     0.900000E-01   1.00800           0
     10971 MEMB     101      POPC     H9Y      HAL2     0.900000E-01   1.00800           0
     10972 MEMB     101      POPC     C310     CTL2    -0.180000       12.0110           0
     10973 MEMB     101      POPC     H10X     HAL2     0.900000E-01   1.00800           0
     10974 MEMB     101      POPC     H10Y     HAL2     0.900000E-01   1.00800           0
     10975 MEMB     101      POPC     C311     CTL2    -0.180000       12.0110           0
     10976 MEMB     101      POPC     H11X     HAL2     0.900000E-01   1.00800           0
     10977 MEMB     101      POPC     H11Y     HAL2     0.900000E-01   1.00800           0
     10978 MEMB     101      POPC     C312     CTL2    -0.180000       12.0110           0
     10979 MEMB     101      POPC     H12X     HAL2     0.900000E-01   1.00800           0
     10980 MEMB     101      POPC     H12Y     HAL2     0.900000E-01   1.00800           0
     10981 MEMB     101      POPC     C313     CTL2    -0.180000       12.0110           0
     10982 MEMB     101      POPC     H13X     HAL2     0.900000E-01   1.00800           0
     10983 MEMB     101      POPC     H13Y     HAL2     0.900000E-01   1.00800           0
     10984 MEMB     101      POPC     C314     CTL2    -0.180000       12.0110           0
     10985 MEMB     101      POPC     H14X     HAL2     0.900000E-01   1.00800           0
     10986 MEMB     101      POPC     H14Y     HAL2     0.900000E-01   1.00800           0
     10987 MEMB     101      POPC     C315     CTL2    -0.180000       12.0110           0
     10988 MEMB     101      POPC     H15X     HAL2     0.900000E-01   1.00800           0
     10989 MEMB     101      POPC     H15Y     HAL2     0.900000E-01   1.00800           0
     10990 MEMB     101      POPC     C316     CTL3    -0.270000       12.0110           0
     10991 MEMB     101      POPC     H16X     HAL3     0.900000E-01   1.00800           0
     10992 MEMB     101      POPC     H16Y     HAL3     0.900000E-01   1.00800           0
     10993 MEMB     101      POPC     H16Z     HAL3     0.900000E-01   1.00800           0
     10994 MEMB     102      POPE     N        NH3L    -0.300000       14.0070           0
     10995 MEMB     102      POPE     HN1      HCL      0.330000       1.00800           0
     10996 MEMB     102      POPE     HN2      HCL      0.330000       1.00800           0
     10997 MEMB     102      POPE     HN3      HCL      0.330000       1.00800           0
     10998 MEMB     102      POPE     C12      CTL2     0.130000       12.0110           0
     10999 MEMB     102      POPE     H12A     HAL2     0.900000E-01   1.00800           0
     11000 MEMB     102      POPE     H12B     HAL2     0.900000E-01   1.00800           0
     11001 MEMB     102      POPE     C11      CTL2    -0.800000E-01   12.0110           0
     11002 MEMB     102      POPE     H11A     HAL2     0.900000E-01   1.00800           0
     11003 MEMB     102      POPE     H11B     HAL2     0.900000E-01   1.00800           0
     11004 MEMB     102      POPE     P        PL        1.50000       30.9740           0
     11005 MEMB     102      POPE     O13      O2L     -0.780000       15.9994           0
     11006 MEMB     102      POPE     O14      O2L     -0.780000       15.9994           0
     11007 MEMB     102      POPE     O11      OSLP    -0.570000       15.9994           0
     11008 MEMB     102      POPE     O12      OSLP    -0.570000       15.9994           0
     11009 MEMB     102      POPE     C1       CTL2    -0.800000E-01   12.0110           0
     11010 MEMB     102      POPE     HA       HAL2     0.900000E-01   1.00800           0
     11011 MEMB     102      POPE     HB       HAL2     0.900000E-01   1.00800           0
     11012 MEMB     102      POPE     C2       CTL1     0.170000       12.0110           0
     11013 MEMB     102      POPE     HS       HAL1     0.900000E-01   1.00800           0
     11014 MEMB     102      POPE     O21      OSL     -0.490000       15.9994           0
     11015 MEMB     102      POPE     C21      CL       0.900000       12.0110           0
     11016 MEMB     102      POPE     O22      OBL     -0.630000       15.9994           0
     11017 MEMB     102      POPE     C22      CTL2    -0.220000       12.0110           0
     11018 MEMB     102      POPE     H2R      HAL2     0.900000E-01   1.00800           0
     11019 MEMB     102      POPE     H2S      HAL2     0.900000E-01   1.00800           0
     11020 MEMB     102      POPE     C3       CTL2     0.800000E-01   12.0110           0
     11021 MEMB     102      POPE     HX       HAL2     0.900000E-01   1.00800           0
     11022 MEMB     102      POPE     HY       HAL2     0.900000E-01   1.00800           0
     11023 MEMB     102      POPE     O31      OSL     -0.490000       15.9994           0
     11024 MEMB     102      POPE     C31      CL       0.900000       12.0110           0
     11025 MEMB     102      POPE     O32      OBL     -0.630000       15.9994           0
     11026 MEMB     102      POPE     C32      CTL2    -0.220000       12.0110           0
     11027 MEMB     102      POPE     H2X      HAL2     0.900000E-01   1.00800           0
     11028 MEMB     102      POPE     H2Y      HAL2     0.900000E-01   1.00800           0
     11029 MEMB     102      POPE     C23      CTL2    -0.180000       12.0110           0
     11030 MEMB     102      POPE     H3R      HAL2     0.900000E-01   1.00800           0
     11031 MEMB     102      POPE     H3S      HAL2     0.900000E-01   1.00800           0
     11032 MEMB     102      POPE     C24      CTL2    -0.180000       12.0110           0
     11033 MEMB     102      POPE     H4R      HAL2     0.900000E-01   1.00800           0
     11034 MEMB     102      POPE     H4S      HAL2     0.900000E-01   1.00800           0
     11035 MEMB     102      POPE     C25      CTL2    -0.180000       12.0110           0
     11036 MEMB     102      POPE     H5R      HAL2     0.900000E-01   1.00800           0
     11037 MEMB     102      POPE     H5S      HAL2     0.900000E-01   1.00800           0
     11038 MEMB     102      POPE     C26      CTL2    -0.180000       12.0110           0
     11039 MEMB     102      POPE     H6R      HAL2     0.900000E-01   1.00800           0
     11040 MEMB     102      POPE     H6S      HAL2     0.900000E-01   1.00800           0
     11041 MEMB     102      POPE     C27      CTL2    -0.180000       12.0110           0
     11042 MEMB     102      POPE     H7R      HAL2     0.900000E-01   1.00800           0
     11043 MEMB     102      POPE     H7S      HAL2     0.900000E-01   1.00800           0
     11044 MEMB     102      POPE     C28      CTL2    -0.180000       12.0110           0
     11045 MEMB     102      POPE     H8R      HAL2     0.900000E-01   1.00800           0
     11046 MEMB     102      POPE     H8S      HAL2     0.900000E-01   1.00800           0
     11047 MEMB     102      POPE     C29      CEL1    -0.150000       12.0110           0
     11048 MEMB     102      POPE     H91      HEL1     0.150000       1.00800           0
     11049 MEMB     102      POPE     C210     CEL1    -0.150000       12.0110           0
     11050 MEMB     102      POPE     H101     HEL1     0.150000       1.00800           0
     11051 MEMB     102      POPE     C211     CTL2    -0.180000       12.0110           0
     11052 MEMB     102      POPE     H11R     HAL2     0.900000E-01   1.00800           0
     11053 MEMB     102      POPE     H11S     HAL2     0.900000E-01   1.00800           0
     11054 MEMB     102      POPE     C212     CTL2    -0.180000       12.0110           0
     11055 MEMB     102      POPE     H12R     HAL2     0.900000E-01   1.00800           0
     11056 MEMB     102      POPE     H12S     HAL2     0.900000E-01   1.00800           0
     11057 MEMB     102      POPE     C213     CTL2    -0.180000       12.0110           0
     11058 MEMB     102      POPE     H13R     HAL2     0.900000E-01   1.00800           0
     11059 MEMB     102      POPE     H13S     HAL2     0.900000E-01   1.00800           0
     11060 MEMB     102      POPE     C214     CTL2    -0.180000       12.0110           0
     11061 MEMB     102      POPE     H14R     HAL2     0.900000E-01   1.00800           0
     11062 MEMB     102      POPE     H14S     HAL2     0.900000E-01   1.00800           0
     11063 MEMB     102      POPE     C215     CTL2    -0.180000       12.0110           0
     11064 MEMB     102      POPE     H15R     HAL2     0.900000E-01   1.00800           0
     11065 MEMB     102      POPE     H15S     HAL2     0.900000E-01   1.00800           0
     11066 MEMB     102      POPE     C216     CTL2    -0.180000       12.0110           0
     11067 MEMB     102      POPE     H16R     HAL2     0.900000E-01   1.00800           0
     11068 MEMB     102      POPE     H16S     HAL2     0.900000E-01   1.00800           0
     11069 MEMB     102      POPE     C217     CTL2    -0.180000       12.0110           0
     11070 MEMB     102      POPE     H17R     HAL2     0.900000E-01   1.00800           0
     11071 MEMB     102      POPE     H17S     HAL2     0.900000E-01   1.00800           0
     11072 MEMB     102      POPE     C218     CTL3    -0.270000       12.0110           0
     11073 MEMB     102      POPE     H18R     HAL3     0.900000E-01   1.00800           0
     11074 MEMB     102      POPE     H18S     HAL3     0.900000E-01   1.00800           0
     11075 MEMB     102      POPE     H18T     HAL3     0.900000E-01   1.00800           0
     11076 MEMB     102      POPE     C33      CTL2    -0.180000       12.0110           0
     11077 MEMB     102      POPE     H3X      HAL2     0.900000E-01   1.00800           0
     11078 MEMB     102      POPE     H3Y      HAL2     0.900000E-01   1.00800           0
     11079 MEMB     102      POPE     C34      CTL2    -0.180000       12.0110           0
     11080 MEMB     102      POPE     H4X      HAL2     0.900000E-01   1.00800           0
     11081 MEMB     102      POPE     H4Y      HAL2     0.900000E-01   1.00800           0
     11082 MEMB     102      POPE     C35      CTL2    -0.180000       12.0110           0
     11083 MEMB     102      POPE     H5X      HAL2     0.900000E-01   1.00800           0
     11084 MEMB     102      POPE     H5Y      HAL2     0.900000E-01   1.00800           0
     11085 MEMB     102      POPE     C36      CTL2    -0.180000       12.0110           0
     11086 MEMB     102      POPE     H6X      HAL2     0.900000E-01   1.00800           0
     11087 MEMB     102      POPE     H6Y      HAL2     0.900000E-01   1.00800           0
     11088 MEMB     102      POPE     C37      CTL2    -0.180000       12.0110           0
     11089 MEMB     102      POPE     H7X      HAL2     0.900000E-01   1.00800           0
     11090 MEMB     102      POPE     H7Y      HAL2     0.900000E-01   1.00800           0
     11091 MEMB     102      POPE     C38      CTL2    -0.180000       12.0110           0
     11092 MEMB     102      POPE     H8X      HAL2     0.900000E-01   1.00800           0
     11093 MEMB     102      POPE     H8Y      HAL2     0.900000E-01   1.00800           0
     11094 MEMB     102      POPE     C39      CTL2    -0.180000       12.0110           0
     11095 MEMB     102      POPE     H9X      HAL2     0.900000E-01   1.00800           0
     11096 MEMB     102      POPE     H9Y      HAL2     0.900000E-01   1.00800           0
     11097 MEMB     102      POPE     C310     CTL2    -0.180000       12.0110           0
     11098 MEMB     102      POPE     H10X     HAL2     0.900000E-01   1.00800           0
     11099 MEMB     102      POPE     H10Y     HAL2     0.900000E-01   1.00800           0
     11100 MEMB     102      POPE     C311     CTL2    -0.180000       12.0110           0
     11101 MEMB     102      POPE     H11X     HAL2     0.900000E-01   1.00800           0
     11102 MEMB     102      POPE     H11Y     HAL2     0.900000E-01   1.00800           0
     11103 MEMB     102      POPE     C312     CTL2    -0.180000       12.0110           0
     11104 MEMB     102      POPE     H12X     HAL2     0.900000E-01   1.00800           0
     11105 MEMB     102      POPE     H12Y     HAL2     0.900000E-01   1.00800           0
     11106 MEMB     102      POPE     C313     CTL2    -0.180000       12.0110           0
     11107 MEMB     102      POPE     H13X     HAL2     0.900000E-01   1.00800           0
     11108 MEMB     102      POPE     H13Y     HAL2     0.900000E-01   1.00800           0
     11109 MEMB     102      POPE     C314     CTL2    -0.180000       12.0110           0
     11110 MEMB     102      POPE     H14X     HAL2     0.900000E-01   1.00800           0
     11111 MEMB     102      POPE     H14Y     HAL2     0.900000E-01   1.00800           0
     11112 MEMB     102      POPE     C315     CTL2    -0.180000       12.0110           0
     11113 MEMB     102      POPE     H15X     HAL2     0.900000E-01   1.00800           0
     11114 MEMB     102      POPE     H15Y     HAL2     0.900000E-01   1.00800           0
     11115 MEMB     102      POPE     C316     CTL3    -0.270000       12.0110           0
     11116 MEMB     102      POPE     H16X     HAL3     0.900000E-01   1.00800           0
     11117 MEMB     102      POPE     H16Y     HAL3     0.900000E-01   1.00800           0
     11118 MEMB     102      POPE     H16Z     HAL3     0.900000E-01   1.00800           0
     11119 MEMB     103      POPE     N        NH3L    -0.300000       14.0070           0
     11120 MEMB     103      POPE     HN1      HCL      0.330000       1.00800           0
     11121 MEMB     103      POPE     HN2      HCL      0.330000       1.00800           0
     11122 MEMB     103      POPE     HN3      HCL      0.330000       1.00800           0
     11123 MEMB     103      POPE     C12      CTL2     0.130000       12.0110           0
     11124 MEMB     103      POPE     H12A     HAL2     0.900000E-01   1.00800           0
     11125 MEMB     103      POPE     H12B     HAL2     0.900000E-01   1.00800           0
     11126 MEMB     103      POPE     C11      CTL2    -0.800000E-01   12.0110           0
     11127 MEMB     103      POPE     H11A     HAL2     0.900000E-01   1.00800           0
     11128 MEMB     103      POPE     H11B     HAL2     0.900000E-01   1.00800           0
     11129 MEMB     103      POPE     P        PL        1.50000       30.9740           0
     11130 MEMB     103      POPE     O13      O2L     -0.780000       15.9994           0
     11131 MEMB     103      POPE     O14      O2L     -0.780000       15.9994           0
     11132 MEMB     103      POPE     O11      OSLP    -0.570000       15.9994           0
     11133 MEMB     103      POPE     O12      OSLP    -0.570000       15.9994           0
     11134 MEMB     103      POPE     C1       CTL2    -0.800000E-01   12.0110           0
     11135 MEMB     103      POPE     HA       HAL2     0.900000E-01   1.00800           0
     11136 MEMB     103      POPE     HB       HAL2     0.900000E-01   1.00800           0
     11137 MEMB     103      POPE     C2       CTL1     0.170000       12.0110           0
     11138 MEMB     103      POPE     HS       HAL1     0.900000E-01   1.00800           0
     11139 MEMB     103      POPE     O21      OSL     -0.490000       15.9994           0
     11140 MEMB     103      POPE     C21      CL       0.900000       12.0110           0
     11141 MEMB     103      POPE     O22      OBL     -0.630000       15.9994           0
     11142 MEMB     103      POPE     C22      CTL2    -0.220000       12.0110           0
     11143 MEMB     103      POPE     H2R      HAL2     0.900000E-01   1.00800           0
     11144 MEMB     103      POPE     H2S      HAL2     0.900000E-01   1.00800           0
     11145 MEMB     103      POPE     C3       CTL2     0.800000E-01   12.0110           0
     11146 MEMB     103      POPE     HX       HAL2     0.900000E-01   1.00800           0
     11147 MEMB     103      POPE     HY       HAL2     0.900000E-01   1.00800           0
     11148 MEMB     103      POPE     O31      OSL     -0.490000       15.9994           0
     11149 MEMB     103      POPE     C31      CL       0.900000       12.0110           0
     11150 MEMB     103      POPE     O32      OBL     -0.630000       15.9994           0
     11151 MEMB     103      POPE     C32      CTL2    -0.220000       12.0110           0
     11152 MEMB     103      POPE     H2X      HAL2     0.900000E-01   1.00800           0
     11153 MEMB     103      POPE     H2Y      HAL2     0.900000E-01   1.00800           0
     11154 MEMB     103      POPE     C23      CTL2    -0.180000       12.0110           0
     11155 MEMB     103      POPE     H3R      HAL2     0.900000E-01   1.00800           0
     11156 MEMB     103      POPE     H3S      HAL2     0.900000E-01   1.00800           0
     11157 MEMB     103      POPE     C24      CTL2    -0.180000       12.0110           0
     11158 MEMB     103      POPE     H4R      HAL2     0.900000E-01   1.00800           0
     11159 MEMB     103      POPE     H4S      HAL2     0.900000E-01   1.00800           0
     11160 MEMB     103      POPE     C25      CTL2    -0.180000       12.0110           0
     11161 MEMB     103      POPE     H5R      HAL2     0.900000E-01   1.00800           0
     11162 MEMB     103      POPE     H5S      HAL2     0.900000E-01   1.00800           0
     11163 MEMB     103      POPE     C26      CTL2    -0.180000       12.0110           0
     11164 MEMB     103      POPE     H6R      HAL2     0.900000E-01   1.00800           0
     11165 MEMB     103      POPE     H6S      HAL2     0.900000E-01   1.00800           0
     11166 MEMB     103      POPE     C27      CTL2    -0.180000       12.0110           0
     11167 MEMB     103      POPE     H7R      HAL2     0.900000E-01   1.00800           0
     11168 MEMB     103      POPE     H7S      HAL2     0.900000E-01   1.00800           0
     11169 MEMB     103      POPE     C28      CTL2    -0.180000       12.0110           0
     11170 MEMB     103      POPE     H8R      HAL2     0.900000E-01   1.00800           0
     11171 MEMB     103      POPE     H8S      HAL2     0.900000E-01   1.00800           0
     11172 MEMB     103      POPE     C29      CEL1    -0.150000       12.0110           0
     11173 MEMB     103      POPE     H91      HEL1     0.150000       1.00800           0
     11174 MEMB     103      POPE     C210     CEL1    -0.150000       12.0110           0
     11175 MEMB     103      POPE     H101     HEL1     0.150000       1.00800           0
     11176 MEMB     103      POPE     C211     CTL2    -0.180000       12.0110           0
     11177 MEMB     103      POPE     H11R     HAL2     0.900000E-01   1.00800           0
     11178 MEMB     103      POPE     H11S     HAL2     0.900000E-01   1.00800           0
     11179 MEMB     103      POPE     C212     CTL2    -0.180000       12.0110           0
     11180 MEMB     103      POPE     H12R     HAL2     0.900000E-01   1.00800           0
     11181 MEMB     103      POPE     H12S     HAL2     0.900000E-01   1.00800           0
     11182 MEMB     103      POPE     C213     CTL2    -0.180000       12.0110           0
     11183 MEMB     103      POPE     H13R     HAL2     0.900000E-01   1.00800           0
     11184 MEMB     103      POPE     H13S     HAL2     0.900000E-01   1.00800           0
     11185 MEMB     103      POPE     C214     CTL2    -0.180000       12.0110           0
     11186 MEMB     103      POPE     H14R     HAL2     0.900000E-01   1.00800           0
     11187 MEMB     103      POPE     H14S     HAL2     0.900000E-01   1.00800           0
     11188 MEMB     103      POPE     C215     CTL2    -0.180000       12.0110           0
     11189 MEMB     103      POPE     H15R     HAL2     0.900000E-01   1.00800           0
     11190 MEMB     103      POPE     H15S     HAL2     0.900000E-01   1.00800           0
     11191 MEMB     103      POPE     C216     CTL2    -0.180000       12.0110           0
     11192 MEMB     103      POPE     H16R     HAL2     0.900000E-01   1.00800           0
     11193 MEMB     103      POPE     H16S     HAL2     0.900000E-01   1.00800           0
     11194 MEMB     103      POPE     C217     CTL2    -0.180000       12.0110           0
     11195 MEMB     103      POPE     H17R     HAL2     0.900000E-01   1.00800           0
     11196 MEMB     103      POPE     H17S     HAL2     0.900000E-01   1.00800           0
     11197 MEMB     103      POPE     C218     CTL3    -0.270000       12.0110           0
     11198 MEMB     103      POPE     H18R     HAL3     0.900000E-01   1.00800           0
     11199 MEMB     103      POPE     H18S     HAL3     0.900000E-01   1.00800           0
     11200 MEMB     103      POPE     H18T     HAL3     0.900000E-01   1.00800           0
     11201 MEMB     103      POPE     C33      CTL2    -0.180000       12.0110           0
     11202 MEMB     103      POPE     H3X      HAL2     0.900000E-01   1.00800           0
     11203 MEMB     103      POPE     H3Y      HAL2     0.900000E-01   1.00800           0
     11204 MEMB     103      POPE     C34      CTL2    -0.180000       12.0110           0
     11205 MEMB     103      POPE     H4X      HAL2     0.900000E-01   1.00800           0
     11206 MEMB     103      POPE     H4Y      HAL2     0.900000E-01   1.00800           0
     11207 MEMB     103      POPE     C35      CTL2    -0.180000       12.0110           0
     11208 MEMB     103      POPE     H5X      HAL2     0.900000E-01   1.00800           0
     11209 MEMB     103      POPE     H5Y      HAL2     0.900000E-01   1.00800           0
     11210 MEMB     103      POPE     C36      CTL2    -0.180000       12.0110           0
     11211 MEMB     103      POPE     H6X      HAL2     0.900000E-01   1.00800           0
     11212 MEMB     103      POPE     H6Y      HAL2     0.900000E-01   1.00800           0
     11213 MEMB     103      POPE     C37      CTL2    -0.180000       12.0110           0
     11214 MEMB     103      POPE     H7X      HAL2     0.900000E-01   1.00800           0
     11215 MEMB     103      POPE     H7Y      HAL2     0.900000E-01   1.00800           0
     11216 MEMB     103      POPE     C38      CTL2    -0.180000       12.0110           0
     11217 MEMB     103      POPE     H8X      HAL2     0.900000E-01   1.00800           0
     11218 MEMB     103      POPE     H8Y      HAL2     0.900000E-01   1.00800           0
     11219 MEMB     103      POPE     C39      CTL2    -0.180000       12.0110           0
     11220 MEMB     103      POPE     H9X      HAL2     0.900000E-01   1.00800           0
     11221 MEMB     103      POPE     H9Y      HAL2     0.900000E-01   1.00800           0
     11222 MEMB     103      POPE     C310     CTL2    -0.180000       12.0110           0
     11223 MEMB     103      POPE     H10X     HAL2     0.900000E-01   1.00800           0
     11224 MEMB     103      POPE     H10Y     HAL2     0.900000E-01   1.00800           0
     11225 MEMB     103      POPE     C311     CTL2    -0.180000       12.0110           0
     11226 MEMB     103      POPE     H11X     HAL2     0.900000E-01   1.00800           0
     11227 MEMB     103      POPE     H11Y     HAL2     0.900000E-01   1.00800           0
     11228 MEMB     103      POPE     C312     CTL2    -0.180000       12.0110           0
     11229 MEMB     103      POPE     H12X     HAL2     0.900000E-01   1.00800           0
     11230 MEMB     103      POPE     H12Y     HAL2     0.900000E-01   1.00800           0
     11231 MEMB     103      POPE     C313     CTL2    -0.180000       12.0110           0
     11232 MEMB     103      POPE     H13X     HAL2     0.900000E-01   1.00800           0
     11233 MEMB     103      POPE     H13Y     HAL2     0.900000E-01   1.00800           0
     11234 MEMB     103      POPE     C314     CTL2    -0.180000       12.0110           0
     11235 MEMB     103      POPE     H14X     HAL2     0.900000E-01   1.00800           0
     11236 MEMB     103      POPE     H14Y     HAL2     0.900000E-01   1.00800           0
     11237 MEMB     103      POPE     C315     CTL2    -0.180000       12.0110           0
     11238 MEMB     103      POPE     H15X     HAL2     0.900000E-01   1.00800           0
     11239 MEMB     103      POPE     H15Y     HAL2     0.900000E-01   1.00800           0
     11240 MEMB     103      POPE     C316     CTL3    -0.270000       12.0110           0
     11241 MEMB     103      POPE     H16X     HAL3     0.900000E-01   1.00800           0
     11242 MEMB     103      POPE     H16Y     HAL3     0.900000E-01   1.00800           0
     11243 MEMB     103      POPE     H16Z     HAL3     0.900000E-01   1.00800           0
     11244 MEMB     104      POPC     N        NTL     -0.600000       14.0070           0
     11245 MEMB     104      POPC     C12      CTL2    -0.100000       12.0110           0
     11246 MEMB     104      POPC     H12A     HL       0.250000       1.00800           0
     11247 MEMB     104      POPC     H12B     HL       0.250000       1.00800           0
     11248 MEMB     104      POPC     C13      CTL5    -0.350000       12.0110           0
     11249 MEMB     104      POPC     H13A     HL       0.250000       1.00800           0
     11250 MEMB     104      POPC     H13B     HL       0.250000       1.00800           0
     11251 MEMB     104      POPC     H13C     HL       0.250000       1.00800           0
     11252 MEMB     104      POPC     C14      CTL5    -0.350000       12.0110           0
     11253 MEMB     104      POPC     H14A     HL       0.250000       1.00800           0
     11254 MEMB     104      POPC     H14B     HL       0.250000       1.00800           0
     11255 MEMB     104      POPC     H14C     HL       0.250000       1.00800           0
     11256 MEMB     104      POPC     C15      CTL5    -0.350000       12.0110           0
     11257 MEMB     104      POPC     H15A     HL       0.250000       1.00800           0
     11258 MEMB     104      POPC     H15B     HL       0.250000       1.00800           0
     11259 MEMB     104      POPC     H15C     HL       0.250000       1.00800           0
     11260 MEMB     104      POPC     C11      CTL2    -0.800000E-01   12.0110           0
     11261 MEMB     104      POPC     H11A     HAL2     0.900000E-01   1.00800           0
     11262 MEMB     104      POPC     H11B     HAL2     0.900000E-01   1.00800           0
     11263 MEMB     104      POPC     P        PL        1.50000       30.9740           0
     11264 MEMB     104      POPC     O13      O2L     -0.780000       15.9994           0
     11265 MEMB     104      POPC     O14      O2L     -0.780000       15.9994           0
     11266 MEMB     104      POPC     O12      OSLP    -0.570000       15.9994           0
     11267 MEMB     104      POPC     O11      OSLP    -0.570000       15.9994           0
     11268 MEMB     104      POPC     C1       CTL2    -0.800000E-01   12.0110           0
     11269 MEMB     104      POPC     HA       HAL2     0.900000E-01   1.00800           0
     11270 MEMB     104      POPC     HB       HAL2     0.900000E-01   1.00800           0
     11271 MEMB     104      POPC     C2       CTL1     0.170000       12.0110           0
     11272 MEMB     104      POPC     HS       HAL1     0.900000E-01   1.00800           0
     11273 MEMB     104      POPC     O21      OSL     -0.490000       15.9994           0
     11274 MEMB     104      POPC     C21      CL       0.900000       12.0110           0
     11275 MEMB     104      POPC     O22      OBL     -0.630000       15.9994           0
     11276 MEMB     104      POPC     C22      CTL2    -0.220000       12.0110           0
     11277 MEMB     104      POPC     H2R      HAL2     0.900000E-01   1.00800           0
     11278 MEMB     104      POPC     H2S      HAL2     0.900000E-01   1.00800           0
     11279 MEMB     104      POPC     C3       CTL2     0.800000E-01   12.0110           0
     11280 MEMB     104      POPC     HX       HAL2     0.900000E-01   1.00800           0
     11281 MEMB     104      POPC     HY       HAL2     0.900000E-01   1.00800           0
     11282 MEMB     104      POPC     O31      OSL     -0.490000       15.9994           0
     11283 MEMB     104      POPC     C31      CL       0.900000       12.0110           0
     11284 MEMB     104      POPC     O32      OBL     -0.630000       15.9994           0
     11285 MEMB     104      POPC     C32      CTL2    -0.220000       12.0110           0
     11286 MEMB     104      POPC     H2X      HAL2     0.900000E-01   1.00800           0
     11287 MEMB     104      POPC     H2Y      HAL2     0.900000E-01   1.00800           0
     11288 MEMB     104      POPC     C23      CTL2    -0.180000       12.0110           0
     11289 MEMB     104      POPC     H3R      HAL2     0.900000E-01   1.00800           0
     11290 MEMB     104      POPC     H3S      HAL2     0.900000E-01   1.00800           0
     11291 MEMB     104      POPC     C24      CTL2    -0.180000       12.0110           0
     11292 MEMB     104      POPC     H4R      HAL2     0.900000E-01   1.00800           0
     11293 MEMB     104      POPC     H4S      HAL2     0.900000E-01   1.00800           0
     11294 MEMB     104      POPC     C25      CTL2    -0.180000       12.0110           0
     11295 MEMB     104      POPC     H5R      HAL2     0.900000E-01   1.00800           0
     11296 MEMB     104      POPC     H5S      HAL2     0.900000E-01   1.00800           0
     11297 MEMB     104      POPC     C26      CTL2    -0.180000       12.0110           0
     11298 MEMB     104      POPC     H6R      HAL2     0.900000E-01   1.00800           0
     11299 MEMB     104      POPC     H6S      HAL2     0.900000E-01   1.00800           0
     11300 MEMB     104      POPC     C27      CTL2    -0.180000       12.0110           0
     11301 MEMB     104      POPC     H7R      HAL2     0.900000E-01   1.00800           0
     11302 MEMB     104      POPC     H7S      HAL2     0.900000E-01   1.00800           0
     11303 MEMB     104      POPC     C28      CTL2    -0.180000       12.0110           0
     11304 MEMB     104      POPC     H8R      HAL2     0.900000E-01   1.00800           0
     11305 MEMB     104      POPC     H8S      HAL2     0.900000E-01   1.00800           0
     11306 MEMB     104      POPC     C29      CEL1    -0.150000       12.0110           0
     11307 MEMB     104      POPC     H91      HEL1     0.150000       1.00800           0
     11308 MEMB     104      POPC     C210     CEL1    -0.150000       12.0110           0
     11309 MEMB     104      POPC     H101     HEL1     0.150000       1.00800           0
     11310 MEMB     104      POPC     C211     CTL2    -0.180000       12.0110           0
     11311 MEMB     104      POPC     H11R     HAL2     0.900000E-01   1.00800           0
     11312 MEMB     104      POPC     H11S     HAL2     0.900000E-01   1.00800           0
     11313 MEMB     104      POPC     C212     CTL2    -0.180000       12.0110           0
     11314 MEMB     104      POPC     H12R     HAL2     0.900000E-01   1.00800           0
     11315 MEMB     104      POPC     H12S     HAL2     0.900000E-01   1.00800           0
     11316 MEMB     104      POPC     C213     CTL2    -0.180000       12.0110           0
     11317 MEMB     104      POPC     H13R     HAL2     0.900000E-01   1.00800           0
     11318 MEMB     104      POPC     H13S     HAL2     0.900000E-01   1.00800           0
     11319 MEMB     104      POPC     C214     CTL2    -0.180000       12.0110           0
     11320 MEMB     104      POPC     H14R     HAL2     0.900000E-01   1.00800           0
     11321 MEMB     104      POPC     H14S     HAL2     0.900000E-01   1.00800           0
     11322 MEMB     104      POPC     C215     CTL2    -0.180000       12.0110           0
     11323 MEMB     104      POPC     H15R     HAL2     0.900000E-01   1.00800           0
     11324 MEMB     104      POPC     H15S     HAL2     0.900000E-01   1.00800           0
     11325 MEMB     104      POPC     C216     CTL2    -0.180000       12.0110           0
     11326 MEMB     104      POPC     H16R     HAL2     0.900000E-01   1.00800           0
     11327 MEMB     104      POPC     H16S     HAL2     0.900000E-01   1.00800           0
     11328 MEMB     104      POPC     C217     CTL2    -0.180000       12.0110           0
     11329 MEMB     104      POPC     H17R     HAL2     0.900000E-01   1.00800           0
     11330 MEMB     104      POPC     H17S     HAL2     0.900000E-01   1.00800           0
     11331 MEMB     104      POPC     C218     CTL3    -0.270000       12.0110           0
     11332 MEMB     104      POPC     H18R     HAL3     0.900000E-01   1.00800           0
     11333 MEMB     104      POPC     H18S     HAL3     0.900000E-01   1.00800           0
     11334 MEMB     104      POPC     H18T     HAL3     0.900000E-01   1.00800           0
     11335 MEMB     104      POPC     C33      CTL2    -0.180000       12.0110           0
     11336 MEMB     104      POPC     H3X      HAL2     0.900000E-01   1.00800           0
     11337 MEMB     104      POPC     H3Y      HAL2     0.900000E-01   1.00800           0
     11338 MEMB     104      POPC     C34      CTL2    -0.180000       12.0110           0
     11339 MEMB     104      POPC     H4X      HAL2     0.900000E-01   1.00800           0
     11340 MEMB     104      POPC     H4Y      HAL2     0.900000E-01   1.00800           0
     11341 MEMB     104      POPC     C35      CTL2    -0.180000       12.0110           0
     11342 MEMB     104      POPC     H5X      HAL2     0.900000E-01   1.00800           0
     11343 MEMB     104      POPC     H5Y      HAL2     0.900000E-01   1.00800           0
     11344 MEMB     104      POPC     C36      CTL2    -0.180000       12.0110           0
     11345 MEMB     104      POPC     H6X      HAL2     0.900000E-01   1.00800           0
     11346 MEMB     104      POPC     H6Y      HAL2     0.900000E-01   1.00800           0
     11347 MEMB     104      POPC     C37      CTL2    -0.180000       12.0110           0
     11348 MEMB     104      POPC     H7X      HAL2     0.900000E-01   1.00800           0
     11349 MEMB     104      POPC     H7Y      HAL2     0.900000E-01   1.00800           0
     11350 MEMB     104      POPC     C38      CTL2    -0.180000       12.0110           0
     11351 MEMB     104      POPC     H8X      HAL2     0.900000E-01   1.00800           0
     11352 MEMB     104      POPC     H8Y      HAL2     0.900000E-01   1.00800           0
     11353 MEMB     104      POPC     C39      CTL2    -0.180000       12.0110           0
     11354 MEMB     104      POPC     H9X      HAL2     0.900000E-01   1.00800           0
     11355 MEMB     104      POPC     H9Y      HAL2     0.900000E-01   1.00800           0
     11356 MEMB     104      POPC     C310     CTL2    -0.180000       12.0110           0
     11357 MEMB     104      POPC     H10X     HAL2     0.900000E-01   1.00800           0
     11358 MEMB     104      POPC     H10Y     HAL2     0.900000E-01   1.00800           0
     11359 MEMB     104      POPC     C311     CTL2    -0.180000       12.0110           0
     11360 MEMB     104      POPC     H11X     HAL2     0.900000E-01   1.00800           0
     11361 MEMB     104      POPC     H11Y     HAL2     0.900000E-01   1.00800           0
     11362 MEMB     104      POPC     C312     CTL2    -0.180000       12.0110           0
     11363 MEMB     104      POPC     H12X     HAL2     0.900000E-01   1.00800           0
     11364 MEMB     104      POPC     H12Y     HAL2     0.900000E-01   1.00800           0
     11365 MEMB     104      POPC     C313     CTL2    -0.180000       12.0110           0
     11366 MEMB     104      POPC     H13X     HAL2     0.900000E-01   1.00800           0
     11367 MEMB     104      POPC     H13Y     HAL2     0.900000E-01   1.00800           0
     11368 MEMB     104      POPC     C314     CTL2    -0.180000       12.0110           0
     11369 MEMB     104      POPC     H14X     HAL2     0.900000E-01   1.00800           0
     11370 MEMB     104      POPC     H14Y     HAL2     0.900000E-01   1.00800           0
     11371 MEMB     104      POPC     C315     CTL2    -0.180000       12.0110           0
     11372 MEMB     104      POPC     H15X     HAL2     0.900000E-01   1.00800           0
     11373 MEMB     104      POPC     H15Y     HAL2     0.900000E-01   1.00800           0
     11374 MEMB     104      POPC     C316     CTL3    -0.270000       12.0110           0
     11375 MEMB     104      POPC     H16X     HAL3     0.900000E-01   1.00800           0
     11376 MEMB     104      POPC     H16Y     HAL3     0.900000E-01   1.00800           0
     11377 MEMB     104      POPC     H16Z     HAL3     0.900000E-01   1.00800           0
     11378 MEMB     105      POPC     N        NTL     -0.600000       14.0070           0
     11379 MEMB     105      POPC     C12      CTL2    -0.100000       12.0110           0
     11380 MEMB     105      POPC     H12A     HL       0.250000       1.00800           0
     11381 MEMB     105      POPC     H12B     HL       0.250000       1.00800           0
     11382 MEMB     105      POPC     C13      CTL5    -0.350000       12.0110           0
     11383 MEMB     105      POPC     H13A     HL       0.250000       1.00800           0
     11384 MEMB     105      POPC     H13B     HL       0.250000       1.00800           0
     11385 MEMB     105      POPC     H13C     HL       0.250000       1.00800           0
     11386 MEMB     105      POPC     C14      CTL5    -0.350000       12.0110           0
     11387 MEMB     105      POPC     H14A     HL       0.250000       1.00800           0
     11388 MEMB     105      POPC     H14B     HL       0.250000       1.00800           0
     11389 MEMB     105      POPC     H14C     HL       0.250000       1.00800           0
     11390 MEMB     105      POPC     C15      CTL5    -0.350000       12.0110           0
     11391 MEMB     105      POPC     H15A     HL       0.250000       1.00800           0
     11392 MEMB     105      POPC     H15B     HL       0.250000       1.00800           0
     11393 MEMB     105      POPC     H15C     HL       0.250000       1.00800           0
     11394 MEMB     105      POPC     C11      CTL2    -0.800000E-01   12.0110           0
     11395 MEMB     105      POPC     H11A     HAL2     0.900000E-01   1.00800           0
     11396 MEMB     105      POPC     H11B     HAL2     0.900000E-01   1.00800           0
     11397 MEMB     105      POPC     P        PL        1.50000       30.9740           0
     11398 MEMB     105      POPC     O13      O2L     -0.780000       15.9994           0
     11399 MEMB     105      POPC     O14      O2L     -0.780000       15.9994           0
     11400 MEMB     105      POPC     O12      OSLP    -0.570000       15.9994           0
     11401 MEMB     105      POPC     O11      OSLP    -0.570000       15.9994           0
     11402 MEMB     105      POPC     C1       CTL2    -0.800000E-01   12.0110           0
     11403 MEMB     105      POPC     HA       HAL2     0.900000E-01   1.00800           0
     11404 MEMB     105      POPC     HB       HAL2     0.900000E-01   1.00800           0
     11405 MEMB     105      POPC     C2       CTL1     0.170000       12.0110           0
     11406 MEMB     105      POPC     HS       HAL1     0.900000E-01   1.00800           0
     11407 MEMB     105      POPC     O21      OSL     -0.490000       15.9994           0
     11408 MEMB     105      POPC     C21      CL       0.900000       12.0110           0
     11409 MEMB     105      POPC     O22      OBL     -0.630000       15.9994           0
     11410 MEMB     105      POPC     C22      CTL2    -0.220000       12.0110           0
     11411 MEMB     105      POPC     H2R      HAL2     0.900000E-01   1.00800           0
     11412 MEMB     105      POPC     H2S      HAL2     0.900000E-01   1.00800           0
     11413 MEMB     105      POPC     C3       CTL2     0.800000E-01   12.0110           0
     11414 MEMB     105      POPC     HX       HAL2     0.900000E-01   1.00800           0
     11415 MEMB     105      POPC     HY       HAL2     0.900000E-01   1.00800           0
     11416 MEMB     105      POPC     O31      OSL     -0.490000       15.9994           0
     11417 MEMB     105      POPC     C31      CL       0.900000       12.0110           0
     11418 MEMB     105      POPC     O32      OBL     -0.630000       15.9994           0
     11419 MEMB     105      POPC     C32      CTL2    -0.220000       12.0110           0
     11420 MEMB     105      POPC     H2X      HAL2     0.900000E-01   1.00800           0
     11421 MEMB     105      POPC     H2Y      HAL2     0.900000E-01   1.00800           0
     11422 MEMB     105      POPC     C23      CTL2    -0.180000       12.0110           0
     11423 MEMB     105      POPC     H3R      HAL2     0.900000E-01   1.00800           0
     11424 MEMB     105      POPC     H3S      HAL2     0.900000E-01   1.00800           0
     11425 MEMB     105      POPC     C24      CTL2    -0.180000       12.0110           0
     11426 MEMB     105      POPC     H4R      HAL2     0.900000E-01   1.00800           0
     11427 MEMB     105      POPC     H4S      HAL2     0.900000E-01   1.00800           0
     11428 MEMB     105      POPC     C25      CTL2    -0.180000       12.0110           0
     11429 MEMB     105      POPC     H5R      HAL2     0.900000E-01   1.00800           0
     11430 MEMB     105      POPC     H5S      HAL2     0.900000E-01   1.00800           0
     11431 MEMB     105      POPC     C26      CTL2    -0.180000       12.0110           0
     11432 MEMB     105      POPC     H6R      HAL2     0.900000E-01   1.00800           0
     11433 MEMB     105      POPC     H6S      HAL2     0.900000E-01   1.00800           0
     11434 MEMB     105      POPC     C27      CTL2    -0.180000       12.0110           0
     11435 MEMB     105      POPC     H7R      HAL2     0.900000E-01   1.00800           0
     11436 MEMB     105      POPC     H7S      HAL2     0.900000E-01   1.00800           0
     11437 MEMB     105      POPC     C28      CTL2    -0.180000       12.0110           0
     11438 MEMB     105      POPC     H8R      HAL2     0.900000E-01   1.00800           0
     11439 MEMB     105      POPC     H8S      HAL2     0.900000E-01   1.00800           0
     11440 MEMB     105      POPC     C29      CEL1    -0.150000       12.0110           0
     11441 MEMB     105      POPC     H91      HEL1     0.150000       1.00800           0
     11442 MEMB     105      POPC     C210     CEL1    -0.150000       12.0110           0
     11443 MEMB     105      POPC     H101     HEL1     0.150000       1.00800           0
     11444 MEMB     105      POPC     C211     CTL2    -0.180000       12.0110           0
     11445 MEMB     105      POPC     H11R     HAL2     0.900000E-01   1.00800           0
     11446 MEMB     105      POPC     H11S     HAL2     0.900000E-01   1.00800           0
     11447 MEMB     105      POPC     C212     CTL2    -0.180000       12.0110           0
     11448 MEMB     105      POPC     H12R     HAL2     0.900000E-01   1.00800           0
     11449 MEMB     105      POPC     H12S     HAL2     0.900000E-01   1.00800           0
     11450 MEMB     105      POPC     C213     CTL2    -0.180000       12.0110           0
     11451 MEMB     105      POPC     H13R     HAL2     0.900000E-01   1.00800           0
     11452 MEMB     105      POPC     H13S     HAL2     0.900000E-01   1.00800           0
     11453 MEMB     105      POPC     C214     CTL2    -0.180000       12.0110           0
     11454 MEMB     105      POPC     H14R     HAL2     0.900000E-01   1.00800           0
     11455 MEMB     105      POPC     H14S     HAL2     0.900000E-01   1.00800           0
     11456 MEMB     105      POPC     C215     CTL2    -0.180000       12.0110           0
     11457 MEMB     105      POPC     H15R     HAL2     0.900000E-01   1.00800           0
     11458 MEMB     105      POPC     H15S     HAL2     0.900000E-01   1.00800           0
     11459 MEMB     105      POPC     C216     CTL2    -0.180000       12.0110           0
     11460 MEMB     105      POPC     H16R     HAL2     0.900000E-01   1.00800           0
     11461 MEMB     105      POPC     H16S     HAL2     0.900000E-01   1.00800           0
     11462 MEMB     105      POPC     C217     CTL2    -0.180000       12.0110           0
     11463 MEMB     105      POPC     H17R     HAL2     0.900000E-01   1.00800           0
     11464 MEMB     105      POPC     H17S     HAL2     0.900000E-01   1.00800           0
     11465 MEMB     105      POPC     C218     CTL3    -0.270000       12.0110           0
     11466 MEMB     105      POPC     H18R     HAL3     0.900000E-01   1.00800           0
     11467 MEMB     105      POPC     H18S     HAL3     0.900000E-01   1.00800           0
     11468 MEMB     105      POPC     H18T     HAL3     0.900000E-01   1.00800           0
     11469 MEMB     105      POPC     C33      CTL2    -0.180000       12.0110           0
     11470 MEMB     105      POPC     H3X      HAL2     0.900000E-01   1.00800           0
     11471 MEMB     105      POPC     H3Y      HAL2     0.900000E-01   1.00800           0
     11472 MEMB     105      POPC     C34      CTL2    -0.180000       12.0110           0
     11473 MEMB     105      POPC     H4X      HAL2     0.900000E-01   1.00800           0
     11474 MEMB     105      POPC     H4Y      HAL2     0.900000E-01   1.00800           0
     11475 MEMB     105      POPC     C35      CTL2    -0.180000       12.0110           0
     11476 MEMB     105      POPC     H5X      HAL2     0.900000E-01   1.00800           0
     11477 MEMB     105      POPC     H5Y      HAL2     0.900000E-01   1.00800           0
     11478 MEMB     105      POPC     C36      CTL2    -0.180000       12.0110           0
     11479 MEMB     105      POPC     H6X      HAL2     0.900000E-01   1.00800           0
     11480 MEMB     105      POPC     H6Y      HAL2     0.900000E-01   1.00800           0
     11481 MEMB     105      POPC     C37      CTL2    -0.180000       12.0110           0
     11482 MEMB     105      POPC     H7X      HAL2     0.900000E-01   1.00800           0
     11483 MEMB     105      POPC     H7Y      HAL2     0.900000E-01   1.00800           0
     11484 MEMB     105      POPC     C38      CTL2    -0.180000       12.0110           0
     11485 MEMB     105      POPC     H8X      HAL2     0.900000E-01   1.00800           0
     11486 MEMB     105      POPC     H8Y      HAL2     0.900000E-01   1.00800           0
     11487 MEMB     105      POPC     C39      CTL2    -0.180000       12.0110           0
     11488 MEMB     105      POPC     H9X      HAL2     0.900000E-01   1.00800           0
     11489 MEMB     105      POPC     H9Y      HAL2     0.900000E-01   1.00800           0
     11490 MEMB     105      POPC     C310     CTL2    -0.180000       12.0110           0
     11491 MEMB     105      POPC     H10X     HAL2     0.900000E-01   1.00800           0
     11492 MEMB     105      POPC     H10Y     HAL2     0.900000E-01   1.00800           0
     11493 MEMB     105      POPC     C311     CTL2    -0.180000       12.0110           0
     11494 MEMB     105      POPC     H11X     HAL2     0.900000E-01   1.00800           0
     11495 MEMB     105      POPC     H11Y     HAL2     0.900000E-01   1.00800           0
     11496 MEMB     105      POPC     C312     CTL2    -0.180000       12.0110           0
     11497 MEMB     105      POPC     H12X     HAL2     0.900000E-01   1.00800           0
     11498 MEMB     105      POPC     H12Y     HAL2     0.900000E-01   1.00800           0
     11499 MEMB     105      POPC     C313     CTL2    -0.180000       12.0110           0
     11500 MEMB     105      POPC     H13X     HAL2     0.900000E-01   1.00800           0
     11501 MEMB     105      POPC     H13Y     HAL2     0.900000E-01   1.00800           0
     11502 MEMB     105      POPC     C314     CTL2    -0.180000       12.0110           0
     11503 MEMB     105      POPC     H14X     HAL2     0.900000E-01   1.00800           0
     11504 MEMB     105      POPC     H14Y     HAL2     0.900000E-01   1.00800           0
     11505 MEMB     105      POPC     C315     CTL2    -0.180000       12.0110           0
     11506 MEMB     105      POPC     H15X     HAL2     0.900000E-01   1.00800           0
     11507 MEMB     105      POPC     H15Y     HAL2     0.900000E-01   1.00800           0
     11508 MEMB     105      POPC     C316     CTL3    -0.270000       12.0110           0
     11509 MEMB     105      POPC     H16X     HAL3     0.900000E-01   1.00800           0
     11510 MEMB     105      POPC     H16Y     HAL3     0.900000E-01   1.00800           0
     11511 MEMB     105      POPC     H16Z     HAL3     0.900000E-01   1.00800           0
     11512 MEMB     106      POPC     N        NTL     -0.600000       14.0070           0
     11513 MEMB     106      POPC     C12      CTL2    -0.100000       12.0110           0
     11514 MEMB     106      POPC     H12A     HL       0.250000       1.00800           0
     11515 MEMB     106      POPC     H12B     HL       0.250000       1.00800           0
     11516 MEMB     106      POPC     C13      CTL5    -0.350000       12.0110           0
     11517 MEMB     106      POPC     H13A     HL       0.250000       1.00800           0
     11518 MEMB     106      POPC     H13B     HL       0.250000       1.00800           0
     11519 MEMB     106      POPC     H13C     HL       0.250000       1.00800           0
     11520 MEMB     106      POPC     C14      CTL5    -0.350000       12.0110           0
     11521 MEMB     106      POPC     H14A     HL       0.250000       1.00800           0
     11522 MEMB     106      POPC     H14B     HL       0.250000       1.00800           0
     11523 MEMB     106      POPC     H14C     HL       0.250000       1.00800           0
     11524 MEMB     106      POPC     C15      CTL5    -0.350000       12.0110           0
     11525 MEMB     106      POPC     H15A     HL       0.250000       1.00800           0
     11526 MEMB     106      POPC     H15B     HL       0.250000       1.00800           0
     11527 MEMB     106      POPC     H15C     HL       0.250000       1.00800           0
     11528 MEMB     106      POPC     C11      CTL2    -0.800000E-01   12.0110           0
     11529 MEMB     106      POPC     H11A     HAL2     0.900000E-01   1.00800           0
     11530 MEMB     106      POPC     H11B     HAL2     0.900000E-01   1.00800           0
     11531 MEMB     106      POPC     P        PL        1.50000       30.9740           0
     11532 MEMB     106      POPC     O13      O2L     -0.780000       15.9994           0
     11533 MEMB     106      POPC     O14      O2L     -0.780000       15.9994           0
     11534 MEMB     106      POPC     O12      OSLP    -0.570000       15.9994           0
     11535 MEMB     106      POPC     O11      OSLP    -0.570000       15.9994           0
     11536 MEMB     106      POPC     C1       CTL2    -0.800000E-01   12.0110           0
     11537 MEMB     106      POPC     HA       HAL2     0.900000E-01   1.00800           0
     11538 MEMB     106      POPC     HB       HAL2     0.900000E-01   1.00800           0
     11539 MEMB     106      POPC     C2       CTL1     0.170000       12.0110           0
     11540 MEMB     106      POPC     HS       HAL1     0.900000E-01   1.00800           0
     11541 MEMB     106      POPC     O21      OSL     -0.490000       15.9994           0
     11542 MEMB     106      POPC     C21      CL       0.900000       12.0110           0
     11543 MEMB     106      POPC     O22      OBL     -0.630000       15.9994           0
     11544 MEMB     106      POPC     C22      CTL2    -0.220000       12.0110           0
     11545 MEMB     106      POPC     H2R      HAL2     0.900000E-01   1.00800           0
     11546 MEMB     106      POPC     H2S      HAL2     0.900000E-01   1.00800           0
     11547 MEMB     106      POPC     C3       CTL2     0.800000E-01   12.0110           0
     11548 MEMB     106      POPC     HX       HAL2     0.900000E-01   1.00800           0
     11549 MEMB     106      POPC     HY       HAL2     0.900000E-01   1.00800           0
     11550 MEMB     106      POPC     O31      OSL     -0.490000       15.9994           0
     11551 MEMB     106      POPC     C31      CL       0.900000       12.0110           0
     11552 MEMB     106      POPC     O32      OBL     -0.630000       15.9994           0
     11553 MEMB     106      POPC     C32      CTL2    -0.220000       12.0110           0
     11554 MEMB     106      POPC     H2X      HAL2     0.900000E-01   1.00800           0
     11555 MEMB     106      POPC     H2Y      HAL2     0.900000E-01   1.00800           0
     11556 MEMB     106      POPC     C23      CTL2    -0.180000       12.0110           0
     11557 MEMB     106      POPC     H3R      HAL2     0.900000E-01   1.00800           0
     11558 MEMB     106      POPC     H3S      HAL2     0.900000E-01   1.00800           0
     11559 MEMB     106      POPC     C24      CTL2    -0.180000       12.0110           0
     11560 MEMB     106      POPC     H4R      HAL2     0.900000E-01   1.00800           0
     11561 MEMB     106      POPC     H4S      HAL2     0.900000E-01   1.00800           0
     11562 MEMB     106      POPC     C25      CTL2    -0.180000       12.0110           0
     11563 MEMB     106      POPC     H5R      HAL2     0.900000E-01   1.00800           0
     11564 MEMB     106      POPC     H5S      HAL2     0.900000E-01   1.00800           0
     11565 MEMB     106      POPC     C26      CTL2    -0.180000       12.0110           0
     11566 MEMB     106      POPC     H6R      HAL2     0.900000E-01   1.00800           0
     11567 MEMB     106      POPC     H6S      HAL2     0.900000E-01   1.00800           0
     11568 MEMB     106      POPC     C27      CTL2    -0.180000       12.0110           0
     11569 MEMB     106      POPC     H7R      HAL2     0.900000E-01   1.00800           0
     11570 MEMB     106      POPC     H7S      HAL2     0.900000E-01   1.00800           0
     11571 MEMB     106      POPC     C28      CTL2    -0.180000       12.0110           0
     11572 MEMB     106      POPC     H8R      HAL2     0.900000E-01   1.00800           0
     11573 MEMB     106      POPC     H8S      HAL2     0.900000E-01   1.00800           0
     11574 MEMB     106      POPC     C29      CEL1    -0.150000       12.0110           0
     11575 MEMB     106      POPC     H91      HEL1     0.150000       1.00800           0
     11576 MEMB     106      POPC     C210     CEL1    -0.150000       12.0110           0
     11577 MEMB     106      POPC     H101     HEL1     0.150000       1.00800           0
     11578 MEMB     106      POPC     C211     CTL2    -0.180000       12.0110           0
     11579 MEMB     106      POPC     H11R     HAL2     0.900000E-01   1.00800           0
     11580 MEMB     106      POPC     H11S     HAL2     0.900000E-01   1.00800           0
     11581 MEMB     106      POPC     C212     CTL2    -0.180000       12.0110           0
     11582 MEMB     106      POPC     H12R     HAL2     0.900000E-01   1.00800           0
     11583 MEMB     106      POPC     H12S     HAL2     0.900000E-01   1.00800           0
     11584 MEMB     106      POPC     C213     CTL2    -0.180000       12.0110           0
     11585 MEMB     106      POPC     H13R     HAL2     0.900000E-01   1.00800           0
     11586 MEMB     106      POPC     H13S     HAL2     0.900000E-01   1.00800           0
     11587 MEMB     106      POPC     C214     CTL2    -0.180000       12.0110           0
     11588 MEMB     106      POPC     H14R     HAL2     0.900000E-01   1.00800           0
     11589 MEMB     106      POPC     H14S     HAL2     0.900000E-01   1.00800           0
     11590 MEMB     106      POPC     C215     CTL2    -0.180000       12.0110           0
     11591 MEMB     106      POPC     H15R     HAL2     0.900000E-01   1.00800           0
     11592 MEMB     106      POPC     H15S     HAL2     0.900000E-01   1.00800           0
     11593 MEMB     106      POPC     C216     CTL2    -0.180000       12.0110           0
     11594 MEMB     106      POPC     H16R     HAL2     0.900000E-01   1.00800           0
     11595 MEMB     106      POPC     H16S     HAL2     0.900000E-01   1.00800           0
     11596 MEMB     106      POPC     C217     CTL2    -0.180000       12.0110           0
     11597 MEMB     106      POPC     H17R     HAL2     0.900000E-01   1.00800           0
     11598 MEMB     106      POPC     H17S     HAL2     0.900000E-01   1.00800           0
     11599 MEMB     106      POPC     C218     CTL3    -0.270000       12.0110           0
     11600 MEMB     106      POPC     H18R     HAL3     0.900000E-01   1.00800           0
     11601 MEMB     106      POPC     H18S     HAL3     0.900000E-01   1.00800           0
     11602 MEMB     106      POPC     H18T     HAL3     0.900000E-01   1.00800           0
     11603 MEMB     106      POPC     C33      CTL2    -0.180000       12.0110           0
     11604 MEMB     106      POPC     H3X      HAL2     0.900000E-01   1.00800           0
     11605 MEMB     106      POPC     H3Y      HAL2     0.900000E-01   1.00800           0
     11606 MEMB     106      POPC     C34      CTL2    -0.180000       12.0110           0
     11607 MEMB     106      POPC     H4X      HAL2     0.900000E-01   1.00800           0
     11608 MEMB     106      POPC     H4Y      HAL2     0.900000E-01   1.00800           0
     11609 MEMB     106      POPC     C35      CTL2    -0.180000       12.0110           0
     11610 MEMB     106      POPC     H5X      HAL2     0.900000E-01   1.00800           0
     11611 MEMB     106      POPC     H5Y      HAL2     0.900000E-01   1.00800           0
     11612 MEMB     106      POPC     C36      CTL2    -0.180000       12.0110           0
     11613 MEMB     106      POPC     H6X      HAL2     0.900000E-01   1.00800           0
     11614 MEMB     106      POPC     H6Y      HAL2     0.900000E-01   1.00800           0
     11615 MEMB     106      POPC     C37      CTL2    -0.180000       12.0110           0
     11616 MEMB     106      POPC     H7X      HAL2     0.900000E-01   1.00800           0
     11617 MEMB     106      POPC     H7Y      HAL2     0.900000E-01   1.00800           0
     11618 MEMB     106      POPC     C38      CTL2    -0.180000       12.0110           0
     11619 MEMB     106      POPC     H8X      HAL2     0.900000E-01   1.00800           0
     11620 MEMB     106      POPC     H8Y      HAL2     0.900000E-01   1.00800           0
     11621 MEMB     106      POPC     C39      CTL2    -0.180000       12.0110           0
     11622 MEMB     106      POPC     H9X      HAL2     0.900000E-01   1.00800           0
     11623 MEMB     106      POPC     H9Y      HAL2     0.900000E-01   1.00800           0
     11624 MEMB     106      POPC     C310     CTL2    -0.180000       12.0110           0
     11625 MEMB     106      POPC     H10X     HAL2     0.900000E-01   1.00800           0
     11626 MEMB     106      POPC     H10Y     HAL2     0.900000E-01   1.00800           0
     11627 MEMB     106      POPC     C311     CTL2    -0.180000       12.0110           0
     11628 MEMB     106      POPC     H11X     HAL2     0.900000E-01   1.00800           0
     11629 MEMB     106      POPC     H11Y     HAL2     0.900000E-01   1.00800           0
     11630 MEMB     106      POPC     C312     CTL2    -0.180000       12.0110           0
     11631 MEMB     106      POPC     H12X     HAL2     0.900000E-01   1.00800           0
     11632 MEMB     106      POPC     H12Y     HAL2     0.900000E-01   1.00800           0
     11633 MEMB     106      POPC     C313     CTL2    -0.180000       12.0110           0
     11634 MEMB     106      POPC     H13X     HAL2     0.900000E-01   1.00800           0
     11635 MEMB     106      POPC     H13Y     HAL2     0.900000E-01   1.00800           0
     11636 MEMB     106      POPC     C314     CTL2    -0.180000       12.0110           0
     11637 MEMB     106      POPC     H14X     HAL2     0.900000E-01   1.00800           0
     11638 MEMB     106      POPC     H14Y     HAL2     0.900000E-01   1.00800           0
     11639 MEMB     106      POPC     C315     CTL2    -0.180000       12.0110           0
     11640 MEMB     106      POPC     H15X     HAL2     0.900000E-01   1.00800           0
     11641 MEMB     106      POPC     H15Y     HAL2     0.900000E-01   1.00800           0
     11642 MEMB     106      POPC     C316     CTL3    -0.270000       12.0110           0
     11643 MEMB     106      POPC     H16X     HAL3     0.900000E-01   1.00800           0
     11644 MEMB     106      POPC     H16Y     HAL3     0.900000E-01   1.00800           0
     11645 MEMB     106      POPC     H16Z     HAL3     0.900000E-01   1.00800           0
     11646 MEMB     107      POPE     N        NH3L    -0.300000       14.0070           0
     11647 MEMB     107      POPE     HN1      HCL      0.330000       1.00800           0
     11648 MEMB     107      POPE     HN2      HCL      0.330000       1.00800           0
     11649 MEMB     107      POPE     HN3      HCL      0.330000       1.00800           0
     11650 MEMB     107      POPE     C12      CTL2     0.130000       12.0110           0
     11651 MEMB     107      POPE     H12A     HAL2     0.900000E-01   1.00800           0
     11652 MEMB     107      POPE     H12B     HAL2     0.900000E-01   1.00800           0
     11653 MEMB     107      POPE     C11      CTL2    -0.800000E-01   12.0110           0
     11654 MEMB     107      POPE     H11A     HAL2     0.900000E-01   1.00800           0
     11655 MEMB     107      POPE     H11B     HAL2     0.900000E-01   1.00800           0
     11656 MEMB     107      POPE     P        PL        1.50000       30.9740           0
     11657 MEMB     107      POPE     O13      O2L     -0.780000       15.9994           0
     11658 MEMB     107      POPE     O14      O2L     -0.780000       15.9994           0
     11659 MEMB     107      POPE     O11      OSLP    -0.570000       15.9994           0
     11660 MEMB     107      POPE     O12      OSLP    -0.570000       15.9994           0
     11661 MEMB     107      POPE     C1       CTL2    -0.800000E-01   12.0110           0
     11662 MEMB     107      POPE     HA       HAL2     0.900000E-01   1.00800           0
     11663 MEMB     107      POPE     HB       HAL2     0.900000E-01   1.00800           0
     11664 MEMB     107      POPE     C2       CTL1     0.170000       12.0110           0
     11665 MEMB     107      POPE     HS       HAL1     0.900000E-01   1.00800           0
     11666 MEMB     107      POPE     O21      OSL     -0.490000       15.9994           0
     11667 MEMB     107      POPE     C21      CL       0.900000       12.0110           0
     11668 MEMB     107      POPE     O22      OBL     -0.630000       15.9994           0
     11669 MEMB     107      POPE     C22      CTL2    -0.220000       12.0110           0
     11670 MEMB     107      POPE     H2R      HAL2     0.900000E-01   1.00800           0
     11671 MEMB     107      POPE     H2S      HAL2     0.900000E-01   1.00800           0
     11672 MEMB     107      POPE     C3       CTL2     0.800000E-01   12.0110           0
     11673 MEMB     107      POPE     HX       HAL2     0.900000E-01   1.00800           0
     11674 MEMB     107      POPE     HY       HAL2     0.900000E-01   1.00800           0
     11675 MEMB     107      POPE     O31      OSL     -0.490000       15.9994           0
     11676 MEMB     107      POPE     C31      CL       0.900000       12.0110           0
     11677 MEMB     107      POPE     O32      OBL     -0.630000       15.9994           0
     11678 MEMB     107      POPE     C32      CTL2    -0.220000       12.0110           0
     11679 MEMB     107      POPE     H2X      HAL2     0.900000E-01   1.00800           0
     11680 MEMB     107      POPE     H2Y      HAL2     0.900000E-01   1.00800           0
     11681 MEMB     107      POPE     C23      CTL2    -0.180000       12.0110           0
     11682 MEMB     107      POPE     H3R      HAL2     0.900000E-01   1.00800           0
     11683 MEMB     107      POPE     H3S      HAL2     0.900000E-01   1.00800           0
     11684 MEMB     107      POPE     C24      CTL2    -0.180000       12.0110           0
     11685 MEMB     107      POPE     H4R      HAL2     0.900000E-01   1.00800           0
     11686 MEMB     107      POPE     H4S      HAL2     0.900000E-01   1.00800           0
     11687 MEMB     107      POPE     C25      CTL2    -0.180000       12.0110           0
     11688 MEMB     107      POPE     H5R      HAL2     0.900000E-01   1.00800           0
     11689 MEMB     107      POPE     H5S      HAL2     0.900000E-01   1.00800           0
     11690 MEMB     107      POPE     C26      CTL2    -0.180000       12.0110           0
     11691 MEMB     107      POPE     H6R      HAL2     0.900000E-01   1.00800           0
     11692 MEMB     107      POPE     H6S      HAL2     0.900000E-01   1.00800           0
     11693 MEMB     107      POPE     C27      CTL2    -0.180000       12.0110           0
     11694 MEMB     107      POPE     H7R      HAL2     0.900000E-01   1.00800           0
     11695 MEMB     107      POPE     H7S      HAL2     0.900000E-01   1.00800           0
     11696 MEMB     107      POPE     C28      CTL2    -0.180000       12.0110           0
     11697 MEMB     107      POPE     H8R      HAL2     0.900000E-01   1.00800           0
     11698 MEMB     107      POPE     H8S      HAL2     0.900000E-01   1.00800           0
     11699 MEMB     107      POPE     C29      CEL1    -0.150000       12.0110           0
     11700 MEMB     107      POPE     H91      HEL1     0.150000       1.00800           0
     11701 MEMB     107      POPE     C210     CEL1    -0.150000       12.0110           0
     11702 MEMB     107      POPE     H101     HEL1     0.150000       1.00800           0
     11703 MEMB     107      POPE     C211     CTL2    -0.180000       12.0110           0
     11704 MEMB     107      POPE     H11R     HAL2     0.900000E-01   1.00800           0
     11705 MEMB     107      POPE     H11S     HAL2     0.900000E-01   1.00800           0
     11706 MEMB     107      POPE     C212     CTL2    -0.180000       12.0110           0
     11707 MEMB     107      POPE     H12R     HAL2     0.900000E-01   1.00800           0
     11708 MEMB     107      POPE     H12S     HAL2     0.900000E-01   1.00800           0
     11709 MEMB     107      POPE     C213     CTL2    -0.180000       12.0110           0
     11710 MEMB     107      POPE     H13R     HAL2     0.900000E-01   1.00800           0
     11711 MEMB     107      POPE     H13S     HAL2     0.900000E-01   1.00800           0
     11712 MEMB     107      POPE     C214     CTL2    -0.180000       12.0110           0
     11713 MEMB     107      POPE     H14R     HAL2     0.900000E-01   1.00800           0
     11714 MEMB     107      POPE     H14S     HAL2     0.900000E-01   1.00800           0
     11715 MEMB     107      POPE     C215     CTL2    -0.180000       12.0110           0
     11716 MEMB     107      POPE     H15R     HAL2     0.900000E-01   1.00800           0
     11717 MEMB     107      POPE     H15S     HAL2     0.900000E-01   1.00800           0
     11718 MEMB     107      POPE     C216     CTL2    -0.180000       12.0110           0
     11719 MEMB     107      POPE     H16R     HAL2     0.900000E-01   1.00800           0
     11720 MEMB     107      POPE     H16S     HAL2     0.900000E-01   1.00800           0
     11721 MEMB     107      POPE     C217     CTL2    -0.180000       12.0110           0
     11722 MEMB     107      POPE     H17R     HAL2     0.900000E-01   1.00800           0
     11723 MEMB     107      POPE     H17S     HAL2     0.900000E-01   1.00800           0
     11724 MEMB     107      POPE     C218     CTL3    -0.270000       12.0110           0
     11725 MEMB     107      POPE     H18R     HAL3     0.900000E-01   1.00800           0
     11726 MEMB     107      POPE     H18S     HAL3     0.900000E-01   1.00800           0
     11727 MEMB     107      POPE     H18T     HAL3     0.900000E-01   1.00800           0
     11728 MEMB     107      POPE     C33      CTL2    -0.180000       12.0110           0
     11729 MEMB     107      POPE     H3X      HAL2     0.900000E-01   1.00800           0
     11730 MEMB     107      POPE     H3Y      HAL2     0.900000E-01   1.00800           0
     11731 MEMB     107      POPE     C34      CTL2    -0.180000       12.0110           0
     11732 MEMB     107      POPE     H4X      HAL2     0.900000E-01   1.00800           0
     11733 MEMB     107      POPE     H4Y      HAL2     0.900000E-01   1.00800           0
     11734 MEMB     107      POPE     C35      CTL2    -0.180000       12.0110           0
     11735 MEMB     107      POPE     H5X      HAL2     0.900000E-01   1.00800           0
     11736 MEMB     107      POPE     H5Y      HAL2     0.900000E-01   1.00800           0
     11737 MEMB     107      POPE     C36      CTL2    -0.180000       12.0110           0
     11738 MEMB     107      POPE     H6X      HAL2     0.900000E-01   1.00800           0
     11739 MEMB     107      POPE     H6Y      HAL2     0.900000E-01   1.00800           0
     11740 MEMB     107      POPE     C37      CTL2    -0.180000       12.0110           0
     11741 MEMB     107      POPE     H7X      HAL2     0.900000E-01   1.00800           0
     11742 MEMB     107      POPE     H7Y      HAL2     0.900000E-01   1.00800           0
     11743 MEMB     107      POPE     C38      CTL2    -0.180000       12.0110           0
     11744 MEMB     107      POPE     H8X      HAL2     0.900000E-01   1.00800           0
     11745 MEMB     107      POPE     H8Y      HAL2     0.900000E-01   1.00800           0
     11746 MEMB     107      POPE     C39      CTL2    -0.180000       12.0110           0
     11747 MEMB     107      POPE     H9X      HAL2     0.900000E-01   1.00800           0
     11748 MEMB     107      POPE     H9Y      HAL2     0.900000E-01   1.00800           0
     11749 MEMB     107      POPE     C310     CTL2    -0.180000       12.0110           0
     11750 MEMB     107      POPE     H10X     HAL2     0.900000E-01   1.00800           0
     11751 MEMB     107      POPE     H10Y     HAL2     0.900000E-01   1.00800           0
     11752 MEMB     107      POPE     C311     CTL2    -0.180000       12.0110           0
     11753 MEMB     107      POPE     H11X     HAL2     0.900000E-01   1.00800           0
     11754 MEMB     107      POPE     H11Y     HAL2     0.900000E-01   1.00800           0
     11755 MEMB     107      POPE     C312     CTL2    -0.180000       12.0110           0
     11756 MEMB     107      POPE     H12X     HAL2     0.900000E-01   1.00800           0
     11757 MEMB     107      POPE     H12Y     HAL2     0.900000E-01   1.00800           0
     11758 MEMB     107      POPE     C313     CTL2    -0.180000       12.0110           0
     11759 MEMB     107      POPE     H13X     HAL2     0.900000E-01   1.00800           0
     11760 MEMB     107      POPE     H13Y     HAL2     0.900000E-01   1.00800           0
     11761 MEMB     107      POPE     C314     CTL2    -0.180000       12.0110           0
     11762 MEMB     107      POPE     H14X     HAL2     0.900000E-01   1.00800           0
     11763 MEMB     107      POPE     H14Y     HAL2     0.900000E-01   1.00800           0
     11764 MEMB     107      POPE     C315     CTL2    -0.180000       12.0110           0
     11765 MEMB     107      POPE     H15X     HAL2     0.900000E-01   1.00800           0
     11766 MEMB     107      POPE     H15Y     HAL2     0.900000E-01   1.00800           0
     11767 MEMB     107      POPE     C316     CTL3    -0.270000       12.0110           0
     11768 MEMB     107      POPE     H16X     HAL3     0.900000E-01   1.00800           0
     11769 MEMB     107      POPE     H16Y     HAL3     0.900000E-01   1.00800           0
     11770 MEMB     107      POPE     H16Z     HAL3     0.900000E-01   1.00800           0
     11771 MEMB     108      POPC     N        NTL     -0.600000       14.0070           0
     11772 MEMB     108      POPC     C12      CTL2    -0.100000       12.0110           0
     11773 MEMB     108      POPC     H12A     HL       0.250000       1.00800           0
     11774 MEMB     108      POPC     H12B     HL       0.250000       1.00800           0
     11775 MEMB     108      POPC     C13      CTL5    -0.350000       12.0110           0
     11776 MEMB     108      POPC     H13A     HL       0.250000       1.00800           0
     11777 MEMB     108      POPC     H13B     HL       0.250000       1.00800           0
     11778 MEMB     108      POPC     H13C     HL       0.250000       1.00800           0
     11779 MEMB     108      POPC     C14      CTL5    -0.350000       12.0110           0
     11780 MEMB     108      POPC     H14A     HL       0.250000       1.00800           0
     11781 MEMB     108      POPC     H14B     HL       0.250000       1.00800           0
     11782 MEMB     108      POPC     H14C     HL       0.250000       1.00800           0
     11783 MEMB     108      POPC     C15      CTL5    -0.350000       12.0110           0
     11784 MEMB     108      POPC     H15A     HL       0.250000       1.00800           0
     11785 MEMB     108      POPC     H15B     HL       0.250000       1.00800           0
     11786 MEMB     108      POPC     H15C     HL       0.250000       1.00800           0
     11787 MEMB     108      POPC     C11      CTL2    -0.800000E-01   12.0110           0
     11788 MEMB     108      POPC     H11A     HAL2     0.900000E-01   1.00800           0
     11789 MEMB     108      POPC     H11B     HAL2     0.900000E-01   1.00800           0
     11790 MEMB     108      POPC     P        PL        1.50000       30.9740           0
     11791 MEMB     108      POPC     O13      O2L     -0.780000       15.9994           0
     11792 MEMB     108      POPC     O14      O2L     -0.780000       15.9994           0
     11793 MEMB     108      POPC     O12      OSLP    -0.570000       15.9994           0
     11794 MEMB     108      POPC     O11      OSLP    -0.570000       15.9994           0
     11795 MEMB     108      POPC     C1       CTL2    -0.800000E-01   12.0110           0
     11796 MEMB     108      POPC     HA       HAL2     0.900000E-01   1.00800           0
     11797 MEMB     108      POPC     HB       HAL2     0.900000E-01   1.00800           0
     11798 MEMB     108      POPC     C2       CTL1     0.170000       12.0110           0
     11799 MEMB     108      POPC     HS       HAL1     0.900000E-01   1.00800           0
     11800 MEMB     108      POPC     O21      OSL     -0.490000       15.9994           0
     11801 MEMB     108      POPC     C21      CL       0.900000       12.0110           0
     11802 MEMB     108      POPC     O22      OBL     -0.630000       15.9994           0
     11803 MEMB     108      POPC     C22      CTL2    -0.220000       12.0110           0
     11804 MEMB     108      POPC     H2R      HAL2     0.900000E-01   1.00800           0
     11805 MEMB     108      POPC     H2S      HAL2     0.900000E-01   1.00800           0
     11806 MEMB     108      POPC     C3       CTL2     0.800000E-01   12.0110           0
     11807 MEMB     108      POPC     HX       HAL2     0.900000E-01   1.00800           0
     11808 MEMB     108      POPC     HY       HAL2     0.900000E-01   1.00800           0
     11809 MEMB     108      POPC     O31      OSL     -0.490000       15.9994           0
     11810 MEMB     108      POPC     C31      CL       0.900000       12.0110           0
     11811 MEMB     108      POPC     O32      OBL     -0.630000       15.9994           0
     11812 MEMB     108      POPC     C32      CTL2    -0.220000       12.0110           0
     11813 MEMB     108      POPC     H2X      HAL2     0.900000E-01   1.00800           0
     11814 MEMB     108      POPC     H2Y      HAL2     0.900000E-01   1.00800           0
     11815 MEMB     108      POPC     C23      CTL2    -0.180000       12.0110           0
     11816 MEMB     108      POPC     H3R      HAL2     0.900000E-01   1.00800           0
     11817 MEMB     108      POPC     H3S      HAL2     0.900000E-01   1.00800           0
     11818 MEMB     108      POPC     C24      CTL2    -0.180000       12.0110           0
     11819 MEMB     108      POPC     H4R      HAL2     0.900000E-01   1.00800           0
     11820 MEMB     108      POPC     H4S      HAL2     0.900000E-01   1.00800           0
     11821 MEMB     108      POPC     C25      CTL2    -0.180000       12.0110           0
     11822 MEMB     108      POPC     H5R      HAL2     0.900000E-01   1.00800           0
     11823 MEMB     108      POPC     H5S      HAL2     0.900000E-01   1.00800           0
     11824 MEMB     108      POPC     C26      CTL2    -0.180000       12.0110           0
     11825 MEMB     108      POPC     H6R      HAL2     0.900000E-01   1.00800           0
     11826 MEMB     108      POPC     H6S      HAL2     0.900000E-01   1.00800           0
     11827 MEMB     108      POPC     C27      CTL2    -0.180000       12.0110           0
     11828 MEMB     108      POPC     H7R      HAL2     0.900000E-01   1.00800           0
     11829 MEMB     108      POPC     H7S      HAL2     0.900000E-01   1.00800           0
     11830 MEMB     108      POPC     C28      CTL2    -0.180000       12.0110           0
     11831 MEMB     108      POPC     H8R      HAL2     0.900000E-01   1.00800           0
     11832 MEMB     108      POPC     H8S      HAL2     0.900000E-01   1.00800           0
     11833 MEMB     108      POPC     C29      CEL1    -0.150000       12.0110           0
     11834 MEMB     108      POPC     H91      HEL1     0.150000       1.00800           0
     11835 MEMB     108      POPC     C210     CEL1    -0.150000       12.0110           0
     11836 MEMB     108      POPC     H101     HEL1     0.150000       1.00800           0
     11837 MEMB     108      POPC     C211     CTL2    -0.180000       12.0110           0
     11838 MEMB     108      POPC     H11R     HAL2     0.900000E-01   1.00800           0
     11839 MEMB     108      POPC     H11S     HAL2     0.900000E-01   1.00800           0
     11840 MEMB     108      POPC     C212     CTL2    -0.180000       12.0110           0
     11841 MEMB     108      POPC     H12R     HAL2     0.900000E-01   1.00800           0
     11842 MEMB     108      POPC     H12S     HAL2     0.900000E-01   1.00800           0
     11843 MEMB     108      POPC     C213     CTL2    -0.180000       12.0110           0
     11844 MEMB     108      POPC     H13R     HAL2     0.900000E-01   1.00800           0
     11845 MEMB     108      POPC     H13S     HAL2     0.900000E-01   1.00800           0
     11846 MEMB     108      POPC     C214     CTL2    -0.180000       12.0110           0
     11847 MEMB     108      POPC     H14R     HAL2     0.900000E-01   1.00800           0
     11848 MEMB     108      POPC     H14S     HAL2     0.900000E-01   1.00800           0
     11849 MEMB     108      POPC     C215     CTL2    -0.180000       12.0110           0
     11850 MEMB     108      POPC     H15R     HAL2     0.900000E-01   1.00800           0
     11851 MEMB     108      POPC     H15S     HAL2     0.900000E-01   1.00800           0
     11852 MEMB     108      POPC     C216     CTL2    -0.180000       12.0110           0
     11853 MEMB     108      POPC     H16R     HAL2     0.900000E-01   1.00800           0
     11854 MEMB     108      POPC     H16S     HAL2     0.900000E-01   1.00800           0
     11855 MEMB     108      POPC     C217     CTL2    -0.180000       12.0110           0
     11856 MEMB     108      POPC     H17R     HAL2     0.900000E-01   1.00800           0
     11857 MEMB     108      POPC     H17S     HAL2     0.900000E-01   1.00800           0
     11858 MEMB     108      POPC     C218     CTL3    -0.270000       12.0110           0
     11859 MEMB     108      POPC     H18R     HAL3     0.900000E-01   1.00800           0
     11860 MEMB     108      POPC     H18S     HAL3     0.900000E-01   1.00800           0
     11861 MEMB     108      POPC     H18T     HAL3     0.900000E-01   1.00800           0
     11862 MEMB     108      POPC     C33      CTL2    -0.180000       12.0110           0
     11863 MEMB     108      POPC     H3X      HAL2     0.900000E-01   1.00800           0
     11864 MEMB     108      POPC     H3Y      HAL2     0.900000E-01   1.00800           0
     11865 MEMB     108      POPC     C34      CTL2    -0.180000       12.0110           0
     11866 MEMB     108      POPC     H4X      HAL2     0.900000E-01   1.00800           0
     11867 MEMB     108      POPC     H4Y      HAL2     0.900000E-01   1.00800           0
     11868 MEMB     108      POPC     C35      CTL2    -0.180000       12.0110           0
     11869 MEMB     108      POPC     H5X      HAL2     0.900000E-01   1.00800           0
     11870 MEMB     108      POPC     H5Y      HAL2     0.900000E-01   1.00800           0
     11871 MEMB     108      POPC     C36      CTL2    -0.180000       12.0110           0
     11872 MEMB     108      POPC     H6X      HAL2     0.900000E-01   1.00800           0
     11873 MEMB     108      POPC     H6Y      HAL2     0.900000E-01   1.00800           0
     11874 MEMB     108      POPC     C37      CTL2    -0.180000       12.0110           0
     11875 MEMB     108      POPC     H7X      HAL2     0.900000E-01   1.00800           0
     11876 MEMB     108      POPC     H7Y      HAL2     0.900000E-01   1.00800           0
     11877 MEMB     108      POPC     C38      CTL2    -0.180000       12.0110           0
     11878 MEMB     108      POPC     H8X      HAL2     0.900000E-01   1.00800           0
     11879 MEMB     108      POPC     H8Y      HAL2     0.900000E-01   1.00800           0
     11880 MEMB     108      POPC     C39      CTL2    -0.180000       12.0110           0
     11881 MEMB     108      POPC     H9X      HAL2     0.900000E-01   1.00800           0
     11882 MEMB     108      POPC     H9Y      HAL2     0.900000E-01   1.00800           0
     11883 MEMB     108      POPC     C310     CTL2    -0.180000       12.0110           0
     11884 MEMB     108      POPC     H10X     HAL2     0.900000E-01   1.00800           0
     11885 MEMB     108      POPC     H10Y     HAL2     0.900000E-01   1.00800           0
     11886 MEMB     108      POPC     C311     CTL2    -0.180000       12.0110           0
     11887 MEMB     108      POPC     H11X     HAL2     0.900000E-01   1.00800           0
     11888 MEMB     108      POPC     H11Y     HAL2     0.900000E-01   1.00800           0
     11889 MEMB     108      POPC     C312     CTL2    -0.180000       12.0110           0
     11890 MEMB     108      POPC     H12X     HAL2     0.900000E-01   1.00800           0
     11891 MEMB     108      POPC     H12Y     HAL2     0.900000E-01   1.00800           0
     11892 MEMB     108      POPC     C313     CTL2    -0.180000       12.0110           0
     11893 MEMB     108      POPC     H13X     HAL2     0.900000E-01   1.00800           0
     11894 MEMB     108      POPC     H13Y     HAL2     0.900000E-01   1.00800           0
     11895 MEMB     108      POPC     C314     CTL2    -0.180000       12.0110           0
     11896 MEMB     108      POPC     H14X     HAL2     0.900000E-01   1.00800           0
     11897 MEMB     108      POPC     H14Y     HAL2     0.900000E-01   1.00800           0
     11898 MEMB     108      POPC     C315     CTL2    -0.180000       12.0110           0
     11899 MEMB     108      POPC     H15X     HAL2     0.900000E-01   1.00800           0
     11900 MEMB     108      POPC     H15Y     HAL2     0.900000E-01   1.00800           0
     11901 MEMB     108      POPC     C316     CTL3    -0.270000       12.0110           0
     11902 MEMB     108      POPC     H16X     HAL3     0.900000E-01   1.00800           0
     11903 MEMB     108      POPC     H16Y     HAL3     0.900000E-01   1.00800           0
     11904 MEMB     108      POPC     H16Z     HAL3     0.900000E-01   1.00800           0
     11905 MEMB     109      POPC     N        NTL     -0.600000       14.0070           0
     11906 MEMB     109      POPC     C12      CTL2    -0.100000       12.0110           0
     11907 MEMB     109      POPC     H12A     HL       0.250000       1.00800           0
     11908 MEMB     109      POPC     H12B     HL       0.250000       1.00800           0
     11909 MEMB     109      POPC     C13      CTL5    -0.350000       12.0110           0
     11910 MEMB     109      POPC     H13A     HL       0.250000       1.00800           0
     11911 MEMB     109      POPC     H13B     HL       0.250000       1.00800           0
     11912 MEMB     109      POPC     H13C     HL       0.250000       1.00800           0
     11913 MEMB     109      POPC     C14      CTL5    -0.350000       12.0110           0
     11914 MEMB     109      POPC     H14A     HL       0.250000       1.00800           0
     11915 MEMB     109      POPC     H14B     HL       0.250000       1.00800           0
     11916 MEMB     109      POPC     H14C     HL       0.250000       1.00800           0
     11917 MEMB     109      POPC     C15      CTL5    -0.350000       12.0110           0
     11918 MEMB     109      POPC     H15A     HL       0.250000       1.00800           0
     11919 MEMB     109      POPC     H15B     HL       0.250000       1.00800           0
     11920 MEMB     109      POPC     H15C     HL       0.250000       1.00800           0
     11921 MEMB     109      POPC     C11      CTL2    -0.800000E-01   12.0110           0
     11922 MEMB     109      POPC     H11A     HAL2     0.900000E-01   1.00800           0
     11923 MEMB     109      POPC     H11B     HAL2     0.900000E-01   1.00800           0
     11924 MEMB     109      POPC     P        PL        1.50000       30.9740           0
     11925 MEMB     109      POPC     O13      O2L     -0.780000       15.9994           0
     11926 MEMB     109      POPC     O14      O2L     -0.780000       15.9994           0
     11927 MEMB     109      POPC     O12      OSLP    -0.570000       15.9994           0
     11928 MEMB     109      POPC     O11      OSLP    -0.570000       15.9994           0
     11929 MEMB     109      POPC     C1       CTL2    -0.800000E-01   12.0110           0
     11930 MEMB     109      POPC     HA       HAL2     0.900000E-01   1.00800           0
     11931 MEMB     109      POPC     HB       HAL2     0.900000E-01   1.00800           0
     11932 MEMB     109      POPC     C2       CTL1     0.170000       12.0110           0
     11933 MEMB     109      POPC     HS       HAL1     0.900000E-01   1.00800           0
     11934 MEMB     109      POPC     O21      OSL     -0.490000       15.9994           0
     11935 MEMB     109      POPC     C21      CL       0.900000       12.0110           0
     11936 MEMB     109      POPC     O22      OBL     -0.630000       15.9994           0
     11937 MEMB     109      POPC     C22      CTL2    -0.220000       12.0110           0
     11938 MEMB     109      POPC     H2R      HAL2     0.900000E-01   1.00800           0
     11939 MEMB     109      POPC     H2S      HAL2     0.900000E-01   1.00800           0
     11940 MEMB     109      POPC     C3       CTL2     0.800000E-01   12.0110           0
     11941 MEMB     109      POPC     HX       HAL2     0.900000E-01   1.00800           0
     11942 MEMB     109      POPC     HY       HAL2     0.900000E-01   1.00800           0
     11943 MEMB     109      POPC     O31      OSL     -0.490000       15.9994           0
     11944 MEMB     109      POPC     C31      CL       0.900000       12.0110           0
     11945 MEMB     109      POPC     O32      OBL     -0.630000       15.9994           0
     11946 MEMB     109      POPC     C32      CTL2    -0.220000       12.0110           0
     11947 MEMB     109      POPC     H2X      HAL2     0.900000E-01   1.00800           0
     11948 MEMB     109      POPC     H2Y      HAL2     0.900000E-01   1.00800           0
     11949 MEMB     109      POPC     C23      CTL2    -0.180000       12.0110           0
     11950 MEMB     109      POPC     H3R      HAL2     0.900000E-01   1.00800           0
     11951 MEMB     109      POPC     H3S      HAL2     0.900000E-01   1.00800           0
     11952 MEMB     109      POPC     C24      CTL2    -0.180000       12.0110           0
     11953 MEMB     109      POPC     H4R      HAL2     0.900000E-01   1.00800           0
     11954 MEMB     109      POPC     H4S      HAL2     0.900000E-01   1.00800           0
     11955 MEMB     109      POPC     C25      CTL2    -0.180000       12.0110           0
     11956 MEMB     109      POPC     H5R      HAL2     0.900000E-01   1.00800           0
     11957 MEMB     109      POPC     H5S      HAL2     0.900000E-01   1.00800           0
     11958 MEMB     109      POPC     C26      CTL2    -0.180000       12.0110           0
     11959 MEMB     109      POPC     H6R      HAL2     0.900000E-01   1.00800           0
     11960 MEMB     109      POPC     H6S      HAL2     0.900000E-01   1.00800           0
     11961 MEMB     109      POPC     C27      CTL2    -0.180000       12.0110           0
     11962 MEMB     109      POPC     H7R      HAL2     0.900000E-01   1.00800           0
     11963 MEMB     109      POPC     H7S      HAL2     0.900000E-01   1.00800           0
     11964 MEMB     109      POPC     C28      CTL2    -0.180000       12.0110           0
     11965 MEMB     109      POPC     H8R      HAL2     0.900000E-01   1.00800           0
     11966 MEMB     109      POPC     H8S      HAL2     0.900000E-01   1.00800           0
     11967 MEMB     109      POPC     C29      CEL1    -0.150000       12.0110           0
     11968 MEMB     109      POPC     H91      HEL1     0.150000       1.00800           0
     11969 MEMB     109      POPC     C210     CEL1    -0.150000       12.0110           0
     11970 MEMB     109      POPC     H101     HEL1     0.150000       1.00800           0
     11971 MEMB     109      POPC     C211     CTL2    -0.180000       12.0110           0
     11972 MEMB     109      POPC     H11R     HAL2     0.900000E-01   1.00800           0
     11973 MEMB     109      POPC     H11S     HAL2     0.900000E-01   1.00800           0
     11974 MEMB     109      POPC     C212     CTL2    -0.180000       12.0110           0
     11975 MEMB     109      POPC     H12R     HAL2     0.900000E-01   1.00800           0
     11976 MEMB     109      POPC     H12S     HAL2     0.900000E-01   1.00800           0
     11977 MEMB     109      POPC     C213     CTL2    -0.180000       12.0110           0
     11978 MEMB     109      POPC     H13R     HAL2     0.900000E-01   1.00800           0
     11979 MEMB     109      POPC     H13S     HAL2     0.900000E-01   1.00800           0
     11980 MEMB     109      POPC     C214     CTL2    -0.180000       12.0110           0
     11981 MEMB     109      POPC     H14R     HAL2     0.900000E-01   1.00800           0
     11982 MEMB     109      POPC     H14S     HAL2     0.900000E-01   1.00800           0
     11983 MEMB     109      POPC     C215     CTL2    -0.180000       12.0110           0
     11984 MEMB     109      POPC     H15R     HAL2     0.900000E-01   1.00800           0
     11985 MEMB     109      POPC     H15S     HAL2     0.900000E-01   1.00800           0
     11986 MEMB     109      POPC     C216     CTL2    -0.180000       12.0110           0
     11987 MEMB     109      POPC     H16R     HAL2     0.900000E-01   1.00800           0
     11988 MEMB     109      POPC     H16S     HAL2     0.900000E-01   1.00800           0
     11989 MEMB     109      POPC     C217     CTL2    -0.180000       12.0110           0
     11990 MEMB     109      POPC     H17R     HAL2     0.900000E-01   1.00800           0
     11991 MEMB     109      POPC     H17S     HAL2     0.900000E-01   1.00800           0
     11992 MEMB     109      POPC     C218     CTL3    -0.270000       12.0110           0
     11993 MEMB     109      POPC     H18R     HAL3     0.900000E-01   1.00800           0
     11994 MEMB     109      POPC     H18S     HAL3     0.900000E-01   1.00800           0
     11995 MEMB     109      POPC     H18T     HAL3     0.900000E-01   1.00800           0
     11996 MEMB     109      POPC     C33      CTL2    -0.180000       12.0110           0
     11997 MEMB     109      POPC     H3X      HAL2     0.900000E-01   1.00800           0
     11998 MEMB     109      POPC     H3Y      HAL2     0.900000E-01   1.00800           0
     11999 MEMB     109      POPC     C34      CTL2    -0.180000       12.0110           0
     12000 MEMB     109      POPC     H4X      HAL2     0.900000E-01   1.00800           0
     12001 MEMB     109      POPC     H4Y      HAL2     0.900000E-01   1.00800           0
     12002 MEMB     109      POPC     C35      CTL2    -0.180000       12.0110           0
     12003 MEMB     109      POPC     H5X      HAL2     0.900000E-01   1.00800           0
     12004 MEMB     109      POPC     H5Y      HAL2     0.900000E-01   1.00800           0
     12005 MEMB     109      POPC     C36      CTL2    -0.180000       12.0110           0
     12006 MEMB     109      POPC     H6X      HAL2     0.900000E-01   1.00800           0
     12007 MEMB     109      POPC     H6Y      HAL2     0.900000E-01   1.00800           0
     12008 MEMB     109      POPC     C37      CTL2    -0.180000       12.0110           0
     12009 MEMB     109      POPC     H7X      HAL2     0.900000E-01   1.00800           0
     12010 MEMB     109      POPC     H7Y      HAL2     0.900000E-01   1.00800           0
     12011 MEMB     109      POPC     C38      CTL2    -0.180000       12.0110           0
     12012 MEMB     109      POPC     H8X      HAL2     0.900000E-01   1.00800           0
     12013 MEMB     109      POPC     H8Y      HAL2     0.900000E-01   1.00800           0
     12014 MEMB     109      POPC     C39      CTL2    -0.180000       12.0110           0
     12015 MEMB     109      POPC     H9X      HAL2     0.900000E-01   1.00800           0
     12016 MEMB     109      POPC     H9Y      HAL2     0.900000E-01   1.00800           0
     12017 MEMB     109      POPC     C310     CTL2    -0.180000       12.0110           0
     12018 MEMB     109      POPC     H10X     HAL2     0.900000E-01   1.00800           0
     12019 MEMB     109      POPC     H10Y     HAL2     0.900000E-01   1.00800           0
     12020 MEMB     109      POPC     C311     CTL2    -0.180000       12.0110           0
     12021 MEMB     109      POPC     H11X     HAL2     0.900000E-01   1.00800           0
     12022 MEMB     109      POPC     H11Y     HAL2     0.900000E-01   1.00800           0
     12023 MEMB     109      POPC     C312     CTL2    -0.180000       12.0110           0
     12024 MEMB     109      POPC     H12X     HAL2     0.900000E-01   1.00800           0
     12025 MEMB     109      POPC     H12Y     HAL2     0.900000E-01   1.00800           0
     12026 MEMB     109      POPC     C313     CTL2    -0.180000       12.0110           0
     12027 MEMB     109      POPC     H13X     HAL2     0.900000E-01   1.00800           0
     12028 MEMB     109      POPC     H13Y     HAL2     0.900000E-01   1.00800           0
     12029 MEMB     109      POPC     C314     CTL2    -0.180000       12.0110           0
     12030 MEMB     109      POPC     H14X     HAL2     0.900000E-01   1.00800           0
     12031 MEMB     109      POPC     H14Y     HAL2     0.900000E-01   1.00800           0
     12032 MEMB     109      POPC     C315     CTL2    -0.180000       12.0110           0
     12033 MEMB     109      POPC     H15X     HAL2     0.900000E-01   1.00800           0
     12034 MEMB     109      POPC     H15Y     HAL2     0.900000E-01   1.00800           0
     12035 MEMB     109      POPC     C316     CTL3    -0.270000       12.0110           0
     12036 MEMB     109      POPC     H16X     HAL3     0.900000E-01   1.00800           0
     12037 MEMB     109      POPC     H16Y     HAL3     0.900000E-01   1.00800           0
     12038 MEMB     109      POPC     H16Z     HAL3     0.900000E-01   1.00800           0
     12039 MEMB     110      POPE     N        NH3L    -0.300000       14.0070           0
     12040 MEMB     110      POPE     HN1      HCL      0.330000       1.00800           0
     12041 MEMB     110      POPE     HN2      HCL      0.330000       1.00800           0
     12042 MEMB     110      POPE     HN3      HCL      0.330000       1.00800           0
     12043 MEMB     110      POPE     C12      CTL2     0.130000       12.0110           0
     12044 MEMB     110      POPE     H12A     HAL2     0.900000E-01   1.00800           0
     12045 MEMB     110      POPE     H12B     HAL2     0.900000E-01   1.00800           0
     12046 MEMB     110      POPE     C11      CTL2    -0.800000E-01   12.0110           0
     12047 MEMB     110      POPE     H11A     HAL2     0.900000E-01   1.00800           0
     12048 MEMB     110      POPE     H11B     HAL2     0.900000E-01   1.00800           0
     12049 MEMB     110      POPE     P        PL        1.50000       30.9740           0
     12050 MEMB     110      POPE     O13      O2L     -0.780000       15.9994           0
     12051 MEMB     110      POPE     O14      O2L     -0.780000       15.9994           0
     12052 MEMB     110      POPE     O11      OSLP    -0.570000       15.9994           0
     12053 MEMB     110      POPE     O12      OSLP    -0.570000       15.9994           0
     12054 MEMB     110      POPE     C1       CTL2    -0.800000E-01   12.0110           0
     12055 MEMB     110      POPE     HA       HAL2     0.900000E-01   1.00800           0
     12056 MEMB     110      POPE     HB       HAL2     0.900000E-01   1.00800           0
     12057 MEMB     110      POPE     C2       CTL1     0.170000       12.0110           0
     12058 MEMB     110      POPE     HS       HAL1     0.900000E-01   1.00800           0
     12059 MEMB     110      POPE     O21      OSL     -0.490000       15.9994           0
     12060 MEMB     110      POPE     C21      CL       0.900000       12.0110           0
     12061 MEMB     110      POPE     O22      OBL     -0.630000       15.9994           0
     12062 MEMB     110      POPE     C22      CTL2    -0.220000       12.0110           0
     12063 MEMB     110      POPE     H2R      HAL2     0.900000E-01   1.00800           0
     12064 MEMB     110      POPE     H2S      HAL2     0.900000E-01   1.00800           0
     12065 MEMB     110      POPE     C3       CTL2     0.800000E-01   12.0110           0
     12066 MEMB     110      POPE     HX       HAL2     0.900000E-01   1.00800           0
     12067 MEMB     110      POPE     HY       HAL2     0.900000E-01   1.00800           0
     12068 MEMB     110      POPE     O31      OSL     -0.490000       15.9994           0
     12069 MEMB     110      POPE     C31      CL       0.900000       12.0110           0
     12070 MEMB     110      POPE     O32      OBL     -0.630000       15.9994           0
     12071 MEMB     110      POPE     C32      CTL2    -0.220000       12.0110           0
     12072 MEMB     110      POPE     H2X      HAL2     0.900000E-01   1.00800           0
     12073 MEMB     110      POPE     H2Y      HAL2     0.900000E-01   1.00800           0
     12074 MEMB     110      POPE     C23      CTL2    -0.180000       12.0110           0
     12075 MEMB     110      POPE     H3R      HAL2     0.900000E-01   1.00800           0
     12076 MEMB     110      POPE     H3S      HAL2     0.900000E-01   1.00800           0
     12077 MEMB     110      POPE     C24      CTL2    -0.180000       12.0110           0
     12078 MEMB     110      POPE     H4R      HAL2     0.900000E-01   1.00800           0
     12079 MEMB     110      POPE     H4S      HAL2     0.900000E-01   1.00800           0
     12080 MEMB     110      POPE     C25      CTL2    -0.180000       12.0110           0
     12081 MEMB     110      POPE     H5R      HAL2     0.900000E-01   1.00800           0
     12082 MEMB     110      POPE     H5S      HAL2     0.900000E-01   1.00800           0
     12083 MEMB     110      POPE     C26      CTL2    -0.180000       12.0110           0
     12084 MEMB     110      POPE     H6R      HAL2     0.900000E-01   1.00800           0
     12085 MEMB     110      POPE     H6S      HAL2     0.900000E-01   1.00800           0
     12086 MEMB     110      POPE     C27      CTL2    -0.180000       12.0110           0
     12087 MEMB     110      POPE     H7R      HAL2     0.900000E-01   1.00800           0
     12088 MEMB     110      POPE     H7S      HAL2     0.900000E-01   1.00800           0
     12089 MEMB     110      POPE     C28      CTL2    -0.180000       12.0110           0
     12090 MEMB     110      POPE     H8R      HAL2     0.900000E-01   1.00800           0
     12091 MEMB     110      POPE     H8S      HAL2     0.900000E-01   1.00800           0
     12092 MEMB     110      POPE     C29      CEL1    -0.150000       12.0110           0
     12093 MEMB     110      POPE     H91      HEL1     0.150000       1.00800           0
     12094 MEMB     110      POPE     C210     CEL1    -0.150000       12.0110           0
     12095 MEMB     110      POPE     H101     HEL1     0.150000       1.00800           0
     12096 MEMB     110      POPE     C211     CTL2    -0.180000       12.0110           0
     12097 MEMB     110      POPE     H11R     HAL2     0.900000E-01   1.00800           0
     12098 MEMB     110      POPE     H11S     HAL2     0.900000E-01   1.00800           0
     12099 MEMB     110      POPE     C212     CTL2    -0.180000       12.0110           0
     12100 MEMB     110      POPE     H12R     HAL2     0.900000E-01   1.00800           0
     12101 MEMB     110      POPE     H12S     HAL2     0.900000E-01   1.00800           0
     12102 MEMB     110      POPE     C213     CTL2    -0.180000       12.0110           0
     12103 MEMB     110      POPE     H13R     HAL2     0.900000E-01   1.00800           0
     12104 MEMB     110      POPE     H13S     HAL2     0.900000E-01   1.00800           0
     12105 MEMB     110      POPE     C214     CTL2    -0.180000       12.0110           0
     12106 MEMB     110      POPE     H14R     HAL2     0.900000E-01   1.00800           0
     12107 MEMB     110      POPE     H14S     HAL2     0.900000E-01   1.00800           0
     12108 MEMB     110      POPE     C215     CTL2    -0.180000       12.0110           0
     12109 MEMB     110      POPE     H15R     HAL2     0.900000E-01   1.00800           0
     12110 MEMB     110      POPE     H15S     HAL2     0.900000E-01   1.00800           0
     12111 MEMB     110      POPE     C216     CTL2    -0.180000       12.0110           0
     12112 MEMB     110      POPE     H16R     HAL2     0.900000E-01   1.00800           0
     12113 MEMB     110      POPE     H16S     HAL2     0.900000E-01   1.00800           0
     12114 MEMB     110      POPE     C217     CTL2    -0.180000       12.0110           0
     12115 MEMB     110      POPE     H17R     HAL2     0.900000E-01   1.00800           0
     12116 MEMB     110      POPE     H17S     HAL2     0.900000E-01   1.00800           0
     12117 MEMB     110      POPE     C218     CTL3    -0.270000       12.0110           0
     12118 MEMB     110      POPE     H18R     HAL3     0.900000E-01   1.00800           0
     12119 MEMB     110      POPE     H18S     HAL3     0.900000E-01   1.00800           0
     12120 MEMB     110      POPE     H18T     HAL3     0.900000E-01   1.00800           0
     12121 MEMB     110      POPE     C33      CTL2    -0.180000       12.0110           0
     12122 MEMB     110      POPE     H3X      HAL2     0.900000E-01   1.00800           0
     12123 MEMB     110      POPE     H3Y      HAL2     0.900000E-01   1.00800           0
     12124 MEMB     110      POPE     C34      CTL2    -0.180000       12.0110           0
     12125 MEMB     110      POPE     H4X      HAL2     0.900000E-01   1.00800           0
     12126 MEMB     110      POPE     H4Y      HAL2     0.900000E-01   1.00800           0
     12127 MEMB     110      POPE     C35      CTL2    -0.180000       12.0110           0
     12128 MEMB     110      POPE     H5X      HAL2     0.900000E-01   1.00800           0
     12129 MEMB     110      POPE     H5Y      HAL2     0.900000E-01   1.00800           0
     12130 MEMB     110      POPE     C36      CTL2    -0.180000       12.0110           0
     12131 MEMB     110      POPE     H6X      HAL2     0.900000E-01   1.00800           0
     12132 MEMB     110      POPE     H6Y      HAL2     0.900000E-01   1.00800           0
     12133 MEMB     110      POPE     C37      CTL2    -0.180000       12.0110           0
     12134 MEMB     110      POPE     H7X      HAL2     0.900000E-01   1.00800           0
     12135 MEMB     110      POPE     H7Y      HAL2     0.900000E-01   1.00800           0
     12136 MEMB     110      POPE     C38      CTL2    -0.180000       12.0110           0
     12137 MEMB     110      POPE     H8X      HAL2     0.900000E-01   1.00800           0
     12138 MEMB     110      POPE     H8Y      HAL2     0.900000E-01   1.00800           0
     12139 MEMB     110      POPE     C39      CTL2    -0.180000       12.0110           0
     12140 MEMB     110      POPE     H9X      HAL2     0.900000E-01   1.00800           0
     12141 MEMB     110      POPE     H9Y      HAL2     0.900000E-01   1.00800           0
     12142 MEMB     110      POPE     C310     CTL2    -0.180000       12.0110           0
     12143 MEMB     110      POPE     H10X     HAL2     0.900000E-01   1.00800           0
     12144 MEMB     110      POPE     H10Y     HAL2     0.900000E-01   1.00800           0
     12145 MEMB     110      POPE     C311     CTL2    -0.180000       12.0110           0
     12146 MEMB     110      POPE     H11X     HAL2     0.900000E-01   1.00800           0
     12147 MEMB     110      POPE     H11Y     HAL2     0.900000E-01   1.00800           0
     12148 MEMB     110      POPE     C312     CTL2    -0.180000       12.0110           0
     12149 MEMB     110      POPE     H12X     HAL2     0.900000E-01   1.00800           0
     12150 MEMB     110      POPE     H12Y     HAL2     0.900000E-01   1.00800           0
     12151 MEMB     110      POPE     C313     CTL2    -0.180000       12.0110           0
     12152 MEMB     110      POPE     H13X     HAL2     0.900000E-01   1.00800           0
     12153 MEMB     110      POPE     H13Y     HAL2     0.900000E-01   1.00800           0
     12154 MEMB     110      POPE     C314     CTL2    -0.180000       12.0110           0
     12155 MEMB     110      POPE     H14X     HAL2     0.900000E-01   1.00800           0
     12156 MEMB     110      POPE     H14Y     HAL2     0.900000E-01   1.00800           0
     12157 MEMB     110      POPE     C315     CTL2    -0.180000       12.0110           0
     12158 MEMB     110      POPE     H15X     HAL2     0.900000E-01   1.00800           0
     12159 MEMB     110      POPE     H15Y     HAL2     0.900000E-01   1.00800           0
     12160 MEMB     110      POPE     C316     CTL3    -0.270000       12.0110           0
     12161 MEMB     110      POPE     H16X     HAL3     0.900000E-01   1.00800           0
     12162 MEMB     110      POPE     H16Y     HAL3     0.900000E-01   1.00800           0
     12163 MEMB     110      POPE     H16Z     HAL3     0.900000E-01   1.00800           0
     12164 MEMB     111      POPE     N        NH3L    -0.300000       14.0070           0
     12165 MEMB     111      POPE     HN1      HCL      0.330000       1.00800           0
     12166 MEMB     111      POPE     HN2      HCL      0.330000       1.00800           0
     12167 MEMB     111      POPE     HN3      HCL      0.330000       1.00800           0
     12168 MEMB     111      POPE     C12      CTL2     0.130000       12.0110           0
     12169 MEMB     111      POPE     H12A     HAL2     0.900000E-01   1.00800           0
     12170 MEMB     111      POPE     H12B     HAL2     0.900000E-01   1.00800           0
     12171 MEMB     111      POPE     C11      CTL2    -0.800000E-01   12.0110           0
     12172 MEMB     111      POPE     H11A     HAL2     0.900000E-01   1.00800           0
     12173 MEMB     111      POPE     H11B     HAL2     0.900000E-01   1.00800           0
     12174 MEMB     111      POPE     P        PL        1.50000       30.9740           0
     12175 MEMB     111      POPE     O13      O2L     -0.780000       15.9994           0
     12176 MEMB     111      POPE     O14      O2L     -0.780000       15.9994           0
     12177 MEMB     111      POPE     O11      OSLP    -0.570000       15.9994           0
     12178 MEMB     111      POPE     O12      OSLP    -0.570000       15.9994           0
     12179 MEMB     111      POPE     C1       CTL2    -0.800000E-01   12.0110           0
     12180 MEMB     111      POPE     HA       HAL2     0.900000E-01   1.00800           0
     12181 MEMB     111      POPE     HB       HAL2     0.900000E-01   1.00800           0
     12182 MEMB     111      POPE     C2       CTL1     0.170000       12.0110           0
     12183 MEMB     111      POPE     HS       HAL1     0.900000E-01   1.00800           0
     12184 MEMB     111      POPE     O21      OSL     -0.490000       15.9994           0
     12185 MEMB     111      POPE     C21      CL       0.900000       12.0110           0
     12186 MEMB     111      POPE     O22      OBL     -0.630000       15.9994           0
     12187 MEMB     111      POPE     C22      CTL2    -0.220000       12.0110           0
     12188 MEMB     111      POPE     H2R      HAL2     0.900000E-01   1.00800           0
     12189 MEMB     111      POPE     H2S      HAL2     0.900000E-01   1.00800           0
     12190 MEMB     111      POPE     C3       CTL2     0.800000E-01   12.0110           0
     12191 MEMB     111      POPE     HX       HAL2     0.900000E-01   1.00800           0
     12192 MEMB     111      POPE     HY       HAL2     0.900000E-01   1.00800           0
     12193 MEMB     111      POPE     O31      OSL     -0.490000       15.9994           0
     12194 MEMB     111      POPE     C31      CL       0.900000       12.0110           0
     12195 MEMB     111      POPE     O32      OBL     -0.630000       15.9994           0
     12196 MEMB     111      POPE     C32      CTL2    -0.220000       12.0110           0
     12197 MEMB     111      POPE     H2X      HAL2     0.900000E-01   1.00800           0
     12198 MEMB     111      POPE     H2Y      HAL2     0.900000E-01   1.00800           0
     12199 MEMB     111      POPE     C23      CTL2    -0.180000       12.0110           0
     12200 MEMB     111      POPE     H3R      HAL2     0.900000E-01   1.00800           0
     12201 MEMB     111      POPE     H3S      HAL2     0.900000E-01   1.00800           0
     12202 MEMB     111      POPE     C24      CTL2    -0.180000       12.0110           0
     12203 MEMB     111      POPE     H4R      HAL2     0.900000E-01   1.00800           0
     12204 MEMB     111      POPE     H4S      HAL2     0.900000E-01   1.00800           0
     12205 MEMB     111      POPE     C25      CTL2    -0.180000       12.0110           0
     12206 MEMB     111      POPE     H5R      HAL2     0.900000E-01   1.00800           0
     12207 MEMB     111      POPE     H5S      HAL2     0.900000E-01   1.00800           0
     12208 MEMB     111      POPE     C26      CTL2    -0.180000       12.0110           0
     12209 MEMB     111      POPE     H6R      HAL2     0.900000E-01   1.00800           0
     12210 MEMB     111      POPE     H6S      HAL2     0.900000E-01   1.00800           0
     12211 MEMB     111      POPE     C27      CTL2    -0.180000       12.0110           0
     12212 MEMB     111      POPE     H7R      HAL2     0.900000E-01   1.00800           0
     12213 MEMB     111      POPE     H7S      HAL2     0.900000E-01   1.00800           0
     12214 MEMB     111      POPE     C28      CTL2    -0.180000       12.0110           0
     12215 MEMB     111      POPE     H8R      HAL2     0.900000E-01   1.00800           0
     12216 MEMB     111      POPE     H8S      HAL2     0.900000E-01   1.00800           0
     12217 MEMB     111      POPE     C29      CEL1    -0.150000       12.0110           0
     12218 MEMB     111      POPE     H91      HEL1     0.150000       1.00800           0
     12219 MEMB     111      POPE     C210     CEL1    -0.150000       12.0110           0
     12220 MEMB     111      POPE     H101     HEL1     0.150000       1.00800           0
     12221 MEMB     111      POPE     C211     CTL2    -0.180000       12.0110           0
     12222 MEMB     111      POPE     H11R     HAL2     0.900000E-01   1.00800           0
     12223 MEMB     111      POPE     H11S     HAL2     0.900000E-01   1.00800           0
     12224 MEMB     111      POPE     C212     CTL2    -0.180000       12.0110           0
     12225 MEMB     111      POPE     H12R     HAL2     0.900000E-01   1.00800           0
     12226 MEMB     111      POPE     H12S     HAL2     0.900000E-01   1.00800           0
     12227 MEMB     111      POPE     C213     CTL2    -0.180000       12.0110           0
     12228 MEMB     111      POPE     H13R     HAL2     0.900000E-01   1.00800           0
     12229 MEMB     111      POPE     H13S     HAL2     0.900000E-01   1.00800           0
     12230 MEMB     111      POPE     C214     CTL2    -0.180000       12.0110           0
     12231 MEMB     111      POPE     H14R     HAL2     0.900000E-01   1.00800           0
     12232 MEMB     111      POPE     H14S     HAL2     0.900000E-01   1.00800           0
     12233 MEMB     111      POPE     C215     CTL2    -0.180000       12.0110           0
     12234 MEMB     111      POPE     H15R     HAL2     0.900000E-01   1.00800           0
     12235 MEMB     111      POPE     H15S     HAL2     0.900000E-01   1.00800           0
     12236 MEMB     111      POPE     C216     CTL2    -0.180000       12.0110           0
     12237 MEMB     111      POPE     H16R     HAL2     0.900000E-01   1.00800           0
     12238 MEMB     111      POPE     H16S     HAL2     0.900000E-01   1.00800           0
     12239 MEMB     111      POPE     C217     CTL2    -0.180000       12.0110           0
     12240 MEMB     111      POPE     H17R     HAL2     0.900000E-01   1.00800           0
     12241 MEMB     111      POPE     H17S     HAL2     0.900000E-01   1.00800           0
     12242 MEMB     111      POPE     C218     CTL3    -0.270000       12.0110           0
     12243 MEMB     111      POPE     H18R     HAL3     0.900000E-01   1.00800           0
     12244 MEMB     111      POPE     H18S     HAL3     0.900000E-01   1.00800           0
     12245 MEMB     111      POPE     H18T     HAL3     0.900000E-01   1.00800           0
     12246 MEMB     111      POPE     C33      CTL2    -0.180000       12.0110           0
     12247 MEMB     111      POPE     H3X      HAL2     0.900000E-01   1.00800           0
     12248 MEMB     111      POPE     H3Y      HAL2     0.900000E-01   1.00800           0
     12249 MEMB     111      POPE     C34      CTL2    -0.180000       12.0110           0
     12250 MEMB     111      POPE     H4X      HAL2     0.900000E-01   1.00800           0
     12251 MEMB     111      POPE     H4Y      HAL2     0.900000E-01   1.00800           0
     12252 MEMB     111      POPE     C35      CTL2    -0.180000       12.0110           0
     12253 MEMB     111      POPE     H5X      HAL2     0.900000E-01   1.00800           0
     12254 MEMB     111      POPE     H5Y      HAL2     0.900000E-01   1.00800           0
     12255 MEMB     111      POPE     C36      CTL2    -0.180000       12.0110           0
     12256 MEMB     111      POPE     H6X      HAL2     0.900000E-01   1.00800           0
     12257 MEMB     111      POPE     H6Y      HAL2     0.900000E-01   1.00800           0
     12258 MEMB     111      POPE     C37      CTL2    -0.180000       12.0110           0
     12259 MEMB     111      POPE     H7X      HAL2     0.900000E-01   1.00800           0
     12260 MEMB     111      POPE     H7Y      HAL2     0.900000E-01   1.00800           0
     12261 MEMB     111      POPE     C38      CTL2    -0.180000       12.0110           0
     12262 MEMB     111      POPE     H8X      HAL2     0.900000E-01   1.00800           0
     12263 MEMB     111      POPE     H8Y      HAL2     0.900000E-01   1.00800           0
     12264 MEMB     111      POPE     C39      CTL2    -0.180000       12.0110           0
     12265 MEMB     111      POPE     H9X      HAL2     0.900000E-01   1.00800           0
     12266 MEMB     111      POPE     H9Y      HAL2     0.900000E-01   1.00800           0
     12267 MEMB     111      POPE     C310     CTL2    -0.180000       12.0110           0
     12268 MEMB     111      POPE     H10X     HAL2     0.900000E-01   1.00800           0
     12269 MEMB     111      POPE     H10Y     HAL2     0.900000E-01   1.00800           0
     12270 MEMB     111      POPE     C311     CTL2    -0.180000       12.0110           0
     12271 MEMB     111      POPE     H11X     HAL2     0.900000E-01   1.00800           0
     12272 MEMB     111      POPE     H11Y     HAL2     0.900000E-01   1.00800           0
     12273 MEMB     111      POPE     C312     CTL2    -0.180000       12.0110           0
     12274 MEMB     111      POPE     H12X     HAL2     0.900000E-01   1.00800           0
     12275 MEMB     111      POPE     H12Y     HAL2     0.900000E-01   1.00800           0
     12276 MEMB     111      POPE     C313     CTL2    -0.180000       12.0110           0
     12277 MEMB     111      POPE     H13X     HAL2     0.900000E-01   1.00800           0
     12278 MEMB     111      POPE     H13Y     HAL2     0.900000E-01   1.00800           0
     12279 MEMB     111      POPE     C314     CTL2    -0.180000       12.0110           0
     12280 MEMB     111      POPE     H14X     HAL2     0.900000E-01   1.00800           0
     12281 MEMB     111      POPE     H14Y     HAL2     0.900000E-01   1.00800           0
     12282 MEMB     111      POPE     C315     CTL2    -0.180000       12.0110           0
     12283 MEMB     111      POPE     H15X     HAL2     0.900000E-01   1.00800           0
     12284 MEMB     111      POPE     H15Y     HAL2     0.900000E-01   1.00800           0
     12285 MEMB     111      POPE     C316     CTL3    -0.270000       12.0110           0
     12286 MEMB     111      POPE     H16X     HAL3     0.900000E-01   1.00800           0
     12287 MEMB     111      POPE     H16Y     HAL3     0.900000E-01   1.00800           0
     12288 MEMB     111      POPE     H16Z     HAL3     0.900000E-01   1.00800           0
     12289 MEMB     112      POPC     N        NTL     -0.600000       14.0070           0
     12290 MEMB     112      POPC     C12      CTL2    -0.100000       12.0110           0
     12291 MEMB     112      POPC     H12A     HL       0.250000       1.00800           0
     12292 MEMB     112      POPC     H12B     HL       0.250000       1.00800           0
     12293 MEMB     112      POPC     C13      CTL5    -0.350000       12.0110           0
     12294 MEMB     112      POPC     H13A     HL       0.250000       1.00800           0
     12295 MEMB     112      POPC     H13B     HL       0.250000       1.00800           0
     12296 MEMB     112      POPC     H13C     HL       0.250000       1.00800           0
     12297 MEMB     112      POPC     C14      CTL5    -0.350000       12.0110           0
     12298 MEMB     112      POPC     H14A     HL       0.250000       1.00800           0
     12299 MEMB     112      POPC     H14B     HL       0.250000       1.00800           0
     12300 MEMB     112      POPC     H14C     HL       0.250000       1.00800           0
     12301 MEMB     112      POPC     C15      CTL5    -0.350000       12.0110           0
     12302 MEMB     112      POPC     H15A     HL       0.250000       1.00800           0
     12303 MEMB     112      POPC     H15B     HL       0.250000       1.00800           0
     12304 MEMB     112      POPC     H15C     HL       0.250000       1.00800           0
     12305 MEMB     112      POPC     C11      CTL2    -0.800000E-01   12.0110           0
     12306 MEMB     112      POPC     H11A     HAL2     0.900000E-01   1.00800           0
     12307 MEMB     112      POPC     H11B     HAL2     0.900000E-01   1.00800           0
     12308 MEMB     112      POPC     P        PL        1.50000       30.9740           0
     12309 MEMB     112      POPC     O13      O2L     -0.780000       15.9994           0
     12310 MEMB     112      POPC     O14      O2L     -0.780000       15.9994           0
     12311 MEMB     112      POPC     O12      OSLP    -0.570000       15.9994           0
     12312 MEMB     112      POPC     O11      OSLP    -0.570000       15.9994           0
     12313 MEMB     112      POPC     C1       CTL2    -0.800000E-01   12.0110           0
     12314 MEMB     112      POPC     HA       HAL2     0.900000E-01   1.00800           0
     12315 MEMB     112      POPC     HB       HAL2     0.900000E-01   1.00800           0
     12316 MEMB     112      POPC     C2       CTL1     0.170000       12.0110           0
     12317 MEMB     112      POPC     HS       HAL1     0.900000E-01   1.00800           0
     12318 MEMB     112      POPC     O21      OSL     -0.490000       15.9994           0
     12319 MEMB     112      POPC     C21      CL       0.900000       12.0110           0
     12320 MEMB     112      POPC     O22      OBL     -0.630000       15.9994           0
     12321 MEMB     112      POPC     C22      CTL2    -0.220000       12.0110           0
     12322 MEMB     112      POPC     H2R      HAL2     0.900000E-01   1.00800           0
     12323 MEMB     112      POPC     H2S      HAL2     0.900000E-01   1.00800           0
     12324 MEMB     112      POPC     C3       CTL2     0.800000E-01   12.0110           0
     12325 MEMB     112      POPC     HX       HAL2     0.900000E-01   1.00800           0
     12326 MEMB     112      POPC     HY       HAL2     0.900000E-01   1.00800           0
     12327 MEMB     112      POPC     O31      OSL     -0.490000       15.9994           0
     12328 MEMB     112      POPC     C31      CL       0.900000       12.0110           0
     12329 MEMB     112      POPC     O32      OBL     -0.630000       15.9994           0
     12330 MEMB     112      POPC     C32      CTL2    -0.220000       12.0110           0
     12331 MEMB     112      POPC     H2X      HAL2     0.900000E-01   1.00800           0
     12332 MEMB     112      POPC     H2Y      HAL2     0.900000E-01   1.00800           0
     12333 MEMB     112      POPC     C23      CTL2    -0.180000       12.0110           0
     12334 MEMB     112      POPC     H3R      HAL2     0.900000E-01   1.00800           0
     12335 MEMB     112      POPC     H3S      HAL2     0.900000E-01   1.00800           0
     12336 MEMB     112      POPC     C24      CTL2    -0.180000       12.0110           0
     12337 MEMB     112      POPC     H4R      HAL2     0.900000E-01   1.00800           0
     12338 MEMB     112      POPC     H4S      HAL2     0.900000E-01   1.00800           0
     12339 MEMB     112      POPC     C25      CTL2    -0.180000       12.0110           0
     12340 MEMB     112      POPC     H5R      HAL2     0.900000E-01   1.00800           0
     12341 MEMB     112      POPC     H5S      HAL2     0.900000E-01   1.00800           0
     12342 MEMB     112      POPC     C26      CTL2    -0.180000       12.0110           0
     12343 MEMB     112      POPC     H6R      HAL2     0.900000E-01   1.00800           0
     12344 MEMB     112      POPC     H6S      HAL2     0.900000E-01   1.00800           0
     12345 MEMB     112      POPC     C27      CTL2    -0.180000       12.0110           0
     12346 MEMB     112      POPC     H7R      HAL2     0.900000E-01   1.00800           0
     12347 MEMB     112      POPC     H7S      HAL2     0.900000E-01   1.00800           0
     12348 MEMB     112      POPC     C28      CTL2    -0.180000       12.0110           0
     12349 MEMB     112      POPC     H8R      HAL2     0.900000E-01   1.00800           0
     12350 MEMB     112      POPC     H8S      HAL2     0.900000E-01   1.00800           0
     12351 MEMB     112      POPC     C29      CEL1    -0.150000       12.0110           0
     12352 MEMB     112      POPC     H91      HEL1     0.150000       1.00800           0
     12353 MEMB     112      POPC     C210     CEL1    -0.150000       12.0110           0
     12354 MEMB     112      POPC     H101     HEL1     0.150000       1.00800           0
     12355 MEMB     112      POPC     C211     CTL2    -0.180000       12.0110           0
     12356 MEMB     112      POPC     H11R     HAL2     0.900000E-01   1.00800           0
     12357 MEMB     112      POPC     H11S     HAL2     0.900000E-01   1.00800           0
     12358 MEMB     112      POPC     C212     CTL2    -0.180000       12.0110           0
     12359 MEMB     112      POPC     H12R     HAL2     0.900000E-01   1.00800           0
     12360 MEMB     112      POPC     H12S     HAL2     0.900000E-01   1.00800           0
     12361 MEMB     112      POPC     C213     CTL2    -0.180000       12.0110           0
     12362 MEMB     112      POPC     H13R     HAL2     0.900000E-01   1.00800           0
     12363 MEMB     112      POPC     H13S     HAL2     0.900000E-01   1.00800           0
     12364 MEMB     112      POPC     C214     CTL2    -0.180000       12.0110           0
     12365 MEMB     112      POPC     H14R     HAL2     0.900000E-01   1.00800           0
     12366 MEMB     112      POPC     H14S     HAL2     0.900000E-01   1.00800           0
     12367 MEMB     112      POPC     C215     CTL2    -0.180000       12.0110           0
     12368 MEMB     112      POPC     H15R     HAL2     0.900000E-01   1.00800           0
     12369 MEMB     112      POPC     H15S     HAL2     0.900000E-01   1.00800           0
     12370 MEMB     112      POPC     C216     CTL2    -0.180000       12.0110           0
     12371 MEMB     112      POPC     H16R     HAL2     0.900000E-01   1.00800           0
     12372 MEMB     112      POPC     H16S     HAL2     0.900000E-01   1.00800           0
     12373 MEMB     112      POPC     C217     CTL2    -0.180000       12.0110           0
     12374 MEMB     112      POPC     H17R     HAL2     0.900000E-01   1.00800           0
     12375 MEMB     112      POPC     H17S     HAL2     0.900000E-01   1.00800           0
     12376 MEMB     112      POPC     C218     CTL3    -0.270000       12.0110           0
     12377 MEMB     112      POPC     H18R     HAL3     0.900000E-01   1.00800           0
     12378 MEMB     112      POPC     H18S     HAL3     0.900000E-01   1.00800           0
     12379 MEMB     112      POPC     H18T     HAL3     0.900000E-01   1.00800           0
     12380 MEMB     112      POPC     C33      CTL2    -0.180000       12.0110           0
     12381 MEMB     112      POPC     H3X      HAL2     0.900000E-01   1.00800           0
     12382 MEMB     112      POPC     H3Y      HAL2     0.900000E-01   1.00800           0
     12383 MEMB     112      POPC     C34      CTL2    -0.180000       12.0110           0
     12384 MEMB     112      POPC     H4X      HAL2     0.900000E-01   1.00800           0
     12385 MEMB     112      POPC     H4Y      HAL2     0.900000E-01   1.00800           0
     12386 MEMB     112      POPC     C35      CTL2    -0.180000       12.0110           0
     12387 MEMB     112      POPC     H5X      HAL2     0.900000E-01   1.00800           0
     12388 MEMB     112      POPC     H5Y      HAL2     0.900000E-01   1.00800           0
     12389 MEMB     112      POPC     C36      CTL2    -0.180000       12.0110           0
     12390 MEMB     112      POPC     H6X      HAL2     0.900000E-01   1.00800           0
     12391 MEMB     112      POPC     H6Y      HAL2     0.900000E-01   1.00800           0
     12392 MEMB     112      POPC     C37      CTL2    -0.180000       12.0110           0
     12393 MEMB     112      POPC     H7X      HAL2     0.900000E-01   1.00800           0
     12394 MEMB     112      POPC     H7Y      HAL2     0.900000E-01   1.00800           0
     12395 MEMB     112      POPC     C38      CTL2    -0.180000       12.0110           0
     12396 MEMB     112      POPC     H8X      HAL2     0.900000E-01   1.00800           0
     12397 MEMB     112      POPC     H8Y      HAL2     0.900000E-01   1.00800           0
     12398 MEMB     112      POPC     C39      CTL2    -0.180000       12.0110           0
     12399 MEMB     112      POPC     H9X      HAL2     0.900000E-01   1.00800           0
     12400 MEMB     112      POPC     H9Y      HAL2     0.900000E-01   1.00800           0
     12401 MEMB     112      POPC     C310     CTL2    -0.180000       12.0110           0
     12402 MEMB     112      POPC     H10X     HAL2     0.900000E-01   1.00800           0
     12403 MEMB     112      POPC     H10Y     HAL2     0.900000E-01   1.00800           0
     12404 MEMB     112      POPC     C311     CTL2    -0.180000       12.0110           0
     12405 MEMB     112      POPC     H11X     HAL2     0.900000E-01   1.00800           0
     12406 MEMB     112      POPC     H11Y     HAL2     0.900000E-01   1.00800           0
     12407 MEMB     112      POPC     C312     CTL2    -0.180000       12.0110           0
     12408 MEMB     112      POPC     H12X     HAL2     0.900000E-01   1.00800           0
     12409 MEMB     112      POPC     H12Y     HAL2     0.900000E-01   1.00800           0
     12410 MEMB     112      POPC     C313     CTL2    -0.180000       12.0110           0
     12411 MEMB     112      POPC     H13X     HAL2     0.900000E-01   1.00800           0
     12412 MEMB     112      POPC     H13Y     HAL2     0.900000E-01   1.00800           0
     12413 MEMB     112      POPC     C314     CTL2    -0.180000       12.0110           0
     12414 MEMB     112      POPC     H14X     HAL2     0.900000E-01   1.00800           0
     12415 MEMB     112      POPC     H14Y     HAL2     0.900000E-01   1.00800           0
     12416 MEMB     112      POPC     C315     CTL2    -0.180000       12.0110           0
     12417 MEMB     112      POPC     H15X     HAL2     0.900000E-01   1.00800           0
     12418 MEMB     112      POPC     H15Y     HAL2     0.900000E-01   1.00800           0
     12419 MEMB     112      POPC     C316     CTL3    -0.270000       12.0110           0
     12420 MEMB     112      POPC     H16X     HAL3     0.900000E-01   1.00800           0
     12421 MEMB     112      POPC     H16Y     HAL3     0.900000E-01   1.00800           0
     12422 MEMB     112      POPC     H16Z     HAL3     0.900000E-01   1.00800           0
     12423 MEMB     113      POPC     N        NTL     -0.600000       14.0070           0
     12424 MEMB     113      POPC     C12      CTL2    -0.100000       12.0110           0
     12425 MEMB     113      POPC     H12A     HL       0.250000       1.00800           0
     12426 MEMB     113      POPC     H12B     HL       0.250000       1.00800           0
     12427 MEMB     113      POPC     C13      CTL5    -0.350000       12.0110           0
     12428 MEMB     113      POPC     H13A     HL       0.250000       1.00800           0
     12429 MEMB     113      POPC     H13B     HL       0.250000       1.00800           0
     12430 MEMB     113      POPC     H13C     HL       0.250000       1.00800           0
     12431 MEMB     113      POPC     C14      CTL5    -0.350000       12.0110           0
     12432 MEMB     113      POPC     H14A     HL       0.250000       1.00800           0
     12433 MEMB     113      POPC     H14B     HL       0.250000       1.00800           0
     12434 MEMB     113      POPC     H14C     HL       0.250000       1.00800           0
     12435 MEMB     113      POPC     C15      CTL5    -0.350000       12.0110           0
     12436 MEMB     113      POPC     H15A     HL       0.250000       1.00800           0
     12437 MEMB     113      POPC     H15B     HL       0.250000       1.00800           0
     12438 MEMB     113      POPC     H15C     HL       0.250000       1.00800           0
     12439 MEMB     113      POPC     C11      CTL2    -0.800000E-01   12.0110           0
     12440 MEMB     113      POPC     H11A     HAL2     0.900000E-01   1.00800           0
     12441 MEMB     113      POPC     H11B     HAL2     0.900000E-01   1.00800           0
     12442 MEMB     113      POPC     P        PL        1.50000       30.9740           0
     12443 MEMB     113      POPC     O13      O2L     -0.780000       15.9994           0
     12444 MEMB     113      POPC     O14      O2L     -0.780000       15.9994           0
     12445 MEMB     113      POPC     O12      OSLP    -0.570000       15.9994           0
     12446 MEMB     113      POPC     O11      OSLP    -0.570000       15.9994           0
     12447 MEMB     113      POPC     C1       CTL2    -0.800000E-01   12.0110           0
     12448 MEMB     113      POPC     HA       HAL2     0.900000E-01   1.00800           0
     12449 MEMB     113      POPC     HB       HAL2     0.900000E-01   1.00800           0
     12450 MEMB     113      POPC     C2       CTL1     0.170000       12.0110           0
     12451 MEMB     113      POPC     HS       HAL1     0.900000E-01   1.00800           0
     12452 MEMB     113      POPC     O21      OSL     -0.490000       15.9994           0
     12453 MEMB     113      POPC     C21      CL       0.900000       12.0110           0
     12454 MEMB     113      POPC     O22      OBL     -0.630000       15.9994           0
     12455 MEMB     113      POPC     C22      CTL2    -0.220000       12.0110           0
     12456 MEMB     113      POPC     H2R      HAL2     0.900000E-01   1.00800           0
     12457 MEMB     113      POPC     H2S      HAL2     0.900000E-01   1.00800           0
     12458 MEMB     113      POPC     C3       CTL2     0.800000E-01   12.0110           0
     12459 MEMB     113      POPC     HX       HAL2     0.900000E-01   1.00800           0
     12460 MEMB     113      POPC     HY       HAL2     0.900000E-01   1.00800           0
     12461 MEMB     113      POPC     O31      OSL     -0.490000       15.9994           0
     12462 MEMB     113      POPC     C31      CL       0.900000       12.0110           0
     12463 MEMB     113      POPC     O32      OBL     -0.630000       15.9994           0
     12464 MEMB     113      POPC     C32      CTL2    -0.220000       12.0110           0
     12465 MEMB     113      POPC     H2X      HAL2     0.900000E-01   1.00800           0
     12466 MEMB     113      POPC     H2Y      HAL2     0.900000E-01   1.00800           0
     12467 MEMB     113      POPC     C23      CTL2    -0.180000       12.0110           0
     12468 MEMB     113      POPC     H3R      HAL2     0.900000E-01   1.00800           0
     12469 MEMB     113      POPC     H3S      HAL2     0.900000E-01   1.00800           0
     12470 MEMB     113      POPC     C24      CTL2    -0.180000       12.0110           0
     12471 MEMB     113      POPC     H4R      HAL2     0.900000E-01   1.00800           0
     12472 MEMB     113      POPC     H4S      HAL2     0.900000E-01   1.00800           0
     12473 MEMB     113      POPC     C25      CTL2    -0.180000       12.0110           0
     12474 MEMB     113      POPC     H5R      HAL2     0.900000E-01   1.00800           0
     12475 MEMB     113      POPC     H5S      HAL2     0.900000E-01   1.00800           0
     12476 MEMB     113      POPC     C26      CTL2    -0.180000       12.0110           0
     12477 MEMB     113      POPC     H6R      HAL2     0.900000E-01   1.00800           0
     12478 MEMB     113      POPC     H6S      HAL2     0.900000E-01   1.00800           0
     12479 MEMB     113      POPC     C27      CTL2    -0.180000       12.0110           0
     12480 MEMB     113      POPC     H7R      HAL2     0.900000E-01   1.00800           0
     12481 MEMB     113      POPC     H7S      HAL2     0.900000E-01   1.00800           0
     12482 MEMB     113      POPC     C28      CTL2    -0.180000       12.0110           0
     12483 MEMB     113      POPC     H8R      HAL2     0.900000E-01   1.00800           0
     12484 MEMB     113      POPC     H8S      HAL2     0.900000E-01   1.00800           0
     12485 MEMB     113      POPC     C29      CEL1    -0.150000       12.0110           0
     12486 MEMB     113      POPC     H91      HEL1     0.150000       1.00800           0
     12487 MEMB     113      POPC     C210     CEL1    -0.150000       12.0110           0
     12488 MEMB     113      POPC     H101     HEL1     0.150000       1.00800           0
     12489 MEMB     113      POPC     C211     CTL2    -0.180000       12.0110           0
     12490 MEMB     113      POPC     H11R     HAL2     0.900000E-01   1.00800           0
     12491 MEMB     113      POPC     H11S     HAL2     0.900000E-01   1.00800           0
     12492 MEMB     113      POPC     C212     CTL2    -0.180000       12.0110           0
     12493 MEMB     113      POPC     H12R     HAL2     0.900000E-01   1.00800           0
     12494 MEMB     113      POPC     H12S     HAL2     0.900000E-01   1.00800           0
     12495 MEMB     113      POPC     C213     CTL2    -0.180000       12.0110           0
     12496 MEMB     113      POPC     H13R     HAL2     0.900000E-01   1.00800           0
     12497 MEMB     113      POPC     H13S     HAL2     0.900000E-01   1.00800           0
     12498 MEMB     113      POPC     C214     CTL2    -0.180000       12.0110           0
     12499 MEMB     113      POPC     H14R     HAL2     0.900000E-01   1.00800           0
     12500 MEMB     113      POPC     H14S     HAL2     0.900000E-01   1.00800           0
     12501 MEMB     113      POPC     C215     CTL2    -0.180000       12.0110           0
     12502 MEMB     113      POPC     H15R     HAL2     0.900000E-01   1.00800           0
     12503 MEMB     113      POPC     H15S     HAL2     0.900000E-01   1.00800           0
     12504 MEMB     113      POPC     C216     CTL2    -0.180000       12.0110           0
     12505 MEMB     113      POPC     H16R     HAL2     0.900000E-01   1.00800           0
     12506 MEMB     113      POPC     H16S     HAL2     0.900000E-01   1.00800           0
     12507 MEMB     113      POPC     C217     CTL2    -0.180000       12.0110           0
     12508 MEMB     113      POPC     H17R     HAL2     0.900000E-01   1.00800           0
     12509 MEMB     113      POPC     H17S     HAL2     0.900000E-01   1.00800           0
     12510 MEMB     113      POPC     C218     CTL3    -0.270000       12.0110           0
     12511 MEMB     113      POPC     H18R     HAL3     0.900000E-01   1.00800           0
     12512 MEMB     113      POPC     H18S     HAL3     0.900000E-01   1.00800           0
     12513 MEMB     113      POPC     H18T     HAL3     0.900000E-01   1.00800           0
     12514 MEMB     113      POPC     C33      CTL2    -0.180000       12.0110           0
     12515 MEMB     113      POPC     H3X      HAL2     0.900000E-01   1.00800           0
     12516 MEMB     113      POPC     H3Y      HAL2     0.900000E-01   1.00800           0
     12517 MEMB     113      POPC     C34      CTL2    -0.180000       12.0110           0
     12518 MEMB     113      POPC     H4X      HAL2     0.900000E-01   1.00800           0
     12519 MEMB     113      POPC     H4Y      HAL2     0.900000E-01   1.00800           0
     12520 MEMB     113      POPC     C35      CTL2    -0.180000       12.0110           0
     12521 MEMB     113      POPC     H5X      HAL2     0.900000E-01   1.00800           0
     12522 MEMB     113      POPC     H5Y      HAL2     0.900000E-01   1.00800           0
     12523 MEMB     113      POPC     C36      CTL2    -0.180000       12.0110           0
     12524 MEMB     113      POPC     H6X      HAL2     0.900000E-01   1.00800           0
     12525 MEMB     113      POPC     H6Y      HAL2     0.900000E-01   1.00800           0
     12526 MEMB     113      POPC     C37      CTL2    -0.180000       12.0110           0
     12527 MEMB     113      POPC     H7X      HAL2     0.900000E-01   1.00800           0
     12528 MEMB     113      POPC     H7Y      HAL2     0.900000E-01   1.00800           0
     12529 MEMB     113      POPC     C38      CTL2    -0.180000       12.0110           0
     12530 MEMB     113      POPC     H8X      HAL2     0.900000E-01   1.00800           0
     12531 MEMB     113      POPC     H8Y      HAL2     0.900000E-01   1.00800           0
     12532 MEMB     113      POPC     C39      CTL2    -0.180000       12.0110           0
     12533 MEMB     113      POPC     H9X      HAL2     0.900000E-01   1.00800           0
     12534 MEMB     113      POPC     H9Y      HAL2     0.900000E-01   1.00800           0
     12535 MEMB     113      POPC     C310     CTL2    -0.180000       12.0110           0
     12536 MEMB     113      POPC     H10X     HAL2     0.900000E-01   1.00800           0
     12537 MEMB     113      POPC     H10Y     HAL2     0.900000E-01   1.00800           0
     12538 MEMB     113      POPC     C311     CTL2    -0.180000       12.0110           0
     12539 MEMB     113      POPC     H11X     HAL2     0.900000E-01   1.00800           0
     12540 MEMB     113      POPC     H11Y     HAL2     0.900000E-01   1.00800           0
     12541 MEMB     113      POPC     C312     CTL2    -0.180000       12.0110           0
     12542 MEMB     113      POPC     H12X     HAL2     0.900000E-01   1.00800           0
     12543 MEMB     113      POPC     H12Y     HAL2     0.900000E-01   1.00800           0
     12544 MEMB     113      POPC     C313     CTL2    -0.180000       12.0110           0
     12545 MEMB     113      POPC     H13X     HAL2     0.900000E-01   1.00800           0
     12546 MEMB     113      POPC     H13Y     HAL2     0.900000E-01   1.00800           0
     12547 MEMB     113      POPC     C314     CTL2    -0.180000       12.0110           0
     12548 MEMB     113      POPC     H14X     HAL2     0.900000E-01   1.00800           0
     12549 MEMB     113      POPC     H14Y     HAL2     0.900000E-01   1.00800           0
     12550 MEMB     113      POPC     C315     CTL2    -0.180000       12.0110           0
     12551 MEMB     113      POPC     H15X     HAL2     0.900000E-01   1.00800           0
     12552 MEMB     113      POPC     H15Y     HAL2     0.900000E-01   1.00800           0
     12553 MEMB     113      POPC     C316     CTL3    -0.270000       12.0110           0
     12554 MEMB     113      POPC     H16X     HAL3     0.900000E-01   1.00800           0
     12555 MEMB     113      POPC     H16Y     HAL3     0.900000E-01   1.00800           0
     12556 MEMB     113      POPC     H16Z     HAL3     0.900000E-01   1.00800           0
     12557 MEMB     114      POPC     N        NTL     -0.600000       14.0070           0
     12558 MEMB     114      POPC     C12      CTL2    -0.100000       12.0110           0
     12559 MEMB     114      POPC     H12A     HL       0.250000       1.00800           0
     12560 MEMB     114      POPC     H12B     HL       0.250000       1.00800           0
     12561 MEMB     114      POPC     C13      CTL5    -0.350000       12.0110           0
     12562 MEMB     114      POPC     H13A     HL       0.250000       1.00800           0
     12563 MEMB     114      POPC     H13B     HL       0.250000       1.00800           0
     12564 MEMB     114      POPC     H13C     HL       0.250000       1.00800           0
     12565 MEMB     114      POPC     C14      CTL5    -0.350000       12.0110           0
     12566 MEMB     114      POPC     H14A     HL       0.250000       1.00800           0
     12567 MEMB     114      POPC     H14B     HL       0.250000       1.00800           0
     12568 MEMB     114      POPC     H14C     HL       0.250000       1.00800           0
     12569 MEMB     114      POPC     C15      CTL5    -0.350000       12.0110           0
     12570 MEMB     114      POPC     H15A     HL       0.250000       1.00800           0
     12571 MEMB     114      POPC     H15B     HL       0.250000       1.00800           0
     12572 MEMB     114      POPC     H15C     HL       0.250000       1.00800           0
     12573 MEMB     114      POPC     C11      CTL2    -0.800000E-01   12.0110           0
     12574 MEMB     114      POPC     H11A     HAL2     0.900000E-01   1.00800           0
     12575 MEMB     114      POPC     H11B     HAL2     0.900000E-01   1.00800           0
     12576 MEMB     114      POPC     P        PL        1.50000       30.9740           0
     12577 MEMB     114      POPC     O13      O2L     -0.780000       15.9994           0
     12578 MEMB     114      POPC     O14      O2L     -0.780000       15.9994           0
     12579 MEMB     114      POPC     O12      OSLP    -0.570000       15.9994           0
     12580 MEMB     114      POPC     O11      OSLP    -0.570000       15.9994           0
     12581 MEMB     114      POPC     C1       CTL2    -0.800000E-01   12.0110           0
     12582 MEMB     114      POPC     HA       HAL2     0.900000E-01   1.00800           0
     12583 MEMB     114      POPC     HB       HAL2     0.900000E-01   1.00800           0
     12584 MEMB     114      POPC     C2       CTL1     0.170000       12.0110           0
     12585 MEMB     114      POPC     HS       HAL1     0.900000E-01   1.00800           0
     12586 MEMB     114      POPC     O21      OSL     -0.490000       15.9994           0
     12587 MEMB     114      POPC     C21      CL       0.900000       12.0110           0
     12588 MEMB     114      POPC     O22      OBL     -0.630000       15.9994           0
     12589 MEMB     114      POPC     C22      CTL2    -0.220000       12.0110           0
     12590 MEMB     114      POPC     H2R      HAL2     0.900000E-01   1.00800           0
     12591 MEMB     114      POPC     H2S      HAL2     0.900000E-01   1.00800           0
     12592 MEMB     114      POPC     C3       CTL2     0.800000E-01   12.0110           0
     12593 MEMB     114      POPC     HX       HAL2     0.900000E-01   1.00800           0
     12594 MEMB     114      POPC     HY       HAL2     0.900000E-01   1.00800           0
     12595 MEMB     114      POPC     O31      OSL     -0.490000       15.9994           0
     12596 MEMB     114      POPC     C31      CL       0.900000       12.0110           0
     12597 MEMB     114      POPC     O32      OBL     -0.630000       15.9994           0
     12598 MEMB     114      POPC     C32      CTL2    -0.220000       12.0110           0
     12599 MEMB     114      POPC     H2X      HAL2     0.900000E-01   1.00800           0
     12600 MEMB     114      POPC     H2Y      HAL2     0.900000E-01   1.00800           0
     12601 MEMB     114      POPC     C23      CTL2    -0.180000       12.0110           0
     12602 MEMB     114      POPC     H3R      HAL2     0.900000E-01   1.00800           0
     12603 MEMB     114      POPC     H3S      HAL2     0.900000E-01   1.00800           0
     12604 MEMB     114      POPC     C24      CTL2    -0.180000       12.0110           0
     12605 MEMB     114      POPC     H4R      HAL2     0.900000E-01   1.00800           0
     12606 MEMB     114      POPC     H4S      HAL2     0.900000E-01   1.00800           0
     12607 MEMB     114      POPC     C25      CTL2    -0.180000       12.0110           0
     12608 MEMB     114      POPC     H5R      HAL2     0.900000E-01   1.00800           0
     12609 MEMB     114      POPC     H5S      HAL2     0.900000E-01   1.00800           0
     12610 MEMB     114      POPC     C26      CTL2    -0.180000       12.0110           0
     12611 MEMB     114      POPC     H6R      HAL2     0.900000E-01   1.00800           0
     12612 MEMB     114      POPC     H6S      HAL2     0.900000E-01   1.00800           0
     12613 MEMB     114      POPC     C27      CTL2    -0.180000       12.0110           0
     12614 MEMB     114      POPC     H7R      HAL2     0.900000E-01   1.00800           0
     12615 MEMB     114      POPC     H7S      HAL2     0.900000E-01   1.00800           0
     12616 MEMB     114      POPC     C28      CTL2    -0.180000       12.0110           0
     12617 MEMB     114      POPC     H8R      HAL2     0.900000E-01   1.00800           0
     12618 MEMB     114      POPC     H8S      HAL2     0.900000E-01   1.00800           0
     12619 MEMB     114      POPC     C29      CEL1    -0.150000       12.0110           0
     12620 MEMB     114      POPC     H91      HEL1     0.150000       1.00800           0
     12621 MEMB     114      POPC     C210     CEL1    -0.150000       12.0110           0
     12622 MEMB     114      POPC     H101     HEL1     0.150000       1.00800           0
     12623 MEMB     114      POPC     C211     CTL2    -0.180000       12.0110           0
     12624 MEMB     114      POPC     H11R     HAL2     0.900000E-01   1.00800           0
     12625 MEMB     114      POPC     H11S     HAL2     0.900000E-01   1.00800           0
     12626 MEMB     114      POPC     C212     CTL2    -0.180000       12.0110           0
     12627 MEMB     114      POPC     H12R     HAL2     0.900000E-01   1.00800           0
     12628 MEMB     114      POPC     H12S     HAL2     0.900000E-01   1.00800           0
     12629 MEMB     114      POPC     C213     CTL2    -0.180000       12.0110           0
     12630 MEMB     114      POPC     H13R     HAL2     0.900000E-01   1.00800           0
     12631 MEMB     114      POPC     H13S     HAL2     0.900000E-01   1.00800           0
     12632 MEMB     114      POPC     C214     CTL2    -0.180000       12.0110           0
     12633 MEMB     114      POPC     H14R     HAL2     0.900000E-01   1.00800           0
     12634 MEMB     114      POPC     H14S     HAL2     0.900000E-01   1.00800           0
     12635 MEMB     114      POPC     C215     CTL2    -0.180000       12.0110           0
     12636 MEMB     114      POPC     H15R     HAL2     0.900000E-01   1.00800           0
     12637 MEMB     114      POPC     H15S     HAL2     0.900000E-01   1.00800           0
     12638 MEMB     114      POPC     C216     CTL2    -0.180000       12.0110           0
     12639 MEMB     114      POPC     H16R     HAL2     0.900000E-01   1.00800           0
     12640 MEMB     114      POPC     H16S     HAL2     0.900000E-01   1.00800           0
     12641 MEMB     114      POPC     C217     CTL2    -0.180000       12.0110           0
     12642 MEMB     114      POPC     H17R     HAL2     0.900000E-01   1.00800           0
     12643 MEMB     114      POPC     H17S     HAL2     0.900000E-01   1.00800           0
     12644 MEMB     114      POPC     C218     CTL3    -0.270000       12.0110           0
     12645 MEMB     114      POPC     H18R     HAL3     0.900000E-01   1.00800           0
     12646 MEMB     114      POPC     H18S     HAL3     0.900000E-01   1.00800           0
     12647 MEMB     114      POPC     H18T     HAL3     0.900000E-01   1.00800           0
     12648 MEMB     114      POPC     C33      CTL2    -0.180000       12.0110           0
     12649 MEMB     114      POPC     H3X      HAL2     0.900000E-01   1.00800           0
     12650 MEMB     114      POPC     H3Y      HAL2     0.900000E-01   1.00800           0
     12651 MEMB     114      POPC     C34      CTL2    -0.180000       12.0110           0
     12652 MEMB     114      POPC     H4X      HAL2     0.900000E-01   1.00800           0
     12653 MEMB     114      POPC     H4Y      HAL2     0.900000E-01   1.00800           0
     12654 MEMB     114      POPC     C35      CTL2    -0.180000       12.0110           0
     12655 MEMB     114      POPC     H5X      HAL2     0.900000E-01   1.00800           0
     12656 MEMB     114      POPC     H5Y      HAL2     0.900000E-01   1.00800           0
     12657 MEMB     114      POPC     C36      CTL2    -0.180000       12.0110           0
     12658 MEMB     114      POPC     H6X      HAL2     0.900000E-01   1.00800           0
     12659 MEMB     114      POPC     H6Y      HAL2     0.900000E-01   1.00800           0
     12660 MEMB     114      POPC     C37      CTL2    -0.180000       12.0110           0
     12661 MEMB     114      POPC     H7X      HAL2     0.900000E-01   1.00800           0
     12662 MEMB     114      POPC     H7Y      HAL2     0.900000E-01   1.00800           0
     12663 MEMB     114      POPC     C38      CTL2    -0.180000       12.0110           0
     12664 MEMB     114      POPC     H8X      HAL2     0.900000E-01   1.00800           0
     12665 MEMB     114      POPC     H8Y      HAL2     0.900000E-01   1.00800           0
     12666 MEMB     114      POPC     C39      CTL2    -0.180000       12.0110           0
     12667 MEMB     114      POPC     H9X      HAL2     0.900000E-01   1.00800           0
     12668 MEMB     114      POPC     H9Y      HAL2     0.900000E-01   1.00800           0
     12669 MEMB     114      POPC     C310     CTL2    -0.180000       12.0110           0
     12670 MEMB     114      POPC     H10X     HAL2     0.900000E-01   1.00800           0
     12671 MEMB     114      POPC     H10Y     HAL2     0.900000E-01   1.00800           0
     12672 MEMB     114      POPC     C311     CTL2    -0.180000       12.0110           0
     12673 MEMB     114      POPC     H11X     HAL2     0.900000E-01   1.00800           0
     12674 MEMB     114      POPC     H11Y     HAL2     0.900000E-01   1.00800           0
     12675 MEMB     114      POPC     C312     CTL2    -0.180000       12.0110           0
     12676 MEMB     114      POPC     H12X     HAL2     0.900000E-01   1.00800           0
     12677 MEMB     114      POPC     H12Y     HAL2     0.900000E-01   1.00800           0
     12678 MEMB     114      POPC     C313     CTL2    -0.180000       12.0110           0
     12679 MEMB     114      POPC     H13X     HAL2     0.900000E-01   1.00800           0
     12680 MEMB     114      POPC     H13Y     HAL2     0.900000E-01   1.00800           0
     12681 MEMB     114      POPC     C314     CTL2    -0.180000       12.0110           0
     12682 MEMB     114      POPC     H14X     HAL2     0.900000E-01   1.00800           0
     12683 MEMB     114      POPC     H14Y     HAL2     0.900000E-01   1.00800           0
     12684 MEMB     114      POPC     C315     CTL2    -0.180000       12.0110           0
     12685 MEMB     114      POPC     H15X     HAL2     0.900000E-01   1.00800           0
     12686 MEMB     114      POPC     H15Y     HAL2     0.900000E-01   1.00800           0
     12687 MEMB     114      POPC     C316     CTL3    -0.270000       12.0110           0
     12688 MEMB     114      POPC     H16X     HAL3     0.900000E-01   1.00800           0
     12689 MEMB     114      POPC     H16Y     HAL3     0.900000E-01   1.00800           0
     12690 MEMB     114      POPC     H16Z     HAL3     0.900000E-01   1.00800           0
     12691 MEMB     115      POPE     N        NH3L    -0.300000       14.0070           0
     12692 MEMB     115      POPE     HN1      HCL      0.330000       1.00800           0
     12693 MEMB     115      POPE     HN2      HCL      0.330000       1.00800           0
     12694 MEMB     115      POPE     HN3      HCL      0.330000       1.00800           0
     12695 MEMB     115      POPE     C12      CTL2     0.130000       12.0110           0
     12696 MEMB     115      POPE     H12A     HAL2     0.900000E-01   1.00800           0
     12697 MEMB     115      POPE     H12B     HAL2     0.900000E-01   1.00800           0
     12698 MEMB     115      POPE     C11      CTL2    -0.800000E-01   12.0110           0
     12699 MEMB     115      POPE     H11A     HAL2     0.900000E-01   1.00800           0
     12700 MEMB     115      POPE     H11B     HAL2     0.900000E-01   1.00800           0
     12701 MEMB     115      POPE     P        PL        1.50000       30.9740           0
     12702 MEMB     115      POPE     O13      O2L     -0.780000       15.9994           0
     12703 MEMB     115      POPE     O14      O2L     -0.780000       15.9994           0
     12704 MEMB     115      POPE     O11      OSLP    -0.570000       15.9994           0
     12705 MEMB     115      POPE     O12      OSLP    -0.570000       15.9994           0
     12706 MEMB     115      POPE     C1       CTL2    -0.800000E-01   12.0110           0
     12707 MEMB     115      POPE     HA       HAL2     0.900000E-01   1.00800           0
     12708 MEMB     115      POPE     HB       HAL2     0.900000E-01   1.00800           0
     12709 MEMB     115      POPE     C2       CTL1     0.170000       12.0110           0
     12710 MEMB     115      POPE     HS       HAL1     0.900000E-01   1.00800           0
     12711 MEMB     115      POPE     O21      OSL     -0.490000       15.9994           0
     12712 MEMB     115      POPE     C21      CL       0.900000       12.0110           0
     12713 MEMB     115      POPE     O22      OBL     -0.630000       15.9994           0
     12714 MEMB     115      POPE     C22      CTL2    -0.220000       12.0110           0
     12715 MEMB     115      POPE     H2R      HAL2     0.900000E-01   1.00800           0
     12716 MEMB     115      POPE     H2S      HAL2     0.900000E-01   1.00800           0
     12717 MEMB     115      POPE     C3       CTL2     0.800000E-01   12.0110           0
     12718 MEMB     115      POPE     HX       HAL2     0.900000E-01   1.00800           0
     12719 MEMB     115      POPE     HY       HAL2     0.900000E-01   1.00800           0
     12720 MEMB     115      POPE     O31      OSL     -0.490000       15.9994           0
     12721 MEMB     115      POPE     C31      CL       0.900000       12.0110           0
     12722 MEMB     115      POPE     O32      OBL     -0.630000       15.9994           0
     12723 MEMB     115      POPE     C32      CTL2    -0.220000       12.0110           0
     12724 MEMB     115      POPE     H2X      HAL2     0.900000E-01   1.00800           0
     12725 MEMB     115      POPE     H2Y      HAL2     0.900000E-01   1.00800           0
     12726 MEMB     115      POPE     C23      CTL2    -0.180000       12.0110           0
     12727 MEMB     115      POPE     H3R      HAL2     0.900000E-01   1.00800           0
     12728 MEMB     115      POPE     H3S      HAL2     0.900000E-01   1.00800           0
     12729 MEMB     115      POPE     C24      CTL2    -0.180000       12.0110           0
     12730 MEMB     115      POPE     H4R      HAL2     0.900000E-01   1.00800           0
     12731 MEMB     115      POPE     H4S      HAL2     0.900000E-01   1.00800           0
     12732 MEMB     115      POPE     C25      CTL2    -0.180000       12.0110           0
     12733 MEMB     115      POPE     H5R      HAL2     0.900000E-01   1.00800           0
     12734 MEMB     115      POPE     H5S      HAL2     0.900000E-01   1.00800           0
     12735 MEMB     115      POPE     C26      CTL2    -0.180000       12.0110           0
     12736 MEMB     115      POPE     H6R      HAL2     0.900000E-01   1.00800           0
     12737 MEMB     115      POPE     H6S      HAL2     0.900000E-01   1.00800           0
     12738 MEMB     115      POPE     C27      CTL2    -0.180000       12.0110           0
     12739 MEMB     115      POPE     H7R      HAL2     0.900000E-01   1.00800           0
     12740 MEMB     115      POPE     H7S      HAL2     0.900000E-01   1.00800           0
     12741 MEMB     115      POPE     C28      CTL2    -0.180000       12.0110           0
     12742 MEMB     115      POPE     H8R      HAL2     0.900000E-01   1.00800           0
     12743 MEMB     115      POPE     H8S      HAL2     0.900000E-01   1.00800           0
     12744 MEMB     115      POPE     C29      CEL1    -0.150000       12.0110           0
     12745 MEMB     115      POPE     H91      HEL1     0.150000       1.00800           0
     12746 MEMB     115      POPE     C210     CEL1    -0.150000       12.0110           0
     12747 MEMB     115      POPE     H101     HEL1     0.150000       1.00800           0
     12748 MEMB     115      POPE     C211     CTL2    -0.180000       12.0110           0
     12749 MEMB     115      POPE     H11R     HAL2     0.900000E-01   1.00800           0
     12750 MEMB     115      POPE     H11S     HAL2     0.900000E-01   1.00800           0
     12751 MEMB     115      POPE     C212     CTL2    -0.180000       12.0110           0
     12752 MEMB     115      POPE     H12R     HAL2     0.900000E-01   1.00800           0
     12753 MEMB     115      POPE     H12S     HAL2     0.900000E-01   1.00800           0
     12754 MEMB     115      POPE     C213     CTL2    -0.180000       12.0110           0
     12755 MEMB     115      POPE     H13R     HAL2     0.900000E-01   1.00800           0
     12756 MEMB     115      POPE     H13S     HAL2     0.900000E-01   1.00800           0
     12757 MEMB     115      POPE     C214     CTL2    -0.180000       12.0110           0
     12758 MEMB     115      POPE     H14R     HAL2     0.900000E-01   1.00800           0
     12759 MEMB     115      POPE     H14S     HAL2     0.900000E-01   1.00800           0
     12760 MEMB     115      POPE     C215     CTL2    -0.180000       12.0110           0
     12761 MEMB     115      POPE     H15R     HAL2     0.900000E-01   1.00800           0
     12762 MEMB     115      POPE     H15S     HAL2     0.900000E-01   1.00800           0
     12763 MEMB     115      POPE     C216     CTL2    -0.180000       12.0110           0
     12764 MEMB     115      POPE     H16R     HAL2     0.900000E-01   1.00800           0
     12765 MEMB     115      POPE     H16S     HAL2     0.900000E-01   1.00800           0
     12766 MEMB     115      POPE     C217     CTL2    -0.180000       12.0110           0
     12767 MEMB     115      POPE     H17R     HAL2     0.900000E-01   1.00800           0
     12768 MEMB     115      POPE     H17S     HAL2     0.900000E-01   1.00800           0
     12769 MEMB     115      POPE     C218     CTL3    -0.270000       12.0110           0
     12770 MEMB     115      POPE     H18R     HAL3     0.900000E-01   1.00800           0
     12771 MEMB     115      POPE     H18S     HAL3     0.900000E-01   1.00800           0
     12772 MEMB     115      POPE     H18T     HAL3     0.900000E-01   1.00800           0
     12773 MEMB     115      POPE     C33      CTL2    -0.180000       12.0110           0
     12774 MEMB     115      POPE     H3X      HAL2     0.900000E-01   1.00800           0
     12775 MEMB     115      POPE     H3Y      HAL2     0.900000E-01   1.00800           0
     12776 MEMB     115      POPE     C34      CTL2    -0.180000       12.0110           0
     12777 MEMB     115      POPE     H4X      HAL2     0.900000E-01   1.00800           0
     12778 MEMB     115      POPE     H4Y      HAL2     0.900000E-01   1.00800           0
     12779 MEMB     115      POPE     C35      CTL2    -0.180000       12.0110           0
     12780 MEMB     115      POPE     H5X      HAL2     0.900000E-01   1.00800           0
     12781 MEMB     115      POPE     H5Y      HAL2     0.900000E-01   1.00800           0
     12782 MEMB     115      POPE     C36      CTL2    -0.180000       12.0110           0
     12783 MEMB     115      POPE     H6X      HAL2     0.900000E-01   1.00800           0
     12784 MEMB     115      POPE     H6Y      HAL2     0.900000E-01   1.00800           0
     12785 MEMB     115      POPE     C37      CTL2    -0.180000       12.0110           0
     12786 MEMB     115      POPE     H7X      HAL2     0.900000E-01   1.00800           0
     12787 MEMB     115      POPE     H7Y      HAL2     0.900000E-01   1.00800           0
     12788 MEMB     115      POPE     C38      CTL2    -0.180000       12.0110           0
     12789 MEMB     115      POPE     H8X      HAL2     0.900000E-01   1.00800           0
     12790 MEMB     115      POPE     H8Y      HAL2     0.900000E-01   1.00800           0
     12791 MEMB     115      POPE     C39      CTL2    -0.180000       12.0110           0
     12792 MEMB     115      POPE     H9X      HAL2     0.900000E-01   1.00800           0
     12793 MEMB     115      POPE     H9Y      HAL2     0.900000E-01   1.00800           0
     12794 MEMB     115      POPE     C310     CTL2    -0.180000       12.0110           0
     12795 MEMB     115      POPE     H10X     HAL2     0.900000E-01   1.00800           0
     12796 MEMB     115      POPE     H10Y     HAL2     0.900000E-01   1.00800           0
     12797 MEMB     115      POPE     C311     CTL2    -0.180000       12.0110           0
     12798 MEMB     115      POPE     H11X     HAL2     0.900000E-01   1.00800           0
     12799 MEMB     115      POPE     H11Y     HAL2     0.900000E-01   1.00800           0
     12800 MEMB     115      POPE     C312     CTL2    -0.180000       12.0110           0
     12801 MEMB     115      POPE     H12X     HAL2     0.900000E-01   1.00800           0
     12802 MEMB     115      POPE     H12Y     HAL2     0.900000E-01   1.00800           0
     12803 MEMB     115      POPE     C313     CTL2    -0.180000       12.0110           0
     12804 MEMB     115      POPE     H13X     HAL2     0.900000E-01   1.00800           0
     12805 MEMB     115      POPE     H13Y     HAL2     0.900000E-01   1.00800           0
     12806 MEMB     115      POPE     C314     CTL2    -0.180000       12.0110           0
     12807 MEMB     115      POPE     H14X     HAL2     0.900000E-01   1.00800           0
     12808 MEMB     115      POPE     H14Y     HAL2     0.900000E-01   1.00800           0
     12809 MEMB     115      POPE     C315     CTL2    -0.180000       12.0110           0
     12810 MEMB     115      POPE     H15X     HAL2     0.900000E-01   1.00800           0
     12811 MEMB     115      POPE     H15Y     HAL2     0.900000E-01   1.00800           0
     12812 MEMB     115      POPE     C316     CTL3    -0.270000       12.0110           0
     12813 MEMB     115      POPE     H16X     HAL3     0.900000E-01   1.00800           0
     12814 MEMB     115      POPE     H16Y     HAL3     0.900000E-01   1.00800           0
     12815 MEMB     115      POPE     H16Z     HAL3     0.900000E-01   1.00800           0
     12816 MEMB     116      POPC     N        NTL     -0.600000       14.0070           0
     12817 MEMB     116      POPC     C12      CTL2    -0.100000       12.0110           0
     12818 MEMB     116      POPC     H12A     HL       0.250000       1.00800           0
     12819 MEMB     116      POPC     H12B     HL       0.250000       1.00800           0
     12820 MEMB     116      POPC     C13      CTL5    -0.350000       12.0110           0
     12821 MEMB     116      POPC     H13A     HL       0.250000       1.00800           0
     12822 MEMB     116      POPC     H13B     HL       0.250000       1.00800           0
     12823 MEMB     116      POPC     H13C     HL       0.250000       1.00800           0
     12824 MEMB     116      POPC     C14      CTL5    -0.350000       12.0110           0
     12825 MEMB     116      POPC     H14A     HL       0.250000       1.00800           0
     12826 MEMB     116      POPC     H14B     HL       0.250000       1.00800           0
     12827 MEMB     116      POPC     H14C     HL       0.250000       1.00800           0
     12828 MEMB     116      POPC     C15      CTL5    -0.350000       12.0110           0
     12829 MEMB     116      POPC     H15A     HL       0.250000       1.00800           0
     12830 MEMB     116      POPC     H15B     HL       0.250000       1.00800           0
     12831 MEMB     116      POPC     H15C     HL       0.250000       1.00800           0
     12832 MEMB     116      POPC     C11      CTL2    -0.800000E-01   12.0110           0
     12833 MEMB     116      POPC     H11A     HAL2     0.900000E-01   1.00800           0
     12834 MEMB     116      POPC     H11B     HAL2     0.900000E-01   1.00800           0
     12835 MEMB     116      POPC     P        PL        1.50000       30.9740           0
     12836 MEMB     116      POPC     O13      O2L     -0.780000       15.9994           0
     12837 MEMB     116      POPC     O14      O2L     -0.780000       15.9994           0
     12838 MEMB     116      POPC     O12      OSLP    -0.570000       15.9994           0
     12839 MEMB     116      POPC     O11      OSLP    -0.570000       15.9994           0
     12840 MEMB     116      POPC     C1       CTL2    -0.800000E-01   12.0110           0
     12841 MEMB     116      POPC     HA       HAL2     0.900000E-01   1.00800           0
     12842 MEMB     116      POPC     HB       HAL2     0.900000E-01   1.00800           0
     12843 MEMB     116      POPC     C2       CTL1     0.170000       12.0110           0
     12844 MEMB     116      POPC     HS       HAL1     0.900000E-01   1.00800           0
     12845 MEMB     116      POPC     O21      OSL     -0.490000       15.9994           0
     12846 MEMB     116      POPC     C21      CL       0.900000       12.0110           0
     12847 MEMB     116      POPC     O22      OBL     -0.630000       15.9994           0
     12848 MEMB     116      POPC     C22      CTL2    -0.220000       12.0110           0
     12849 MEMB     116      POPC     H2R      HAL2     0.900000E-01   1.00800           0
     12850 MEMB     116      POPC     H2S      HAL2     0.900000E-01   1.00800           0
     12851 MEMB     116      POPC     C3       CTL2     0.800000E-01   12.0110           0
     12852 MEMB     116      POPC     HX       HAL2     0.900000E-01   1.00800           0
     12853 MEMB     116      POPC     HY       HAL2     0.900000E-01   1.00800           0
     12854 MEMB     116      POPC     O31      OSL     -0.490000       15.9994           0
     12855 MEMB     116      POPC     C31      CL       0.900000       12.0110           0
     12856 MEMB     116      POPC     O32      OBL     -0.630000       15.9994           0
     12857 MEMB     116      POPC     C32      CTL2    -0.220000       12.0110           0
     12858 MEMB     116      POPC     H2X      HAL2     0.900000E-01   1.00800           0
     12859 MEMB     116      POPC     H2Y      HAL2     0.900000E-01   1.00800           0
     12860 MEMB     116      POPC     C23      CTL2    -0.180000       12.0110           0
     12861 MEMB     116      POPC     H3R      HAL2     0.900000E-01   1.00800           0
     12862 MEMB     116      POPC     H3S      HAL2     0.900000E-01   1.00800           0
     12863 MEMB     116      POPC     C24      CTL2    -0.180000       12.0110           0
     12864 MEMB     116      POPC     H4R      HAL2     0.900000E-01   1.00800           0
     12865 MEMB     116      POPC     H4S      HAL2     0.900000E-01   1.00800           0
     12866 MEMB     116      POPC     C25      CTL2    -0.180000       12.0110           0
     12867 MEMB     116      POPC     H5R      HAL2     0.900000E-01   1.00800           0
     12868 MEMB     116      POPC     H5S      HAL2     0.900000E-01   1.00800           0
     12869 MEMB     116      POPC     C26      CTL2    -0.180000       12.0110           0
     12870 MEMB     116      POPC     H6R      HAL2     0.900000E-01   1.00800           0
     12871 MEMB     116      POPC     H6S      HAL2     0.900000E-01   1.00800           0
     12872 MEMB     116      POPC     C27      CTL2    -0.180000       12.0110           0
     12873 MEMB     116      POPC     H7R      HAL2     0.900000E-01   1.00800           0
     12874 MEMB     116      POPC     H7S      HAL2     0.900000E-01   1.00800           0
     12875 MEMB     116      POPC     C28      CTL2    -0.180000       12.0110           0
     12876 MEMB     116      POPC     H8R      HAL2     0.900000E-01   1.00800           0
     12877 MEMB     116      POPC     H8S      HAL2     0.900000E-01   1.00800           0
     12878 MEMB     116      POPC     C29      CEL1    -0.150000       12.0110           0
     12879 MEMB     116      POPC     H91      HEL1     0.150000       1.00800           0
     12880 MEMB     116      POPC     C210     CEL1    -0.150000       12.0110           0
     12881 MEMB     116      POPC     H101     HEL1     0.150000       1.00800           0
     12882 MEMB     116      POPC     C211     CTL2    -0.180000       12.0110           0
     12883 MEMB     116      POPC     H11R     HAL2     0.900000E-01   1.00800           0
     12884 MEMB     116      POPC     H11S     HAL2     0.900000E-01   1.00800           0
     12885 MEMB     116      POPC     C212     CTL2    -0.180000       12.0110           0
     12886 MEMB     116      POPC     H12R     HAL2     0.900000E-01   1.00800           0
     12887 MEMB     116      POPC     H12S     HAL2     0.900000E-01   1.00800           0
     12888 MEMB     116      POPC     C213     CTL2    -0.180000       12.0110           0
     12889 MEMB     116      POPC     H13R     HAL2     0.900000E-01   1.00800           0
     12890 MEMB     116      POPC     H13S     HAL2     0.900000E-01   1.00800           0
     12891 MEMB     116      POPC     C214     CTL2    -0.180000       12.0110           0
     12892 MEMB     116      POPC     H14R     HAL2     0.900000E-01   1.00800           0
     12893 MEMB     116      POPC     H14S     HAL2     0.900000E-01   1.00800           0
     12894 MEMB     116      POPC     C215     CTL2    -0.180000       12.0110           0
     12895 MEMB     116      POPC     H15R     HAL2     0.900000E-01   1.00800           0
     12896 MEMB     116      POPC     H15S     HAL2     0.900000E-01   1.00800           0
     12897 MEMB     116      POPC     C216     CTL2    -0.180000       12.0110           0
     12898 MEMB     116      POPC     H16R     HAL2     0.900000E-01   1.00800           0
     12899 MEMB     116      POPC     H16S     HAL2     0.900000E-01   1.00800           0
     12900 MEMB     116      POPC     C217     CTL2    -0.180000       12.0110           0
     12901 MEMB     116      POPC     H17R     HAL2     0.900000E-01   1.00800           0
     12902 MEMB     116      POPC     H17S     HAL2     0.900000E-01   1.00800           0
     12903 MEMB     116      POPC     C218     CTL3    -0.270000       12.0110           0
     12904 MEMB     116      POPC     H18R     HAL3     0.900000E-01   1.00800           0
     12905 MEMB     116      POPC     H18S     HAL3     0.900000E-01   1.00800           0
     12906 MEMB     116      POPC     H18T     HAL3     0.900000E-01   1.00800           0
     12907 MEMB     116      POPC     C33      CTL2    -0.180000       12.0110           0
     12908 MEMB     116      POPC     H3X      HAL2     0.900000E-01   1.00800           0
     12909 MEMB     116      POPC     H3Y      HAL2     0.900000E-01   1.00800           0
     12910 MEMB     116      POPC     C34      CTL2    -0.180000       12.0110           0
     12911 MEMB     116      POPC     H4X      HAL2     0.900000E-01   1.00800           0
     12912 MEMB     116      POPC     H4Y      HAL2     0.900000E-01   1.00800           0
     12913 MEMB     116      POPC     C35      CTL2    -0.180000       12.0110           0
     12914 MEMB     116      POPC     H5X      HAL2     0.900000E-01   1.00800           0
     12915 MEMB     116      POPC     H5Y      HAL2     0.900000E-01   1.00800           0
     12916 MEMB     116      POPC     C36      CTL2    -0.180000       12.0110           0
     12917 MEMB     116      POPC     H6X      HAL2     0.900000E-01   1.00800           0
     12918 MEMB     116      POPC     H6Y      HAL2     0.900000E-01   1.00800           0
     12919 MEMB     116      POPC     C37      CTL2    -0.180000       12.0110           0
     12920 MEMB     116      POPC     H7X      HAL2     0.900000E-01   1.00800           0
     12921 MEMB     116      POPC     H7Y      HAL2     0.900000E-01   1.00800           0
     12922 MEMB     116      POPC     C38      CTL2    -0.180000       12.0110           0
     12923 MEMB     116      POPC     H8X      HAL2     0.900000E-01   1.00800           0
     12924 MEMB     116      POPC     H8Y      HAL2     0.900000E-01   1.00800           0
     12925 MEMB     116      POPC     C39      CTL2    -0.180000       12.0110           0
     12926 MEMB     116      POPC     H9X      HAL2     0.900000E-01   1.00800           0
     12927 MEMB     116      POPC     H9Y      HAL2     0.900000E-01   1.00800           0
     12928 MEMB     116      POPC     C310     CTL2    -0.180000       12.0110           0
     12929 MEMB     116      POPC     H10X     HAL2     0.900000E-01   1.00800           0
     12930 MEMB     116      POPC     H10Y     HAL2     0.900000E-01   1.00800           0
     12931 MEMB     116      POPC     C311     CTL2    -0.180000       12.0110           0
     12932 MEMB     116      POPC     H11X     HAL2     0.900000E-01   1.00800           0
     12933 MEMB     116      POPC     H11Y     HAL2     0.900000E-01   1.00800           0
     12934 MEMB     116      POPC     C312     CTL2    -0.180000       12.0110           0
     12935 MEMB     116      POPC     H12X     HAL2     0.900000E-01   1.00800           0
     12936 MEMB     116      POPC     H12Y     HAL2     0.900000E-01   1.00800           0
     12937 MEMB     116      POPC     C313     CTL2    -0.180000       12.0110           0
     12938 MEMB     116      POPC     H13X     HAL2     0.900000E-01   1.00800           0
     12939 MEMB     116      POPC     H13Y     HAL2     0.900000E-01   1.00800           0
     12940 MEMB     116      POPC     C314     CTL2    -0.180000       12.0110           0
     12941 MEMB     116      POPC     H14X     HAL2     0.900000E-01   1.00800           0
     12942 MEMB     116      POPC     H14Y     HAL2     0.900000E-01   1.00800           0
     12943 MEMB     116      POPC     C315     CTL2    -0.180000       12.0110           0
     12944 MEMB     116      POPC     H15X     HAL2     0.900000E-01   1.00800           0
     12945 MEMB     116      POPC     H15Y     HAL2     0.900000E-01   1.00800           0
     12946 MEMB     116      POPC     C316     CTL3    -0.270000       12.0110           0
     12947 MEMB     116      POPC     H16X     HAL3     0.900000E-01   1.00800           0
     12948 MEMB     116      POPC     H16Y     HAL3     0.900000E-01   1.00800           0
     12949 MEMB     116      POPC     H16Z     HAL3     0.900000E-01   1.00800           0
     12950 MEMB     117      POPE     N        NH3L    -0.300000       14.0070           0
     12951 MEMB     117      POPE     HN1      HCL      0.330000       1.00800           0
     12952 MEMB     117      POPE     HN2      HCL      0.330000       1.00800           0
     12953 MEMB     117      POPE     HN3      HCL      0.330000       1.00800           0
     12954 MEMB     117      POPE     C12      CTL2     0.130000       12.0110           0
     12955 MEMB     117      POPE     H12A     HAL2     0.900000E-01   1.00800           0
     12956 MEMB     117      POPE     H12B     HAL2     0.900000E-01   1.00800           0
     12957 MEMB     117      POPE     C11      CTL2    -0.800000E-01   12.0110           0
     12958 MEMB     117      POPE     H11A     HAL2     0.900000E-01   1.00800           0
     12959 MEMB     117      POPE     H11B     HAL2     0.900000E-01   1.00800           0
     12960 MEMB     117      POPE     P        PL        1.50000       30.9740           0
     12961 MEMB     117      POPE     O13      O2L     -0.780000       15.9994           0
     12962 MEMB     117      POPE     O14      O2L     -0.780000       15.9994           0
     12963 MEMB     117      POPE     O11      OSLP    -0.570000       15.9994           0
     12964 MEMB     117      POPE     O12      OSLP    -0.570000       15.9994           0
     12965 MEMB     117      POPE     C1       CTL2    -0.800000E-01   12.0110           0
     12966 MEMB     117      POPE     HA       HAL2     0.900000E-01   1.00800           0
     12967 MEMB     117      POPE     HB       HAL2     0.900000E-01   1.00800           0
     12968 MEMB     117      POPE     C2       CTL1     0.170000       12.0110           0
     12969 MEMB     117      POPE     HS       HAL1     0.900000E-01   1.00800           0
     12970 MEMB     117      POPE     O21      OSL     -0.490000       15.9994           0
     12971 MEMB     117      POPE     C21      CL       0.900000       12.0110           0
     12972 MEMB     117      POPE     O22      OBL     -0.630000       15.9994           0
     12973 MEMB     117      POPE     C22      CTL2    -0.220000       12.0110           0
     12974 MEMB     117      POPE     H2R      HAL2     0.900000E-01   1.00800           0
     12975 MEMB     117      POPE     H2S      HAL2     0.900000E-01   1.00800           0
     12976 MEMB     117      POPE     C3       CTL2     0.800000E-01   12.0110           0
     12977 MEMB     117      POPE     HX       HAL2     0.900000E-01   1.00800           0
     12978 MEMB     117      POPE     HY       HAL2     0.900000E-01   1.00800           0
     12979 MEMB     117      POPE     O31      OSL     -0.490000       15.9994           0
     12980 MEMB     117      POPE     C31      CL       0.900000       12.0110           0
     12981 MEMB     117      POPE     O32      OBL     -0.630000       15.9994           0
     12982 MEMB     117      POPE     C32      CTL2    -0.220000       12.0110           0
     12983 MEMB     117      POPE     H2X      HAL2     0.900000E-01   1.00800           0
     12984 MEMB     117      POPE     H2Y      HAL2     0.900000E-01   1.00800           0
     12985 MEMB     117      POPE     C23      CTL2    -0.180000       12.0110           0
     12986 MEMB     117      POPE     H3R      HAL2     0.900000E-01   1.00800           0
     12987 MEMB     117      POPE     H3S      HAL2     0.900000E-01   1.00800           0
     12988 MEMB     117      POPE     C24      CTL2    -0.180000       12.0110           0
     12989 MEMB     117      POPE     H4R      HAL2     0.900000E-01   1.00800           0
     12990 MEMB     117      POPE     H4S      HAL2     0.900000E-01   1.00800           0
     12991 MEMB     117      POPE     C25      CTL2    -0.180000       12.0110           0
     12992 MEMB     117      POPE     H5R      HAL2     0.900000E-01   1.00800           0
     12993 MEMB     117      POPE     H5S      HAL2     0.900000E-01   1.00800           0
     12994 MEMB     117      POPE     C26      CTL2    -0.180000       12.0110           0
     12995 MEMB     117      POPE     H6R      HAL2     0.900000E-01   1.00800           0
     12996 MEMB     117      POPE     H6S      HAL2     0.900000E-01   1.00800           0
     12997 MEMB     117      POPE     C27      CTL2    -0.180000       12.0110           0
     12998 MEMB     117      POPE     H7R      HAL2     0.900000E-01   1.00800           0
     12999 MEMB     117      POPE     H7S      HAL2     0.900000E-01   1.00800           0
     13000 MEMB     117      POPE     C28      CTL2    -0.180000       12.0110           0
     13001 MEMB     117      POPE     H8R      HAL2     0.900000E-01   1.00800           0
     13002 MEMB     117      POPE     H8S      HAL2     0.900000E-01   1.00800           0
     13003 MEMB     117      POPE     C29      CEL1    -0.150000       12.0110           0
     13004 MEMB     117      POPE     H91      HEL1     0.150000       1.00800           0
     13005 MEMB     117      POPE     C210     CEL1    -0.150000       12.0110           0
     13006 MEMB     117      POPE     H101     HEL1     0.150000       1.00800           0
     13007 MEMB     117      POPE     C211     CTL2    -0.180000       12.0110           0
     13008 MEMB     117      POPE     H11R     HAL2     0.900000E-01   1.00800           0
     13009 MEMB     117      POPE     H11S     HAL2     0.900000E-01   1.00800           0
     13010 MEMB     117      POPE     C212     CTL2    -0.180000       12.0110           0
     13011 MEMB     117      POPE     H12R     HAL2     0.900000E-01   1.00800           0
     13012 MEMB     117      POPE     H12S     HAL2     0.900000E-01   1.00800           0
     13013 MEMB     117      POPE     C213     CTL2    -0.180000       12.0110           0
     13014 MEMB     117      POPE     H13R     HAL2     0.900000E-01   1.00800           0
     13015 MEMB     117      POPE     H13S     HAL2     0.900000E-01   1.00800           0
     13016 MEMB     117      POPE     C214     CTL2    -0.180000       12.0110           0
     13017 MEMB     117      POPE     H14R     HAL2     0.900000E-01   1.00800           0
     13018 MEMB     117      POPE     H14S     HAL2     0.900000E-01   1.00800           0
     13019 MEMB     117      POPE     C215     CTL2    -0.180000       12.0110           0
     13020 MEMB     117      POPE     H15R     HAL2     0.900000E-01   1.00800           0
     13021 MEMB     117      POPE     H15S     HAL2     0.900000E-01   1.00800           0
     13022 MEMB     117      POPE     C216     CTL2    -0.180000       12.0110           0
     13023 MEMB     117      POPE     H16R     HAL2     0.900000E-01   1.00800           0
     13024 MEMB     117      POPE     H16S     HAL2     0.900000E-01   1.00800           0
     13025 MEMB     117      POPE     C217     CTL2    -0.180000       12.0110           0
     13026 MEMB     117      POPE     H17R     HAL2     0.900000E-01   1.00800           0
     13027 MEMB     117      POPE     H17S     HAL2     0.900000E-01   1.00800           0
     13028 MEMB     117      POPE     C218     CTL3    -0.270000       12.0110           0
     13029 MEMB     117      POPE     H18R     HAL3     0.900000E-01   1.00800           0
     13030 MEMB     117      POPE     H18S     HAL3     0.900000E-01   1.00800           0
     13031 MEMB     117      POPE     H18T     HAL3     0.900000E-01   1.00800           0
     13032 MEMB     117      POPE     C33      CTL2    -0.180000       12.0110           0
     13033 MEMB     117      POPE     H3X      HAL2     0.900000E-01   1.00800           0
     13034 MEMB     117      POPE     H3Y      HAL2     0.900000E-01   1.00800           0
     13035 MEMB     117      POPE     C34      CTL2    -0.180000       12.0110           0
     13036 MEMB     117      POPE     H4X      HAL2     0.900000E-01   1.00800           0
     13037 MEMB     117      POPE     H4Y      HAL2     0.900000E-01   1.00800           0
     13038 MEMB     117      POPE     C35      CTL2    -0.180000       12.0110           0
     13039 MEMB     117      POPE     H5X      HAL2     0.900000E-01   1.00800           0
     13040 MEMB     117      POPE     H5Y      HAL2     0.900000E-01   1.00800           0
     13041 MEMB     117      POPE     C36      CTL2    -0.180000       12.0110           0
     13042 MEMB     117      POPE     H6X      HAL2     0.900000E-01   1.00800           0
     13043 MEMB     117      POPE     H6Y      HAL2     0.900000E-01   1.00800           0
     13044 MEMB     117      POPE     C37      CTL2    -0.180000       12.0110           0
     13045 MEMB     117      POPE     H7X      HAL2     0.900000E-01   1.00800           0
     13046 MEMB     117      POPE     H7Y      HAL2     0.900000E-01   1.00800           0
     13047 MEMB     117      POPE     C38      CTL2    -0.180000       12.0110           0
     13048 MEMB     117      POPE     H8X      HAL2     0.900000E-01   1.00800           0
     13049 MEMB     117      POPE     H8Y      HAL2     0.900000E-01   1.00800           0
     13050 MEMB     117      POPE     C39      CTL2    -0.180000       12.0110           0
     13051 MEMB     117      POPE     H9X      HAL2     0.900000E-01   1.00800           0
     13052 MEMB     117      POPE     H9Y      HAL2     0.900000E-01   1.00800           0
     13053 MEMB     117      POPE     C310     CTL2    -0.180000       12.0110           0
     13054 MEMB     117      POPE     H10X     HAL2     0.900000E-01   1.00800           0
     13055 MEMB     117      POPE     H10Y     HAL2     0.900000E-01   1.00800           0
     13056 MEMB     117      POPE     C311     CTL2    -0.180000       12.0110           0
     13057 MEMB     117      POPE     H11X     HAL2     0.900000E-01   1.00800           0
     13058 MEMB     117      POPE     H11Y     HAL2     0.900000E-01   1.00800           0
     13059 MEMB     117      POPE     C312     CTL2    -0.180000       12.0110           0
     13060 MEMB     117      POPE     H12X     HAL2     0.900000E-01   1.00800           0
     13061 MEMB     117      POPE     H12Y     HAL2     0.900000E-01   1.00800           0
     13062 MEMB     117      POPE     C313     CTL2    -0.180000       12.0110           0
     13063 MEMB     117      POPE     H13X     HAL2     0.900000E-01   1.00800           0
     13064 MEMB     117      POPE     H13Y     HAL2     0.900000E-01   1.00800           0
     13065 MEMB     117      POPE     C314     CTL2    -0.180000       12.0110           0
     13066 MEMB     117      POPE     H14X     HAL2     0.900000E-01   1.00800           0
     13067 MEMB     117      POPE     H14Y     HAL2     0.900000E-01   1.00800           0
     13068 MEMB     117      POPE     C315     CTL2    -0.180000       12.0110           0
     13069 MEMB     117      POPE     H15X     HAL2     0.900000E-01   1.00800           0
     13070 MEMB     117      POPE     H15Y     HAL2     0.900000E-01   1.00800           0
     13071 MEMB     117      POPE     C316     CTL3    -0.270000       12.0110           0
     13072 MEMB     117      POPE     H16X     HAL3     0.900000E-01   1.00800           0
     13073 MEMB     117      POPE     H16Y     HAL3     0.900000E-01   1.00800           0
     13074 MEMB     117      POPE     H16Z     HAL3     0.900000E-01   1.00800           0
     13075 MEMB     118      POPE     N        NH3L    -0.300000       14.0070           0
     13076 MEMB     118      POPE     HN1      HCL      0.330000       1.00800           0
     13077 MEMB     118      POPE     HN2      HCL      0.330000       1.00800           0
     13078 MEMB     118      POPE     HN3      HCL      0.330000       1.00800           0
     13079 MEMB     118      POPE     C12      CTL2     0.130000       12.0110           0
     13080 MEMB     118      POPE     H12A     HAL2     0.900000E-01   1.00800           0
     13081 MEMB     118      POPE     H12B     HAL2     0.900000E-01   1.00800           0
     13082 MEMB     118      POPE     C11      CTL2    -0.800000E-01   12.0110           0
     13083 MEMB     118      POPE     H11A     HAL2     0.900000E-01   1.00800           0
     13084 MEMB     118      POPE     H11B     HAL2     0.900000E-01   1.00800           0
     13085 MEMB     118      POPE     P        PL        1.50000       30.9740           0
     13086 MEMB     118      POPE     O13      O2L     -0.780000       15.9994           0
     13087 MEMB     118      POPE     O14      O2L     -0.780000       15.9994           0
     13088 MEMB     118      POPE     O11      OSLP    -0.570000       15.9994           0
     13089 MEMB     118      POPE     O12      OSLP    -0.570000       15.9994           0
     13090 MEMB     118      POPE     C1       CTL2    -0.800000E-01   12.0110           0
     13091 MEMB     118      POPE     HA       HAL2     0.900000E-01   1.00800           0
     13092 MEMB     118      POPE     HB       HAL2     0.900000E-01   1.00800           0
     13093 MEMB     118      POPE     C2       CTL1     0.170000       12.0110           0
     13094 MEMB     118      POPE     HS       HAL1     0.900000E-01   1.00800           0
     13095 MEMB     118      POPE     O21      OSL     -0.490000       15.9994           0
     13096 MEMB     118      POPE     C21      CL       0.900000       12.0110           0
     13097 MEMB     118      POPE     O22      OBL     -0.630000       15.9994           0
     13098 MEMB     118      POPE     C22      CTL2    -0.220000       12.0110           0
     13099 MEMB     118      POPE     H2R      HAL2     0.900000E-01   1.00800           0
     13100 MEMB     118      POPE     H2S      HAL2     0.900000E-01   1.00800           0
     13101 MEMB     118      POPE     C3       CTL2     0.800000E-01   12.0110           0
     13102 MEMB     118      POPE     HX       HAL2     0.900000E-01   1.00800           0
     13103 MEMB     118      POPE     HY       HAL2     0.900000E-01   1.00800           0
     13104 MEMB     118      POPE     O31      OSL     -0.490000       15.9994           0
     13105 MEMB     118      POPE     C31      CL       0.900000       12.0110           0
     13106 MEMB     118      POPE     O32      OBL     -0.630000       15.9994           0
     13107 MEMB     118      POPE     C32      CTL2    -0.220000       12.0110           0
     13108 MEMB     118      POPE     H2X      HAL2     0.900000E-01   1.00800           0
     13109 MEMB     118      POPE     H2Y      HAL2     0.900000E-01   1.00800           0
     13110 MEMB     118      POPE     C23      CTL2    -0.180000       12.0110           0
     13111 MEMB     118      POPE     H3R      HAL2     0.900000E-01   1.00800           0
     13112 MEMB     118      POPE     H3S      HAL2     0.900000E-01   1.00800           0
     13113 MEMB     118      POPE     C24      CTL2    -0.180000       12.0110           0
     13114 MEMB     118      POPE     H4R      HAL2     0.900000E-01   1.00800           0
     13115 MEMB     118      POPE     H4S      HAL2     0.900000E-01   1.00800           0
     13116 MEMB     118      POPE     C25      CTL2    -0.180000       12.0110           0
     13117 MEMB     118      POPE     H5R      HAL2     0.900000E-01   1.00800           0
     13118 MEMB     118      POPE     H5S      HAL2     0.900000E-01   1.00800           0
     13119 MEMB     118      POPE     C26      CTL2    -0.180000       12.0110           0
     13120 MEMB     118      POPE     H6R      HAL2     0.900000E-01   1.00800           0
     13121 MEMB     118      POPE     H6S      HAL2     0.900000E-01   1.00800           0
     13122 MEMB     118      POPE     C27      CTL2    -0.180000       12.0110           0
     13123 MEMB     118      POPE     H7R      HAL2     0.900000E-01   1.00800           0
     13124 MEMB     118      POPE     H7S      HAL2     0.900000E-01   1.00800           0
     13125 MEMB     118      POPE     C28      CTL2    -0.180000       12.0110           0
     13126 MEMB     118      POPE     H8R      HAL2     0.900000E-01   1.00800           0
     13127 MEMB     118      POPE     H8S      HAL2     0.900000E-01   1.00800           0
     13128 MEMB     118      POPE     C29      CEL1    -0.150000       12.0110           0
     13129 MEMB     118      POPE     H91      HEL1     0.150000       1.00800           0
     13130 MEMB     118      POPE     C210     CEL1    -0.150000       12.0110           0
     13131 MEMB     118      POPE     H101     HEL1     0.150000       1.00800           0
     13132 MEMB     118      POPE     C211     CTL2    -0.180000       12.0110           0
     13133 MEMB     118      POPE     H11R     HAL2     0.900000E-01   1.00800           0
     13134 MEMB     118      POPE     H11S     HAL2     0.900000E-01   1.00800           0
     13135 MEMB     118      POPE     C212     CTL2    -0.180000       12.0110           0
     13136 MEMB     118      POPE     H12R     HAL2     0.900000E-01   1.00800           0
     13137 MEMB     118      POPE     H12S     HAL2     0.900000E-01   1.00800           0
     13138 MEMB     118      POPE     C213     CTL2    -0.180000       12.0110           0
     13139 MEMB     118      POPE     H13R     HAL2     0.900000E-01   1.00800           0
     13140 MEMB     118      POPE     H13S     HAL2     0.900000E-01   1.00800           0
     13141 MEMB     118      POPE     C214     CTL2    -0.180000       12.0110           0
     13142 MEMB     118      POPE     H14R     HAL2     0.900000E-01   1.00800           0
     13143 MEMB     118      POPE     H14S     HAL2     0.900000E-01   1.00800           0
     13144 MEMB     118      POPE     C215     CTL2    -0.180000       12.0110           0
     13145 MEMB     118      POPE     H15R     HAL2     0.900000E-01   1.00800           0
     13146 MEMB     118      POPE     H15S     HAL2     0.900000E-01   1.00800           0
     13147 MEMB     118      POPE     C216     CTL2    -0.180000       12.0110           0
     13148 MEMB     118      POPE     H16R     HAL2     0.900000E-01   1.00800           0
     13149 MEMB     118      POPE     H16S     HAL2     0.900000E-01   1.00800           0
     13150 MEMB     118      POPE     C217     CTL2    -0.180000       12.0110           0
     13151 MEMB     118      POPE     H17R     HAL2     0.900000E-01   1.00800           0
     13152 MEMB     118      POPE     H17S     HAL2     0.900000E-01   1.00800           0
     13153 MEMB     118      POPE     C218     CTL3    -0.270000       12.0110           0
     13154 MEMB     118      POPE     H18R     HAL3     0.900000E-01   1.00800           0
     13155 MEMB     118      POPE     H18S     HAL3     0.900000E-01   1.00800           0
     13156 MEMB     118      POPE     H18T     HAL3     0.900000E-01   1.00800           0
     13157 MEMB     118      POPE     C33      CTL2    -0.180000       12.0110           0
     13158 MEMB     118      POPE     H3X      HAL2     0.900000E-01   1.00800           0
     13159 MEMB     118      POPE     H3Y      HAL2     0.900000E-01   1.00800           0
     13160 MEMB     118      POPE     C34      CTL2    -0.180000       12.0110           0
     13161 MEMB     118      POPE     H4X      HAL2     0.900000E-01   1.00800           0
     13162 MEMB     118      POPE     H4Y      HAL2     0.900000E-01   1.00800           0
     13163 MEMB     118      POPE     C35      CTL2    -0.180000       12.0110           0
     13164 MEMB     118      POPE     H5X      HAL2     0.900000E-01   1.00800           0
     13165 MEMB     118      POPE     H5Y      HAL2     0.900000E-01   1.00800           0
     13166 MEMB     118      POPE     C36      CTL2    -0.180000       12.0110           0
     13167 MEMB     118      POPE     H6X      HAL2     0.900000E-01   1.00800           0
     13168 MEMB     118      POPE     H6Y      HAL2     0.900000E-01   1.00800           0
     13169 MEMB     118      POPE     C37      CTL2    -0.180000       12.0110           0
     13170 MEMB     118      POPE     H7X      HAL2     0.900000E-01   1.00800           0
     13171 MEMB     118      POPE     H7Y      HAL2     0.900000E-01   1.00800           0
     13172 MEMB     118      POPE     C38      CTL2    -0.180000       12.0110           0
     13173 MEMB     118      POPE     H8X      HAL2     0.900000E-01   1.00800           0
     13174 MEMB     118      POPE     H8Y      HAL2     0.900000E-01   1.00800           0
     13175 MEMB     118      POPE     C39      CTL2    -0.180000       12.0110           0
     13176 MEMB     118      POPE     H9X      HAL2     0.900000E-01   1.00800           0
     13177 MEMB     118      POPE     H9Y      HAL2     0.900000E-01   1.00800           0
     13178 MEMB     118      POPE     C310     CTL2    -0.180000       12.0110           0
     13179 MEMB     118      POPE     H10X     HAL2     0.900000E-01   1.00800           0
     13180 MEMB     118      POPE     H10Y     HAL2     0.900000E-01   1.00800           0
     13181 MEMB     118      POPE     C311     CTL2    -0.180000       12.0110           0
     13182 MEMB     118      POPE     H11X     HAL2     0.900000E-01   1.00800           0
     13183 MEMB     118      POPE     H11Y     HAL2     0.900000E-01   1.00800           0
     13184 MEMB     118      POPE     C312     CTL2    -0.180000       12.0110           0
     13185 MEMB     118      POPE     H12X     HAL2     0.900000E-01   1.00800           0
     13186 MEMB     118      POPE     H12Y     HAL2     0.900000E-01   1.00800           0
     13187 MEMB     118      POPE     C313     CTL2    -0.180000       12.0110           0
     13188 MEMB     118      POPE     H13X     HAL2     0.900000E-01   1.00800           0
     13189 MEMB     118      POPE     H13Y     HAL2     0.900000E-01   1.00800           0
     13190 MEMB     118      POPE     C314     CTL2    -0.180000       12.0110           0
     13191 MEMB     118      POPE     H14X     HAL2     0.900000E-01   1.00800           0
     13192 MEMB     118      POPE     H14Y     HAL2     0.900000E-01   1.00800           0
     13193 MEMB     118      POPE     C315     CTL2    -0.180000       12.0110           0
     13194 MEMB     118      POPE     H15X     HAL2     0.900000E-01   1.00800           0
     13195 MEMB     118      POPE     H15Y     HAL2     0.900000E-01   1.00800           0
     13196 MEMB     118      POPE     C316     CTL3    -0.270000       12.0110           0
     13197 MEMB     118      POPE     H16X     HAL3     0.900000E-01   1.00800           0
     13198 MEMB     118      POPE     H16Y     HAL3     0.900000E-01   1.00800           0
     13199 MEMB     118      POPE     H16Z     HAL3     0.900000E-01   1.00800           0
     13200 MEMB     119      POPC     N        NTL     -0.600000       14.0070           0
     13201 MEMB     119      POPC     C12      CTL2    -0.100000       12.0110           0
     13202 MEMB     119      POPC     H12A     HL       0.250000       1.00800           0
     13203 MEMB     119      POPC     H12B     HL       0.250000       1.00800           0
     13204 MEMB     119      POPC     C13      CTL5    -0.350000       12.0110           0
     13205 MEMB     119      POPC     H13A     HL       0.250000       1.00800           0
     13206 MEMB     119      POPC     H13B     HL       0.250000       1.00800           0
     13207 MEMB     119      POPC     H13C     HL       0.250000       1.00800           0
     13208 MEMB     119      POPC     C14      CTL5    -0.350000       12.0110           0
     13209 MEMB     119      POPC     H14A     HL       0.250000       1.00800           0
     13210 MEMB     119      POPC     H14B     HL       0.250000       1.00800           0
     13211 MEMB     119      POPC     H14C     HL       0.250000       1.00800           0
     13212 MEMB     119      POPC     C15      CTL5    -0.350000       12.0110           0
     13213 MEMB     119      POPC     H15A     HL       0.250000       1.00800           0
     13214 MEMB     119      POPC     H15B     HL       0.250000       1.00800           0
     13215 MEMB     119      POPC     H15C     HL       0.250000       1.00800           0
     13216 MEMB     119      POPC     C11      CTL2    -0.800000E-01   12.0110           0
     13217 MEMB     119      POPC     H11A     HAL2     0.900000E-01   1.00800           0
     13218 MEMB     119      POPC     H11B     HAL2     0.900000E-01   1.00800           0
     13219 MEMB     119      POPC     P        PL        1.50000       30.9740           0
     13220 MEMB     119      POPC     O13      O2L     -0.780000       15.9994           0
     13221 MEMB     119      POPC     O14      O2L     -0.780000       15.9994           0
     13222 MEMB     119      POPC     O12      OSLP    -0.570000       15.9994           0
     13223 MEMB     119      POPC     O11      OSLP    -0.570000       15.9994           0
     13224 MEMB     119      POPC     C1       CTL2    -0.800000E-01   12.0110           0
     13225 MEMB     119      POPC     HA       HAL2     0.900000E-01   1.00800           0
     13226 MEMB     119      POPC     HB       HAL2     0.900000E-01   1.00800           0
     13227 MEMB     119      POPC     C2       CTL1     0.170000       12.0110           0
     13228 MEMB     119      POPC     HS       HAL1     0.900000E-01   1.00800           0
     13229 MEMB     119      POPC     O21      OSL     -0.490000       15.9994           0
     13230 MEMB     119      POPC     C21      CL       0.900000       12.0110           0
     13231 MEMB     119      POPC     O22      OBL     -0.630000       15.9994           0
     13232 MEMB     119      POPC     C22      CTL2    -0.220000       12.0110           0
     13233 MEMB     119      POPC     H2R      HAL2     0.900000E-01   1.00800           0
     13234 MEMB     119      POPC     H2S      HAL2     0.900000E-01   1.00800           0
     13235 MEMB     119      POPC     C3       CTL2     0.800000E-01   12.0110           0
     13236 MEMB     119      POPC     HX       HAL2     0.900000E-01   1.00800           0
     13237 MEMB     119      POPC     HY       HAL2     0.900000E-01   1.00800           0
     13238 MEMB     119      POPC     O31      OSL     -0.490000       15.9994           0
     13239 MEMB     119      POPC     C31      CL       0.900000       12.0110           0
     13240 MEMB     119      POPC     O32      OBL     -0.630000       15.9994           0
     13241 MEMB     119      POPC     C32      CTL2    -0.220000       12.0110           0
     13242 MEMB     119      POPC     H2X      HAL2     0.900000E-01   1.00800           0
     13243 MEMB     119      POPC     H2Y      HAL2     0.900000E-01   1.00800           0
     13244 MEMB     119      POPC     C23      CTL2    -0.180000       12.0110           0
     13245 MEMB     119      POPC     H3R      HAL2     0.900000E-01   1.00800           0
     13246 MEMB     119      POPC     H3S      HAL2     0.900000E-01   1.00800           0
     13247 MEMB     119      POPC     C24      CTL2    -0.180000       12.0110           0
     13248 MEMB     119      POPC     H4R      HAL2     0.900000E-01   1.00800           0
     13249 MEMB     119      POPC     H4S      HAL2     0.900000E-01   1.00800           0
     13250 MEMB     119      POPC     C25      CTL2    -0.180000       12.0110           0
     13251 MEMB     119      POPC     H5R      HAL2     0.900000E-01   1.00800           0
     13252 MEMB     119      POPC     H5S      HAL2     0.900000E-01   1.00800           0
     13253 MEMB     119      POPC     C26      CTL2    -0.180000       12.0110           0
     13254 MEMB     119      POPC     H6R      HAL2     0.900000E-01   1.00800           0
     13255 MEMB     119      POPC     H6S      HAL2     0.900000E-01   1.00800           0
     13256 MEMB     119      POPC     C27      CTL2    -0.180000       12.0110           0
     13257 MEMB     119      POPC     H7R      HAL2     0.900000E-01   1.00800           0
     13258 MEMB     119      POPC     H7S      HAL2     0.900000E-01   1.00800           0
     13259 MEMB     119      POPC     C28      CTL2    -0.180000       12.0110           0
     13260 MEMB     119      POPC     H8R      HAL2     0.900000E-01   1.00800           0
     13261 MEMB     119      POPC     H8S      HAL2     0.900000E-01   1.00800           0
     13262 MEMB     119      POPC     C29      CEL1    -0.150000       12.0110           0
     13263 MEMB     119      POPC     H91      HEL1     0.150000       1.00800           0
     13264 MEMB     119      POPC     C210     CEL1    -0.150000       12.0110           0
     13265 MEMB     119      POPC     H101     HEL1     0.150000       1.00800           0
     13266 MEMB     119      POPC     C211     CTL2    -0.180000       12.0110           0
     13267 MEMB     119      POPC     H11R     HAL2     0.900000E-01   1.00800           0
     13268 MEMB     119      POPC     H11S     HAL2     0.900000E-01   1.00800           0
     13269 MEMB     119      POPC     C212     CTL2    -0.180000       12.0110           0
     13270 MEMB     119      POPC     H12R     HAL2     0.900000E-01   1.00800           0
     13271 MEMB     119      POPC     H12S     HAL2     0.900000E-01   1.00800           0
     13272 MEMB     119      POPC     C213     CTL2    -0.180000       12.0110           0
     13273 MEMB     119      POPC     H13R     HAL2     0.900000E-01   1.00800           0
     13274 MEMB     119      POPC     H13S     HAL2     0.900000E-01   1.00800           0
     13275 MEMB     119      POPC     C214     CTL2    -0.180000       12.0110           0
     13276 MEMB     119      POPC     H14R     HAL2     0.900000E-01   1.00800           0
     13277 MEMB     119      POPC     H14S     HAL2     0.900000E-01   1.00800           0
     13278 MEMB     119      POPC     C215     CTL2    -0.180000       12.0110           0
     13279 MEMB     119      POPC     H15R     HAL2     0.900000E-01   1.00800           0
     13280 MEMB     119      POPC     H15S     HAL2     0.900000E-01   1.00800           0
     13281 MEMB     119      POPC     C216     CTL2    -0.180000       12.0110           0
     13282 MEMB     119      POPC     H16R     HAL2     0.900000E-01   1.00800           0
     13283 MEMB     119      POPC     H16S     HAL2     0.900000E-01   1.00800           0
     13284 MEMB     119      POPC     C217     CTL2    -0.180000       12.0110           0
     13285 MEMB     119      POPC     H17R     HAL2     0.900000E-01   1.00800           0
     13286 MEMB     119      POPC     H17S     HAL2     0.900000E-01   1.00800           0
     13287 MEMB     119      POPC     C218     CTL3    -0.270000       12.0110           0
     13288 MEMB     119      POPC     H18R     HAL3     0.900000E-01   1.00800           0
     13289 MEMB     119      POPC     H18S     HAL3     0.900000E-01   1.00800           0
     13290 MEMB     119      POPC     H18T     HAL3     0.900000E-01   1.00800           0
     13291 MEMB     119      POPC     C33      CTL2    -0.180000       12.0110           0
     13292 MEMB     119      POPC     H3X      HAL2     0.900000E-01   1.00800           0
     13293 MEMB     119      POPC     H3Y      HAL2     0.900000E-01   1.00800           0
     13294 MEMB     119      POPC     C34      CTL2    -0.180000       12.0110           0
     13295 MEMB     119      POPC     H4X      HAL2     0.900000E-01   1.00800           0
     13296 MEMB     119      POPC     H4Y      HAL2     0.900000E-01   1.00800           0
     13297 MEMB     119      POPC     C35      CTL2    -0.180000       12.0110           0
     13298 MEMB     119      POPC     H5X      HAL2     0.900000E-01   1.00800           0
     13299 MEMB     119      POPC     H5Y      HAL2     0.900000E-01   1.00800           0
     13300 MEMB     119      POPC     C36      CTL2    -0.180000       12.0110           0
     13301 MEMB     119      POPC     H6X      HAL2     0.900000E-01   1.00800           0
     13302 MEMB     119      POPC     H6Y      HAL2     0.900000E-01   1.00800           0
     13303 MEMB     119      POPC     C37      CTL2    -0.180000       12.0110           0
     13304 MEMB     119      POPC     H7X      HAL2     0.900000E-01   1.00800           0
     13305 MEMB     119      POPC     H7Y      HAL2     0.900000E-01   1.00800           0
     13306 MEMB     119      POPC     C38      CTL2    -0.180000       12.0110           0
     13307 MEMB     119      POPC     H8X      HAL2     0.900000E-01   1.00800           0
     13308 MEMB     119      POPC     H8Y      HAL2     0.900000E-01   1.00800           0
     13309 MEMB     119      POPC     C39      CTL2    -0.180000       12.0110           0
     13310 MEMB     119      POPC     H9X      HAL2     0.900000E-01   1.00800           0
     13311 MEMB     119      POPC     H9Y      HAL2     0.900000E-01   1.00800           0
     13312 MEMB     119      POPC     C310     CTL2    -0.180000       12.0110           0
     13313 MEMB     119      POPC     H10X     HAL2     0.900000E-01   1.00800           0
     13314 MEMB     119      POPC     H10Y     HAL2     0.900000E-01   1.00800           0
     13315 MEMB     119      POPC     C311     CTL2    -0.180000       12.0110           0
     13316 MEMB     119      POPC     H11X     HAL2     0.900000E-01   1.00800           0
     13317 MEMB     119      POPC     H11Y     HAL2     0.900000E-01   1.00800           0
     13318 MEMB     119      POPC     C312     CTL2    -0.180000       12.0110           0
     13319 MEMB     119      POPC     H12X     HAL2     0.900000E-01   1.00800           0
     13320 MEMB     119      POPC     H12Y     HAL2     0.900000E-01   1.00800           0
     13321 MEMB     119      POPC     C313     CTL2    -0.180000       12.0110           0
     13322 MEMB     119      POPC     H13X     HAL2     0.900000E-01   1.00800           0
     13323 MEMB     119      POPC     H13Y     HAL2     0.900000E-01   1.00800           0
     13324 MEMB     119      POPC     C314     CTL2    -0.180000       12.0110           0
     13325 MEMB     119      POPC     H14X     HAL2     0.900000E-01   1.00800           0
     13326 MEMB     119      POPC     H14Y     HAL2     0.900000E-01   1.00800           0
     13327 MEMB     119      POPC     C315     CTL2    -0.180000       12.0110           0
     13328 MEMB     119      POPC     H15X     HAL2     0.900000E-01   1.00800           0
     13329 MEMB     119      POPC     H15Y     HAL2     0.900000E-01   1.00800           0
     13330 MEMB     119      POPC     C316     CTL3    -0.270000       12.0110           0
     13331 MEMB     119      POPC     H16X     HAL3     0.900000E-01   1.00800           0
     13332 MEMB     119      POPC     H16Y     HAL3     0.900000E-01   1.00800           0
     13333 MEMB     119      POPC     H16Z     HAL3     0.900000E-01   1.00800           0
     13334 MEMB     120      POPE     N        NH3L    -0.300000       14.0070           0
     13335 MEMB     120      POPE     HN1      HCL      0.330000       1.00800           0
     13336 MEMB     120      POPE     HN2      HCL      0.330000       1.00800           0
     13337 MEMB     120      POPE     HN3      HCL      0.330000       1.00800           0
     13338 MEMB     120      POPE     C12      CTL2     0.130000       12.0110           0
     13339 MEMB     120      POPE     H12A     HAL2     0.900000E-01   1.00800           0
     13340 MEMB     120      POPE     H12B     HAL2     0.900000E-01   1.00800           0
     13341 MEMB     120      POPE     C11      CTL2    -0.800000E-01   12.0110           0
     13342 MEMB     120      POPE     H11A     HAL2     0.900000E-01   1.00800           0
     13343 MEMB     120      POPE     H11B     HAL2     0.900000E-01   1.00800           0
     13344 MEMB     120      POPE     P        PL        1.50000       30.9740           0
     13345 MEMB     120      POPE     O13      O2L     -0.780000       15.9994           0
     13346 MEMB     120      POPE     O14      O2L     -0.780000       15.9994           0
     13347 MEMB     120      POPE     O11      OSLP    -0.570000       15.9994           0
     13348 MEMB     120      POPE     O12      OSLP    -0.570000       15.9994           0
     13349 MEMB     120      POPE     C1       CTL2    -0.800000E-01   12.0110           0
     13350 MEMB     120      POPE     HA       HAL2     0.900000E-01   1.00800           0
     13351 MEMB     120      POPE     HB       HAL2     0.900000E-01   1.00800           0
     13352 MEMB     120      POPE     C2       CTL1     0.170000       12.0110           0
     13353 MEMB     120      POPE     HS       HAL1     0.900000E-01   1.00800           0
     13354 MEMB     120      POPE     O21      OSL     -0.490000       15.9994           0
     13355 MEMB     120      POPE     C21      CL       0.900000       12.0110           0
     13356 MEMB     120      POPE     O22      OBL     -0.630000       15.9994           0
     13357 MEMB     120      POPE     C22      CTL2    -0.220000       12.0110           0
     13358 MEMB     120      POPE     H2R      HAL2     0.900000E-01   1.00800           0
     13359 MEMB     120      POPE     H2S      HAL2     0.900000E-01   1.00800           0
     13360 MEMB     120      POPE     C3       CTL2     0.800000E-01   12.0110           0
     13361 MEMB     120      POPE     HX       HAL2     0.900000E-01   1.00800           0
     13362 MEMB     120      POPE     HY       HAL2     0.900000E-01   1.00800           0
     13363 MEMB     120      POPE     O31      OSL     -0.490000       15.9994           0
     13364 MEMB     120      POPE     C31      CL       0.900000       12.0110           0
     13365 MEMB     120      POPE     O32      OBL     -0.630000       15.9994           0
     13366 MEMB     120      POPE     C32      CTL2    -0.220000       12.0110           0
     13367 MEMB     120      POPE     H2X      HAL2     0.900000E-01   1.00800           0
     13368 MEMB     120      POPE     H2Y      HAL2     0.900000E-01   1.00800           0
     13369 MEMB     120      POPE     C23      CTL2    -0.180000       12.0110           0
     13370 MEMB     120      POPE     H3R      HAL2     0.900000E-01   1.00800           0
     13371 MEMB     120      POPE     H3S      HAL2     0.900000E-01   1.00800           0
     13372 MEMB     120      POPE     C24      CTL2    -0.180000       12.0110           0
     13373 MEMB     120      POPE     H4R      HAL2     0.900000E-01   1.00800           0
     13374 MEMB     120      POPE     H4S      HAL2     0.900000E-01   1.00800           0
     13375 MEMB     120      POPE     C25      CTL2    -0.180000       12.0110           0
     13376 MEMB     120      POPE     H5R      HAL2     0.900000E-01   1.00800           0
     13377 MEMB     120      POPE     H5S      HAL2     0.900000E-01   1.00800           0
     13378 MEMB     120      POPE     C26      CTL2    -0.180000       12.0110           0
     13379 MEMB     120      POPE     H6R      HAL2     0.900000E-01   1.00800           0
     13380 MEMB     120      POPE     H6S      HAL2     0.900000E-01   1.00800           0
     13381 MEMB     120      POPE     C27      CTL2    -0.180000       12.0110           0
     13382 MEMB     120      POPE     H7R      HAL2     0.900000E-01   1.00800           0
     13383 MEMB     120      POPE     H7S      HAL2     0.900000E-01   1.00800           0
     13384 MEMB     120      POPE     C28      CTL2    -0.180000       12.0110           0
     13385 MEMB     120      POPE     H8R      HAL2     0.900000E-01   1.00800           0
     13386 MEMB     120      POPE     H8S      HAL2     0.900000E-01   1.00800           0
     13387 MEMB     120      POPE     C29      CEL1    -0.150000       12.0110           0
     13388 MEMB     120      POPE     H91      HEL1     0.150000       1.00800           0
     13389 MEMB     120      POPE     C210     CEL1    -0.150000       12.0110           0
     13390 MEMB     120      POPE     H101     HEL1     0.150000       1.00800           0
     13391 MEMB     120      POPE     C211     CTL2    -0.180000       12.0110           0
     13392 MEMB     120      POPE     H11R     HAL2     0.900000E-01   1.00800           0
     13393 MEMB     120      POPE     H11S     HAL2     0.900000E-01   1.00800           0
     13394 MEMB     120      POPE     C212     CTL2    -0.180000       12.0110           0
     13395 MEMB     120      POPE     H12R     HAL2     0.900000E-01   1.00800           0
     13396 MEMB     120      POPE     H12S     HAL2     0.900000E-01   1.00800           0
     13397 MEMB     120      POPE     C213     CTL2    -0.180000       12.0110           0
     13398 MEMB     120      POPE     H13R     HAL2     0.900000E-01   1.00800           0
     13399 MEMB     120      POPE     H13S     HAL2     0.900000E-01   1.00800           0
     13400 MEMB     120      POPE     C214     CTL2    -0.180000       12.0110           0
     13401 MEMB     120      POPE     H14R     HAL2     0.900000E-01   1.00800           0
     13402 MEMB     120      POPE     H14S     HAL2     0.900000E-01   1.00800           0
     13403 MEMB     120      POPE     C215     CTL2    -0.180000       12.0110           0
     13404 MEMB     120      POPE     H15R     HAL2     0.900000E-01   1.00800           0
     13405 MEMB     120      POPE     H15S     HAL2     0.900000E-01   1.00800           0
     13406 MEMB     120      POPE     C216     CTL2    -0.180000       12.0110           0
     13407 MEMB     120      POPE     H16R     HAL2     0.900000E-01   1.00800           0
     13408 MEMB     120      POPE     H16S     HAL2     0.900000E-01   1.00800           0
     13409 MEMB     120      POPE     C217     CTL2    -0.180000       12.0110           0
     13410 MEMB     120      POPE     H17R     HAL2     0.900000E-01   1.00800           0
     13411 MEMB     120      POPE     H17S     HAL2     0.900000E-01   1.00800           0
     13412 MEMB     120      POPE     C218     CTL3    -0.270000       12.0110           0
     13413 MEMB     120      POPE     H18R     HAL3     0.900000E-01   1.00800           0
     13414 MEMB     120      POPE     H18S     HAL3     0.900000E-01   1.00800           0
     13415 MEMB     120      POPE     H18T     HAL3     0.900000E-01   1.00800           0
     13416 MEMB     120      POPE     C33      CTL2    -0.180000       12.0110           0
     13417 MEMB     120      POPE     H3X      HAL2     0.900000E-01   1.00800           0
     13418 MEMB     120      POPE     H3Y      HAL2     0.900000E-01   1.00800           0
     13419 MEMB     120      POPE     C34      CTL2    -0.180000       12.0110           0
     13420 MEMB     120      POPE     H4X      HAL2     0.900000E-01   1.00800           0
     13421 MEMB     120      POPE     H4Y      HAL2     0.900000E-01   1.00800           0
     13422 MEMB     120      POPE     C35      CTL2    -0.180000       12.0110           0
     13423 MEMB     120      POPE     H5X      HAL2     0.900000E-01   1.00800           0
     13424 MEMB     120      POPE     H5Y      HAL2     0.900000E-01   1.00800           0
     13425 MEMB     120      POPE     C36      CTL2    -0.180000       12.0110           0
     13426 MEMB     120      POPE     H6X      HAL2     0.900000E-01   1.00800           0
     13427 MEMB     120      POPE     H6Y      HAL2     0.900000E-01   1.00800           0
     13428 MEMB     120      POPE     C37      CTL2    -0.180000       12.0110           0
     13429 MEMB     120      POPE     H7X      HAL2     0.900000E-01   1.00800           0
     13430 MEMB     120      POPE     H7Y      HAL2     0.900000E-01   1.00800           0
     13431 MEMB     120      POPE     C38      CTL2    -0.180000       12.0110           0
     13432 MEMB     120      POPE     H8X      HAL2     0.900000E-01   1.00800           0
     13433 MEMB     120      POPE     H8Y      HAL2     0.900000E-01   1.00800           0
     13434 MEMB     120      POPE     C39      CTL2    -0.180000       12.0110           0
     13435 MEMB     120      POPE     H9X      HAL2     0.900000E-01   1.00800           0
     13436 MEMB     120      POPE     H9Y      HAL2     0.900000E-01   1.00800           0
     13437 MEMB     120      POPE     C310     CTL2    -0.180000       12.0110           0
     13438 MEMB     120      POPE     H10X     HAL2     0.900000E-01   1.00800           0
     13439 MEMB     120      POPE     H10Y     HAL2     0.900000E-01   1.00800           0
     13440 MEMB     120      POPE     C311     CTL2    -0.180000       12.0110           0
     13441 MEMB     120      POPE     H11X     HAL2     0.900000E-01   1.00800           0
     13442 MEMB     120      POPE     H11Y     HAL2     0.900000E-01   1.00800           0
     13443 MEMB     120      POPE     C312     CTL2    -0.180000       12.0110           0
     13444 MEMB     120      POPE     H12X     HAL2     0.900000E-01   1.00800           0
     13445 MEMB     120      POPE     H12Y     HAL2     0.900000E-01   1.00800           0
     13446 MEMB     120      POPE     C313     CTL2    -0.180000       12.0110           0
     13447 MEMB     120      POPE     H13X     HAL2     0.900000E-01   1.00800           0
     13448 MEMB     120      POPE     H13Y     HAL2     0.900000E-01   1.00800           0
     13449 MEMB     120      POPE     C314     CTL2    -0.180000       12.0110           0
     13450 MEMB     120      POPE     H14X     HAL2     0.900000E-01   1.00800           0
     13451 MEMB     120      POPE     H14Y     HAL2     0.900000E-01   1.00800           0
     13452 MEMB     120      POPE     C315     CTL2    -0.180000       12.0110           0
     13453 MEMB     120      POPE     H15X     HAL2     0.900000E-01   1.00800           0
     13454 MEMB     120      POPE     H15Y     HAL2     0.900000E-01   1.00800           0
     13455 MEMB     120      POPE     C316     CTL3    -0.270000       12.0110           0
     13456 MEMB     120      POPE     H16X     HAL3     0.900000E-01   1.00800           0
     13457 MEMB     120      POPE     H16Y     HAL3     0.900000E-01   1.00800           0
     13458 MEMB     120      POPE     H16Z     HAL3     0.900000E-01   1.00800           0
     13459 MEMB     121      POPE     N        NH3L    -0.300000       14.0070           0
     13460 MEMB     121      POPE     HN1      HCL      0.330000       1.00800           0
     13461 MEMB     121      POPE     HN2      HCL      0.330000       1.00800           0
     13462 MEMB     121      POPE     HN3      HCL      0.330000       1.00800           0
     13463 MEMB     121      POPE     C12      CTL2     0.130000       12.0110           0
     13464 MEMB     121      POPE     H12A     HAL2     0.900000E-01   1.00800           0
     13465 MEMB     121      POPE     H12B     HAL2     0.900000E-01   1.00800           0
     13466 MEMB     121      POPE     C11      CTL2    -0.800000E-01   12.0110           0
     13467 MEMB     121      POPE     H11A     HAL2     0.900000E-01   1.00800           0
     13468 MEMB     121      POPE     H11B     HAL2     0.900000E-01   1.00800           0
     13469 MEMB     121      POPE     P        PL        1.50000       30.9740           0
     13470 MEMB     121      POPE     O13      O2L     -0.780000       15.9994           0
     13471 MEMB     121      POPE     O14      O2L     -0.780000       15.9994           0
     13472 MEMB     121      POPE     O11      OSLP    -0.570000       15.9994           0
     13473 MEMB     121      POPE     O12      OSLP    -0.570000       15.9994           0
     13474 MEMB     121      POPE     C1       CTL2    -0.800000E-01   12.0110           0
     13475 MEMB     121      POPE     HA       HAL2     0.900000E-01   1.00800           0
     13476 MEMB     121      POPE     HB       HAL2     0.900000E-01   1.00800           0
     13477 MEMB     121      POPE     C2       CTL1     0.170000       12.0110           0
     13478 MEMB     121      POPE     HS       HAL1     0.900000E-01   1.00800           0
     13479 MEMB     121      POPE     O21      OSL     -0.490000       15.9994           0
     13480 MEMB     121      POPE     C21      CL       0.900000       12.0110           0
     13481 MEMB     121      POPE     O22      OBL     -0.630000       15.9994           0
     13482 MEMB     121      POPE     C22      CTL2    -0.220000       12.0110           0
     13483 MEMB     121      POPE     H2R      HAL2     0.900000E-01   1.00800           0
     13484 MEMB     121      POPE     H2S      HAL2     0.900000E-01   1.00800           0
     13485 MEMB     121      POPE     C3       CTL2     0.800000E-01   12.0110           0
     13486 MEMB     121      POPE     HX       HAL2     0.900000E-01   1.00800           0
     13487 MEMB     121      POPE     HY       HAL2     0.900000E-01   1.00800           0
     13488 MEMB     121      POPE     O31      OSL     -0.490000       15.9994           0
     13489 MEMB     121      POPE     C31      CL       0.900000       12.0110           0
     13490 MEMB     121      POPE     O32      OBL     -0.630000       15.9994           0
     13491 MEMB     121      POPE     C32      CTL2    -0.220000       12.0110           0
     13492 MEMB     121      POPE     H2X      HAL2     0.900000E-01   1.00800           0
     13493 MEMB     121      POPE     H2Y      HAL2     0.900000E-01   1.00800           0
     13494 MEMB     121      POPE     C23      CTL2    -0.180000       12.0110           0
     13495 MEMB     121      POPE     H3R      HAL2     0.900000E-01   1.00800           0
     13496 MEMB     121      POPE     H3S      HAL2     0.900000E-01   1.00800           0
     13497 MEMB     121      POPE     C24      CTL2    -0.180000       12.0110           0
     13498 MEMB     121      POPE     H4R      HAL2     0.900000E-01   1.00800           0
     13499 MEMB     121      POPE     H4S      HAL2     0.900000E-01   1.00800           0
     13500 MEMB     121      POPE     C25      CTL2    -0.180000       12.0110           0
     13501 MEMB     121      POPE     H5R      HAL2     0.900000E-01   1.00800           0
     13502 MEMB     121      POPE     H5S      HAL2     0.900000E-01   1.00800           0
     13503 MEMB     121      POPE     C26      CTL2    -0.180000       12.0110           0
     13504 MEMB     121      POPE     H6R      HAL2     0.900000E-01   1.00800           0
     13505 MEMB     121      POPE     H6S      HAL2     0.900000E-01   1.00800           0
     13506 MEMB     121      POPE     C27      CTL2    -0.180000       12.0110           0
     13507 MEMB     121      POPE     H7R      HAL2     0.900000E-01   1.00800           0
     13508 MEMB     121      POPE     H7S      HAL2     0.900000E-01   1.00800           0
     13509 MEMB     121      POPE     C28      CTL2    -0.180000       12.0110           0
     13510 MEMB     121      POPE     H8R      HAL2     0.900000E-01   1.00800           0
     13511 MEMB     121      POPE     H8S      HAL2     0.900000E-01   1.00800           0
     13512 MEMB     121      POPE     C29      CEL1    -0.150000       12.0110           0
     13513 MEMB     121      POPE     H91      HEL1     0.150000       1.00800           0
     13514 MEMB     121      POPE     C210     CEL1    -0.150000       12.0110           0
     13515 MEMB     121      POPE     H101     HEL1     0.150000       1.00800           0
     13516 MEMB     121      POPE     C211     CTL2    -0.180000       12.0110           0
     13517 MEMB     121      POPE     H11R     HAL2     0.900000E-01   1.00800           0
     13518 MEMB     121      POPE     H11S     HAL2     0.900000E-01   1.00800           0
     13519 MEMB     121      POPE     C212     CTL2    -0.180000       12.0110           0
     13520 MEMB     121      POPE     H12R     HAL2     0.900000E-01   1.00800           0
     13521 MEMB     121      POPE     H12S     HAL2     0.900000E-01   1.00800           0
     13522 MEMB     121      POPE     C213     CTL2    -0.180000       12.0110           0
     13523 MEMB     121      POPE     H13R     HAL2     0.900000E-01   1.00800           0
     13524 MEMB     121      POPE     H13S     HAL2     0.900000E-01   1.00800           0
     13525 MEMB     121      POPE     C214     CTL2    -0.180000       12.0110           0
     13526 MEMB     121      POPE     H14R     HAL2     0.900000E-01   1.00800           0
     13527 MEMB     121      POPE     H14S     HAL2     0.900000E-01   1.00800           0
     13528 MEMB     121      POPE     C215     CTL2    -0.180000       12.0110           0
     13529 MEMB     121      POPE     H15R     HAL2     0.900000E-01   1.00800           0
     13530 MEMB     121      POPE     H15S     HAL2     0.900000E-01   1.00800           0
     13531 MEMB     121      POPE     C216     CTL2    -0.180000       12.0110           0
     13532 MEMB     121      POPE     H16R     HAL2     0.900000E-01   1.00800           0
     13533 MEMB     121      POPE     H16S     HAL2     0.900000E-01   1.00800           0
     13534 MEMB     121      POPE     C217     CTL2    -0.180000       12.0110           0
     13535 MEMB     121      POPE     H17R     HAL2     0.900000E-01   1.00800           0
     13536 MEMB     121      POPE     H17S     HAL2     0.900000E-01   1.00800           0
     13537 MEMB     121      POPE     C218     CTL3    -0.270000       12.0110           0
     13538 MEMB     121      POPE     H18R     HAL3     0.900000E-01   1.00800           0
     13539 MEMB     121      POPE     H18S     HAL3     0.900000E-01   1.00800           0
     13540 MEMB     121      POPE     H18T     HAL3     0.900000E-01   1.00800           0
     13541 MEMB     121      POPE     C33      CTL2    -0.180000       12.0110           0
     13542 MEMB     121      POPE     H3X      HAL2     0.900000E-01   1.00800           0
     13543 MEMB     121      POPE     H3Y      HAL2     0.900000E-01   1.00800           0
     13544 MEMB     121      POPE     C34      CTL2    -0.180000       12.0110           0
     13545 MEMB     121      POPE     H4X      HAL2     0.900000E-01   1.00800           0
     13546 MEMB     121      POPE     H4Y      HAL2     0.900000E-01   1.00800           0
     13547 MEMB     121      POPE     C35      CTL2    -0.180000       12.0110           0
     13548 MEMB     121      POPE     H5X      HAL2     0.900000E-01   1.00800           0
     13549 MEMB     121      POPE     H5Y      HAL2     0.900000E-01   1.00800           0
     13550 MEMB     121      POPE     C36      CTL2    -0.180000       12.0110           0
     13551 MEMB     121      POPE     H6X      HAL2     0.900000E-01   1.00800           0
     13552 MEMB     121      POPE     H6Y      HAL2     0.900000E-01   1.00800           0
     13553 MEMB     121      POPE     C37      CTL2    -0.180000       12.0110           0
     13554 MEMB     121      POPE     H7X      HAL2     0.900000E-01   1.00800           0
     13555 MEMB     121      POPE     H7Y      HAL2     0.900000E-01   1.00800           0
     13556 MEMB     121      POPE     C38      CTL2    -0.180000       12.0110           0
     13557 MEMB     121      POPE     H8X      HAL2     0.900000E-01   1.00800           0
     13558 MEMB     121      POPE     H8Y      HAL2     0.900000E-01   1.00800           0
     13559 MEMB     121      POPE     C39      CTL2    -0.180000       12.0110           0
     13560 MEMB     121      POPE     H9X      HAL2     0.900000E-01   1.00800           0
     13561 MEMB     121      POPE     H9Y      HAL2     0.900000E-01   1.00800           0
     13562 MEMB     121      POPE     C310     CTL2    -0.180000       12.0110           0
     13563 MEMB     121      POPE     H10X     HAL2     0.900000E-01   1.00800           0
     13564 MEMB     121      POPE     H10Y     HAL2     0.900000E-01   1.00800           0
     13565 MEMB     121      POPE     C311     CTL2    -0.180000       12.0110           0
     13566 MEMB     121      POPE     H11X     HAL2     0.900000E-01   1.00800           0
     13567 MEMB     121      POPE     H11Y     HAL2     0.900000E-01   1.00800           0
     13568 MEMB     121      POPE     C312     CTL2    -0.180000       12.0110           0
     13569 MEMB     121      POPE     H12X     HAL2     0.900000E-01   1.00800           0
     13570 MEMB     121      POPE     H12Y     HAL2     0.900000E-01   1.00800           0
     13571 MEMB     121      POPE     C313     CTL2    -0.180000       12.0110           0
     13572 MEMB     121      POPE     H13X     HAL2     0.900000E-01   1.00800           0
     13573 MEMB     121      POPE     H13Y     HAL2     0.900000E-01   1.00800           0
     13574 MEMB     121      POPE     C314     CTL2    -0.180000       12.0110           0
     13575 MEMB     121      POPE     H14X     HAL2     0.900000E-01   1.00800           0
     13576 MEMB     121      POPE     H14Y     HAL2     0.900000E-01   1.00800           0
     13577 MEMB     121      POPE     C315     CTL2    -0.180000       12.0110           0
     13578 MEMB     121      POPE     H15X     HAL2     0.900000E-01   1.00800           0
     13579 MEMB     121      POPE     H15Y     HAL2     0.900000E-01   1.00800           0
     13580 MEMB     121      POPE     C316     CTL3    -0.270000       12.0110           0
     13581 MEMB     121      POPE     H16X     HAL3     0.900000E-01   1.00800           0
     13582 MEMB     121      POPE     H16Y     HAL3     0.900000E-01   1.00800           0
     13583 MEMB     121      POPE     H16Z     HAL3     0.900000E-01   1.00800           0
     13584 MEMB     122      POPE     N        NH3L    -0.300000       14.0070           0
     13585 MEMB     122      POPE     HN1      HCL      0.330000       1.00800           0
     13586 MEMB     122      POPE     HN2      HCL      0.330000       1.00800           0
     13587 MEMB     122      POPE     HN3      HCL      0.330000       1.00800           0
     13588 MEMB     122      POPE     C12      CTL2     0.130000       12.0110           0
     13589 MEMB     122      POPE     H12A     HAL2     0.900000E-01   1.00800           0
     13590 MEMB     122      POPE     H12B     HAL2     0.900000E-01   1.00800           0
     13591 MEMB     122      POPE     C11      CTL2    -0.800000E-01   12.0110           0
     13592 MEMB     122      POPE     H11A     HAL2     0.900000E-01   1.00800           0
     13593 MEMB     122      POPE     H11B     HAL2     0.900000E-01   1.00800           0
     13594 MEMB     122      POPE     P        PL        1.50000       30.9740           0
     13595 MEMB     122      POPE     O13      O2L     -0.780000       15.9994           0
     13596 MEMB     122      POPE     O14      O2L     -0.780000       15.9994           0
     13597 MEMB     122      POPE     O11      OSLP    -0.570000       15.9994           0
     13598 MEMB     122      POPE     O12      OSLP    -0.570000       15.9994           0
     13599 MEMB     122      POPE     C1       CTL2    -0.800000E-01   12.0110           0
     13600 MEMB     122      POPE     HA       HAL2     0.900000E-01   1.00800           0
     13601 MEMB     122      POPE     HB       HAL2     0.900000E-01   1.00800           0
     13602 MEMB     122      POPE     C2       CTL1     0.170000       12.0110           0
     13603 MEMB     122      POPE     HS       HAL1     0.900000E-01   1.00800           0
     13604 MEMB     122      POPE     O21      OSL     -0.490000       15.9994           0
     13605 MEMB     122      POPE     C21      CL       0.900000       12.0110           0
     13606 MEMB     122      POPE     O22      OBL     -0.630000       15.9994           0
     13607 MEMB     122      POPE     C22      CTL2    -0.220000       12.0110           0
     13608 MEMB     122      POPE     H2R      HAL2     0.900000E-01   1.00800           0
     13609 MEMB     122      POPE     H2S      HAL2     0.900000E-01   1.00800           0
     13610 MEMB     122      POPE     C3       CTL2     0.800000E-01   12.0110           0
     13611 MEMB     122      POPE     HX       HAL2     0.900000E-01   1.00800           0
     13612 MEMB     122      POPE     HY       HAL2     0.900000E-01   1.00800           0
     13613 MEMB     122      POPE     O31      OSL     -0.490000       15.9994           0
     13614 MEMB     122      POPE     C31      CL       0.900000       12.0110           0
     13615 MEMB     122      POPE     O32      OBL     -0.630000       15.9994           0
     13616 MEMB     122      POPE     C32      CTL2    -0.220000       12.0110           0
     13617 MEMB     122      POPE     H2X      HAL2     0.900000E-01   1.00800           0
     13618 MEMB     122      POPE     H2Y      HAL2     0.900000E-01   1.00800           0
     13619 MEMB     122      POPE     C23      CTL2    -0.180000       12.0110           0
     13620 MEMB     122      POPE     H3R      HAL2     0.900000E-01   1.00800           0
     13621 MEMB     122      POPE     H3S      HAL2     0.900000E-01   1.00800           0
     13622 MEMB     122      POPE     C24      CTL2    -0.180000       12.0110           0
     13623 MEMB     122      POPE     H4R      HAL2     0.900000E-01   1.00800           0
     13624 MEMB     122      POPE     H4S      HAL2     0.900000E-01   1.00800           0
     13625 MEMB     122      POPE     C25      CTL2    -0.180000       12.0110           0
     13626 MEMB     122      POPE     H5R      HAL2     0.900000E-01   1.00800           0
     13627 MEMB     122      POPE     H5S      HAL2     0.900000E-01   1.00800           0
     13628 MEMB     122      POPE     C26      CTL2    -0.180000       12.0110           0
     13629 MEMB     122      POPE     H6R      HAL2     0.900000E-01   1.00800           0
     13630 MEMB     122      POPE     H6S      HAL2     0.900000E-01   1.00800           0
     13631 MEMB     122      POPE     C27      CTL2    -0.180000       12.0110           0
     13632 MEMB     122      POPE     H7R      HAL2     0.900000E-01   1.00800           0
     13633 MEMB     122      POPE     H7S      HAL2     0.900000E-01   1.00800           0
     13634 MEMB     122      POPE     C28      CTL2    -0.180000       12.0110           0
     13635 MEMB     122      POPE     H8R      HAL2     0.900000E-01   1.00800           0
     13636 MEMB     122      POPE     H8S      HAL2     0.900000E-01   1.00800           0
     13637 MEMB     122      POPE     C29      CEL1    -0.150000       12.0110           0
     13638 MEMB     122      POPE     H91      HEL1     0.150000       1.00800           0
     13639 MEMB     122      POPE     C210     CEL1    -0.150000       12.0110           0
     13640 MEMB     122      POPE     H101     HEL1     0.150000       1.00800           0
     13641 MEMB     122      POPE     C211     CTL2    -0.180000       12.0110           0
     13642 MEMB     122      POPE     H11R     HAL2     0.900000E-01   1.00800           0
     13643 MEMB     122      POPE     H11S     HAL2     0.900000E-01   1.00800           0
     13644 MEMB     122      POPE     C212     CTL2    -0.180000       12.0110           0
     13645 MEMB     122      POPE     H12R     HAL2     0.900000E-01   1.00800           0
     13646 MEMB     122      POPE     H12S     HAL2     0.900000E-01   1.00800           0
     13647 MEMB     122      POPE     C213     CTL2    -0.180000       12.0110           0
     13648 MEMB     122      POPE     H13R     HAL2     0.900000E-01   1.00800           0
     13649 MEMB     122      POPE     H13S     HAL2     0.900000E-01   1.00800           0
     13650 MEMB     122      POPE     C214     CTL2    -0.180000       12.0110           0
     13651 MEMB     122      POPE     H14R     HAL2     0.900000E-01   1.00800           0
     13652 MEMB     122      POPE     H14S     HAL2     0.900000E-01   1.00800           0
     13653 MEMB     122      POPE     C215     CTL2    -0.180000       12.0110           0
     13654 MEMB     122      POPE     H15R     HAL2     0.900000E-01   1.00800           0
     13655 MEMB     122      POPE     H15S     HAL2     0.900000E-01   1.00800           0
     13656 MEMB     122      POPE     C216     CTL2    -0.180000       12.0110           0
     13657 MEMB     122      POPE     H16R     HAL2     0.900000E-01   1.00800           0
     13658 MEMB     122      POPE     H16S     HAL2     0.900000E-01   1.00800           0
     13659 MEMB     122      POPE     C217     CTL2    -0.180000       12.0110           0
     13660 MEMB     122      POPE     H17R     HAL2     0.900000E-01   1.00800           0
     13661 MEMB     122      POPE     H17S     HAL2     0.900000E-01   1.00800           0
     13662 MEMB     122      POPE     C218     CTL3    -0.270000       12.0110           0
     13663 MEMB     122      POPE     H18R     HAL3     0.900000E-01   1.00800           0
     13664 MEMB     122      POPE     H18S     HAL3     0.900000E-01   1.00800           0
     13665 MEMB     122      POPE     H18T     HAL3     0.900000E-01   1.00800           0
     13666 MEMB     122      POPE     C33      CTL2    -0.180000       12.0110           0
     13667 MEMB     122      POPE     H3X      HAL2     0.900000E-01   1.00800           0
     13668 MEMB     122      POPE     H3Y      HAL2     0.900000E-01   1.00800           0
     13669 MEMB     122      POPE     C34      CTL2    -0.180000       12.0110           0
     13670 MEMB     122      POPE     H4X      HAL2     0.900000E-01   1.00800           0
     13671 MEMB     122      POPE     H4Y      HAL2     0.900000E-01   1.00800           0
     13672 MEMB     122      POPE     C35      CTL2    -0.180000       12.0110           0
     13673 MEMB     122      POPE     H5X      HAL2     0.900000E-01   1.00800           0
     13674 MEMB     122      POPE     H5Y      HAL2     0.900000E-01   1.00800           0
     13675 MEMB     122      POPE     C36      CTL2    -0.180000       12.0110           0
     13676 MEMB     122      POPE     H6X      HAL2     0.900000E-01   1.00800           0
     13677 MEMB     122      POPE     H6Y      HAL2     0.900000E-01   1.00800           0
     13678 MEMB     122      POPE     C37      CTL2    -0.180000       12.0110           0
     13679 MEMB     122      POPE     H7X      HAL2     0.900000E-01   1.00800           0
     13680 MEMB     122      POPE     H7Y      HAL2     0.900000E-01   1.00800           0
     13681 MEMB     122      POPE     C38      CTL2    -0.180000       12.0110           0
     13682 MEMB     122      POPE     H8X      HAL2     0.900000E-01   1.00800           0
     13683 MEMB     122      POPE     H8Y      HAL2     0.900000E-01   1.00800           0
     13684 MEMB     122      POPE     C39      CTL2    -0.180000       12.0110           0
     13685 MEMB     122      POPE     H9X      HAL2     0.900000E-01   1.00800           0
     13686 MEMB     122      POPE     H9Y      HAL2     0.900000E-01   1.00800           0
     13687 MEMB     122      POPE     C310     CTL2    -0.180000       12.0110           0
     13688 MEMB     122      POPE     H10X     HAL2     0.900000E-01   1.00800           0
     13689 MEMB     122      POPE     H10Y     HAL2     0.900000E-01   1.00800           0
     13690 MEMB     122      POPE     C311     CTL2    -0.180000       12.0110           0
     13691 MEMB     122      POPE     H11X     HAL2     0.900000E-01   1.00800           0
     13692 MEMB     122      POPE     H11Y     HAL2     0.900000E-01   1.00800           0
     13693 MEMB     122      POPE     C312     CTL2    -0.180000       12.0110           0
     13694 MEMB     122      POPE     H12X     HAL2     0.900000E-01   1.00800           0
     13695 MEMB     122      POPE     H12Y     HAL2     0.900000E-01   1.00800           0
     13696 MEMB     122      POPE     C313     CTL2    -0.180000       12.0110           0
     13697 MEMB     122      POPE     H13X     HAL2     0.900000E-01   1.00800           0
     13698 MEMB     122      POPE     H13Y     HAL2     0.900000E-01   1.00800           0
     13699 MEMB     122      POPE     C314     CTL2    -0.180000       12.0110           0
     13700 MEMB     122      POPE     H14X     HAL2     0.900000E-01   1.00800           0
     13701 MEMB     122      POPE     H14Y     HAL2     0.900000E-01   1.00800           0
     13702 MEMB     122      POPE     C315     CTL2    -0.180000       12.0110           0
     13703 MEMB     122      POPE     H15X     HAL2     0.900000E-01   1.00800           0
     13704 MEMB     122      POPE     H15Y     HAL2     0.900000E-01   1.00800           0
     13705 MEMB     122      POPE     C316     CTL3    -0.270000       12.0110           0
     13706 MEMB     122      POPE     H16X     HAL3     0.900000E-01   1.00800           0
     13707 MEMB     122      POPE     H16Y     HAL3     0.900000E-01   1.00800           0
     13708 MEMB     122      POPE     H16Z     HAL3     0.900000E-01   1.00800           0
     13709 MEMB     123      POPE     N        NH3L    -0.300000       14.0070           0
     13710 MEMB     123      POPE     HN1      HCL      0.330000       1.00800           0
     13711 MEMB     123      POPE     HN2      HCL      0.330000       1.00800           0
     13712 MEMB     123      POPE     HN3      HCL      0.330000       1.00800           0
     13713 MEMB     123      POPE     C12      CTL2     0.130000       12.0110           0
     13714 MEMB     123      POPE     H12A     HAL2     0.900000E-01   1.00800           0
     13715 MEMB     123      POPE     H12B     HAL2     0.900000E-01   1.00800           0
     13716 MEMB     123      POPE     C11      CTL2    -0.800000E-01   12.0110           0
     13717 MEMB     123      POPE     H11A     HAL2     0.900000E-01   1.00800           0
     13718 MEMB     123      POPE     H11B     HAL2     0.900000E-01   1.00800           0
     13719 MEMB     123      POPE     P        PL        1.50000       30.9740           0
     13720 MEMB     123      POPE     O13      O2L     -0.780000       15.9994           0
     13721 MEMB     123      POPE     O14      O2L     -0.780000       15.9994           0
     13722 MEMB     123      POPE     O11      OSLP    -0.570000       15.9994           0
     13723 MEMB     123      POPE     O12      OSLP    -0.570000       15.9994           0
     13724 MEMB     123      POPE     C1       CTL2    -0.800000E-01   12.0110           0
     13725 MEMB     123      POPE     HA       HAL2     0.900000E-01   1.00800           0
     13726 MEMB     123      POPE     HB       HAL2     0.900000E-01   1.00800           0
     13727 MEMB     123      POPE     C2       CTL1     0.170000       12.0110           0
     13728 MEMB     123      POPE     HS       HAL1     0.900000E-01   1.00800           0
     13729 MEMB     123      POPE     O21      OSL     -0.490000       15.9994           0
     13730 MEMB     123      POPE     C21      CL       0.900000       12.0110           0
     13731 MEMB     123      POPE     O22      OBL     -0.630000       15.9994           0
     13732 MEMB     123      POPE     C22      CTL2    -0.220000       12.0110           0
     13733 MEMB     123      POPE     H2R      HAL2     0.900000E-01   1.00800           0
     13734 MEMB     123      POPE     H2S      HAL2     0.900000E-01   1.00800           0
     13735 MEMB     123      POPE     C3       CTL2     0.800000E-01   12.0110           0
     13736 MEMB     123      POPE     HX       HAL2     0.900000E-01   1.00800           0
     13737 MEMB     123      POPE     HY       HAL2     0.900000E-01   1.00800           0
     13738 MEMB     123      POPE     O31      OSL     -0.490000       15.9994           0
     13739 MEMB     123      POPE     C31      CL       0.900000       12.0110           0
     13740 MEMB     123      POPE     O32      OBL     -0.630000       15.9994           0
     13741 MEMB     123      POPE     C32      CTL2    -0.220000       12.0110           0
     13742 MEMB     123      POPE     H2X      HAL2     0.900000E-01   1.00800           0
     13743 MEMB     123      POPE     H2Y      HAL2     0.900000E-01   1.00800           0
     13744 MEMB     123      POPE     C23      CTL2    -0.180000       12.0110           0
     13745 MEMB     123      POPE     H3R      HAL2     0.900000E-01   1.00800           0
     13746 MEMB     123      POPE     H3S      HAL2     0.900000E-01   1.00800           0
     13747 MEMB     123      POPE     C24      CTL2    -0.180000       12.0110           0
     13748 MEMB     123      POPE     H4R      HAL2     0.900000E-01   1.00800           0
     13749 MEMB     123      POPE     H4S      HAL2     0.900000E-01   1.00800           0
     13750 MEMB     123      POPE     C25      CTL2    -0.180000       12.0110           0
     13751 MEMB     123      POPE     H5R      HAL2     0.900000E-01   1.00800           0
     13752 MEMB     123      POPE     H5S      HAL2     0.900000E-01   1.00800           0
     13753 MEMB     123      POPE     C26      CTL2    -0.180000       12.0110           0
     13754 MEMB     123      POPE     H6R      HAL2     0.900000E-01   1.00800           0
     13755 MEMB     123      POPE     H6S      HAL2     0.900000E-01   1.00800           0
     13756 MEMB     123      POPE     C27      CTL2    -0.180000       12.0110           0
     13757 MEMB     123      POPE     H7R      HAL2     0.900000E-01   1.00800           0
     13758 MEMB     123      POPE     H7S      HAL2     0.900000E-01   1.00800           0
     13759 MEMB     123      POPE     C28      CTL2    -0.180000       12.0110           0
     13760 MEMB     123      POPE     H8R      HAL2     0.900000E-01   1.00800           0
     13761 MEMB     123      POPE     H8S      HAL2     0.900000E-01   1.00800           0
     13762 MEMB     123      POPE     C29      CEL1    -0.150000       12.0110           0
     13763 MEMB     123      POPE     H91      HEL1     0.150000       1.00800           0
     13764 MEMB     123      POPE     C210     CEL1    -0.150000       12.0110           0
     13765 MEMB     123      POPE     H101     HEL1     0.150000       1.00800           0
     13766 MEMB     123      POPE     C211     CTL2    -0.180000       12.0110           0
     13767 MEMB     123      POPE     H11R     HAL2     0.900000E-01   1.00800           0
     13768 MEMB     123      POPE     H11S     HAL2     0.900000E-01   1.00800           0
     13769 MEMB     123      POPE     C212     CTL2    -0.180000       12.0110           0
     13770 MEMB     123      POPE     H12R     HAL2     0.900000E-01   1.00800           0
     13771 MEMB     123      POPE     H12S     HAL2     0.900000E-01   1.00800           0
     13772 MEMB     123      POPE     C213     CTL2    -0.180000       12.0110           0
     13773 MEMB     123      POPE     H13R     HAL2     0.900000E-01   1.00800           0
     13774 MEMB     123      POPE     H13S     HAL2     0.900000E-01   1.00800           0
     13775 MEMB     123      POPE     C214     CTL2    -0.180000       12.0110           0
     13776 MEMB     123      POPE     H14R     HAL2     0.900000E-01   1.00800           0
     13777 MEMB     123      POPE     H14S     HAL2     0.900000E-01   1.00800           0
     13778 MEMB     123      POPE     C215     CTL2    -0.180000       12.0110           0
     13779 MEMB     123      POPE     H15R     HAL2     0.900000E-01   1.00800           0
     13780 MEMB     123      POPE     H15S     HAL2     0.900000E-01   1.00800           0
     13781 MEMB     123      POPE     C216     CTL2    -0.180000       12.0110           0
     13782 MEMB     123      POPE     H16R     HAL2     0.900000E-01   1.00800           0
     13783 MEMB     123      POPE     H16S     HAL2     0.900000E-01   1.00800           0
     13784 MEMB     123      POPE     C217     CTL2    -0.180000       12.0110           0
     13785 MEMB     123      POPE     H17R     HAL2     0.900000E-01   1.00800           0
     13786 MEMB     123      POPE     H17S     HAL2     0.900000E-01   1.00800           0
     13787 MEMB     123      POPE     C218     CTL3    -0.270000       12.0110           0
     13788 MEMB     123      POPE     H18R     HAL3     0.900000E-01   1.00800           0
     13789 MEMB     123      POPE     H18S     HAL3     0.900000E-01   1.00800           0
     13790 MEMB     123      POPE     H18T     HAL3     0.900000E-01   1.00800           0
     13791 MEMB     123      POPE     C33      CTL2    -0.180000       12.0110           0
     13792 MEMB     123      POPE     H3X      HAL2     0.900000E-01   1.00800           0
     13793 MEMB     123      POPE     H3Y      HAL2     0.900000E-01   1.00800           0
     13794 MEMB     123      POPE     C34      CTL2    -0.180000       12.0110           0
     13795 MEMB     123      POPE     H4X      HAL2     0.900000E-01   1.00800           0
     13796 MEMB     123      POPE     H4Y      HAL2     0.900000E-01   1.00800           0
     13797 MEMB     123      POPE     C35      CTL2    -0.180000       12.0110           0
     13798 MEMB     123      POPE     H5X      HAL2     0.900000E-01   1.00800           0
     13799 MEMB     123      POPE     H5Y      HAL2     0.900000E-01   1.00800           0
     13800 MEMB     123      POPE     C36      CTL2    -0.180000       12.0110           0
     13801 MEMB     123      POPE     H6X      HAL2     0.900000E-01   1.00800           0
     13802 MEMB     123      POPE     H6Y      HAL2     0.900000E-01   1.00800           0
     13803 MEMB     123      POPE     C37      CTL2    -0.180000       12.0110           0
     13804 MEMB     123      POPE     H7X      HAL2     0.900000E-01   1.00800           0
     13805 MEMB     123      POPE     H7Y      HAL2     0.900000E-01   1.00800           0
     13806 MEMB     123      POPE     C38      CTL2    -0.180000       12.0110           0
     13807 MEMB     123      POPE     H8X      HAL2     0.900000E-01   1.00800           0
     13808 MEMB     123      POPE     H8Y      HAL2     0.900000E-01   1.00800           0
     13809 MEMB     123      POPE     C39      CTL2    -0.180000       12.0110           0
     13810 MEMB     123      POPE     H9X      HAL2     0.900000E-01   1.00800           0
     13811 MEMB     123      POPE     H9Y      HAL2     0.900000E-01   1.00800           0
     13812 MEMB     123      POPE     C310     CTL2    -0.180000       12.0110           0
     13813 MEMB     123      POPE     H10X     HAL2     0.900000E-01   1.00800           0
     13814 MEMB     123      POPE     H10Y     HAL2     0.900000E-01   1.00800           0
     13815 MEMB     123      POPE     C311     CTL2    -0.180000       12.0110           0
     13816 MEMB     123      POPE     H11X     HAL2     0.900000E-01   1.00800           0
     13817 MEMB     123      POPE     H11Y     HAL2     0.900000E-01   1.00800           0
     13818 MEMB     123      POPE     C312     CTL2    -0.180000       12.0110           0
     13819 MEMB     123      POPE     H12X     HAL2     0.900000E-01   1.00800           0
     13820 MEMB     123      POPE     H12Y     HAL2     0.900000E-01   1.00800           0
     13821 MEMB     123      POPE     C313     CTL2    -0.180000       12.0110           0
     13822 MEMB     123      POPE     H13X     HAL2     0.900000E-01   1.00800           0
     13823 MEMB     123      POPE     H13Y     HAL2     0.900000E-01   1.00800           0
     13824 MEMB     123      POPE     C314     CTL2    -0.180000       12.0110           0
     13825 MEMB     123      POPE     H14X     HAL2     0.900000E-01   1.00800           0
     13826 MEMB     123      POPE     H14Y     HAL2     0.900000E-01   1.00800           0
     13827 MEMB     123      POPE     C315     CTL2    -0.180000       12.0110           0
     13828 MEMB     123      POPE     H15X     HAL2     0.900000E-01   1.00800           0
     13829 MEMB     123      POPE     H15Y     HAL2     0.900000E-01   1.00800           0
     13830 MEMB     123      POPE     C316     CTL3    -0.270000       12.0110           0
     13831 MEMB     123      POPE     H16X     HAL3     0.900000E-01   1.00800           0
     13832 MEMB     123      POPE     H16Y     HAL3     0.900000E-01   1.00800           0
     13833 MEMB     123      POPE     H16Z     HAL3     0.900000E-01   1.00800           0
     13834 MEMB     124      POPE     N        NH3L    -0.300000       14.0070           0
     13835 MEMB     124      POPE     HN1      HCL      0.330000       1.00800           0
     13836 MEMB     124      POPE     HN2      HCL      0.330000       1.00800           0
     13837 MEMB     124      POPE     HN3      HCL      0.330000       1.00800           0
     13838 MEMB     124      POPE     C12      CTL2     0.130000       12.0110           0
     13839 MEMB     124      POPE     H12A     HAL2     0.900000E-01   1.00800           0
     13840 MEMB     124      POPE     H12B     HAL2     0.900000E-01   1.00800           0
     13841 MEMB     124      POPE     C11      CTL2    -0.800000E-01   12.0110           0
     13842 MEMB     124      POPE     H11A     HAL2     0.900000E-01   1.00800           0
     13843 MEMB     124      POPE     H11B     HAL2     0.900000E-01   1.00800           0
     13844 MEMB     124      POPE     P        PL        1.50000       30.9740           0
     13845 MEMB     124      POPE     O13      O2L     -0.780000       15.9994           0
     13846 MEMB     124      POPE     O14      O2L     -0.780000       15.9994           0
     13847 MEMB     124      POPE     O11      OSLP    -0.570000       15.9994           0
     13848 MEMB     124      POPE     O12      OSLP    -0.570000       15.9994           0
     13849 MEMB     124      POPE     C1       CTL2    -0.800000E-01   12.0110           0
     13850 MEMB     124      POPE     HA       HAL2     0.900000E-01   1.00800           0
     13851 MEMB     124      POPE     HB       HAL2     0.900000E-01   1.00800           0
     13852 MEMB     124      POPE     C2       CTL1     0.170000       12.0110           0
     13853 MEMB     124      POPE     HS       HAL1     0.900000E-01   1.00800           0
     13854 MEMB     124      POPE     O21      OSL     -0.490000       15.9994           0
     13855 MEMB     124      POPE     C21      CL       0.900000       12.0110           0
     13856 MEMB     124      POPE     O22      OBL     -0.630000       15.9994           0
     13857 MEMB     124      POPE     C22      CTL2    -0.220000       12.0110           0
     13858 MEMB     124      POPE     H2R      HAL2     0.900000E-01   1.00800           0
     13859 MEMB     124      POPE     H2S      HAL2     0.900000E-01   1.00800           0
     13860 MEMB     124      POPE     C3       CTL2     0.800000E-01   12.0110           0
     13861 MEMB     124      POPE     HX       HAL2     0.900000E-01   1.00800           0
     13862 MEMB     124      POPE     HY       HAL2     0.900000E-01   1.00800           0
     13863 MEMB     124      POPE     O31      OSL     -0.490000       15.9994           0
     13864 MEMB     124      POPE     C31      CL       0.900000       12.0110           0
     13865 MEMB     124      POPE     O32      OBL     -0.630000       15.9994           0
     13866 MEMB     124      POPE     C32      CTL2    -0.220000       12.0110           0
     13867 MEMB     124      POPE     H2X      HAL2     0.900000E-01   1.00800           0
     13868 MEMB     124      POPE     H2Y      HAL2     0.900000E-01   1.00800           0
     13869 MEMB     124      POPE     C23      CTL2    -0.180000       12.0110           0
     13870 MEMB     124      POPE     H3R      HAL2     0.900000E-01   1.00800           0
     13871 MEMB     124      POPE     H3S      HAL2     0.900000E-01   1.00800           0
     13872 MEMB     124      POPE     C24      CTL2    -0.180000       12.0110           0
     13873 MEMB     124      POPE     H4R      HAL2     0.900000E-01   1.00800           0
     13874 MEMB     124      POPE     H4S      HAL2     0.900000E-01   1.00800           0
     13875 MEMB     124      POPE     C25      CTL2    -0.180000       12.0110           0
     13876 MEMB     124      POPE     H5R      HAL2     0.900000E-01   1.00800           0
     13877 MEMB     124      POPE     H5S      HAL2     0.900000E-01   1.00800           0
     13878 MEMB     124      POPE     C26      CTL2    -0.180000       12.0110           0
     13879 MEMB     124      POPE     H6R      HAL2     0.900000E-01   1.00800           0
     13880 MEMB     124      POPE     H6S      HAL2     0.900000E-01   1.00800           0
     13881 MEMB     124      POPE     C27      CTL2    -0.180000       12.0110           0
     13882 MEMB     124      POPE     H7R      HAL2     0.900000E-01   1.00800           0
     13883 MEMB     124      POPE     H7S      HAL2     0.900000E-01   1.00800           0
     13884 MEMB     124      POPE     C28      CTL2    -0.180000       12.0110           0
     13885 MEMB     124      POPE     H8R      HAL2     0.900000E-01   1.00800           0
     13886 MEMB     124      POPE     H8S      HAL2     0.900000E-01   1.00800           0
     13887 MEMB     124      POPE     C29      CEL1    -0.150000       12.0110           0
     13888 MEMB     124      POPE     H91      HEL1     0.150000       1.00800           0
     13889 MEMB     124      POPE     C210     CEL1    -0.150000       12.0110           0
     13890 MEMB     124      POPE     H101     HEL1     0.150000       1.00800           0
     13891 MEMB     124      POPE     C211     CTL2    -0.180000       12.0110           0
     13892 MEMB     124      POPE     H11R     HAL2     0.900000E-01   1.00800           0
     13893 MEMB     124      POPE     H11S     HAL2     0.900000E-01   1.00800           0
     13894 MEMB     124      POPE     C212     CTL2    -0.180000       12.0110           0
     13895 MEMB     124      POPE     H12R     HAL2     0.900000E-01   1.00800           0
     13896 MEMB     124      POPE     H12S     HAL2     0.900000E-01   1.00800           0
     13897 MEMB     124      POPE     C213     CTL2    -0.180000       12.0110           0
     13898 MEMB     124      POPE     H13R     HAL2     0.900000E-01   1.00800           0
     13899 MEMB     124      POPE     H13S     HAL2     0.900000E-01   1.00800           0
     13900 MEMB     124      POPE     C214     CTL2    -0.180000       12.0110           0
     13901 MEMB     124      POPE     H14R     HAL2     0.900000E-01   1.00800           0
     13902 MEMB     124      POPE     H14S     HAL2     0.900000E-01   1.00800           0
     13903 MEMB     124      POPE     C215     CTL2    -0.180000       12.0110           0
     13904 MEMB     124      POPE     H15R     HAL2     0.900000E-01   1.00800           0
     13905 MEMB     124      POPE     H15S     HAL2     0.900000E-01   1.00800           0
     13906 MEMB     124      POPE     C216     CTL2    -0.180000       12.0110           0
     13907 MEMB     124      POPE     H16R     HAL2     0.900000E-01   1.00800           0
     13908 MEMB     124      POPE     H16S     HAL2     0.900000E-01   1.00800           0
     13909 MEMB     124      POPE     C217     CTL2    -0.180000       12.0110           0
     13910 MEMB     124      POPE     H17R     HAL2     0.900000E-01   1.00800           0
     13911 MEMB     124      POPE     H17S     HAL2     0.900000E-01   1.00800           0
     13912 MEMB     124      POPE     C218     CTL3    -0.270000       12.0110           0
     13913 MEMB     124      POPE     H18R     HAL3     0.900000E-01   1.00800           0
     13914 MEMB     124      POPE     H18S     HAL3     0.900000E-01   1.00800           0
     13915 MEMB     124      POPE     H18T     HAL3     0.900000E-01   1.00800           0
     13916 MEMB     124      POPE     C33      CTL2    -0.180000       12.0110           0
     13917 MEMB     124      POPE     H3X      HAL2     0.900000E-01   1.00800           0
     13918 MEMB     124      POPE     H3Y      HAL2     0.900000E-01   1.00800           0
     13919 MEMB     124      POPE     C34      CTL2    -0.180000       12.0110           0
     13920 MEMB     124      POPE     H4X      HAL2     0.900000E-01   1.00800           0
     13921 MEMB     124      POPE     H4Y      HAL2     0.900000E-01   1.00800           0
     13922 MEMB     124      POPE     C35      CTL2    -0.180000       12.0110           0
     13923 MEMB     124      POPE     H5X      HAL2     0.900000E-01   1.00800           0
     13924 MEMB     124      POPE     H5Y      HAL2     0.900000E-01   1.00800           0
     13925 MEMB     124      POPE     C36      CTL2    -0.180000       12.0110           0
     13926 MEMB     124      POPE     H6X      HAL2     0.900000E-01   1.00800           0
     13927 MEMB     124      POPE     H6Y      HAL2     0.900000E-01   1.00800           0
     13928 MEMB     124      POPE     C37      CTL2    -0.180000       12.0110           0
     13929 MEMB     124      POPE     H7X      HAL2     0.900000E-01   1.00800           0
     13930 MEMB     124      POPE     H7Y      HAL2     0.900000E-01   1.00800           0
     13931 MEMB     124      POPE     C38      CTL2    -0.180000       12.0110           0
     13932 MEMB     124      POPE     H8X      HAL2     0.900000E-01   1.00800           0
     13933 MEMB     124      POPE     H8Y      HAL2     0.900000E-01   1.00800           0
     13934 MEMB     124      POPE     C39      CTL2    -0.180000       12.0110           0
     13935 MEMB     124      POPE     H9X      HAL2     0.900000E-01   1.00800           0
     13936 MEMB     124      POPE     H9Y      HAL2     0.900000E-01   1.00800           0
     13937 MEMB     124      POPE     C310     CTL2    -0.180000       12.0110           0
     13938 MEMB     124      POPE     H10X     HAL2     0.900000E-01   1.00800           0
     13939 MEMB     124      POPE     H10Y     HAL2     0.900000E-01   1.00800           0
     13940 MEMB     124      POPE     C311     CTL2    -0.180000       12.0110           0
     13941 MEMB     124      POPE     H11X     HAL2     0.900000E-01   1.00800           0
     13942 MEMB     124      POPE     H11Y     HAL2     0.900000E-01   1.00800           0
     13943 MEMB     124      POPE     C312     CTL2    -0.180000       12.0110           0
     13944 MEMB     124      POPE     H12X     HAL2     0.900000E-01   1.00800           0
     13945 MEMB     124      POPE     H12Y     HAL2     0.900000E-01   1.00800           0
     13946 MEMB     124      POPE     C313     CTL2    -0.180000       12.0110           0
     13947 MEMB     124      POPE     H13X     HAL2     0.900000E-01   1.00800           0
     13948 MEMB     124      POPE     H13Y     HAL2     0.900000E-01   1.00800           0
     13949 MEMB     124      POPE     C314     CTL2    -0.180000       12.0110           0
     13950 MEMB     124      POPE     H14X     HAL2     0.900000E-01   1.00800           0
     13951 MEMB     124      POPE     H14Y     HAL2     0.900000E-01   1.00800           0
     13952 MEMB     124      POPE     C315     CTL2    -0.180000       12.0110           0
     13953 MEMB     124      POPE     H15X     HAL2     0.900000E-01   1.00800           0
     13954 MEMB     124      POPE     H15Y     HAL2     0.900000E-01   1.00800           0
     13955 MEMB     124      POPE     C316     CTL3    -0.270000       12.0110           0
     13956 MEMB     124      POPE     H16X     HAL3     0.900000E-01   1.00800           0
     13957 MEMB     124      POPE     H16Y     HAL3     0.900000E-01   1.00800           0
     13958 MEMB     124      POPE     H16Z     HAL3     0.900000E-01   1.00800           0
     13959 MEMB     125      POPE     N        NH3L    -0.300000       14.0070           0
     13960 MEMB     125      POPE     HN1      HCL      0.330000       1.00800           0
     13961 MEMB     125      POPE     HN2      HCL      0.330000       1.00800           0
     13962 MEMB     125      POPE     HN3      HCL      0.330000       1.00800           0
     13963 MEMB     125      POPE     C12      CTL2     0.130000       12.0110           0
     13964 MEMB     125      POPE     H12A     HAL2     0.900000E-01   1.00800           0
     13965 MEMB     125      POPE     H12B     HAL2     0.900000E-01   1.00800           0
     13966 MEMB     125      POPE     C11      CTL2    -0.800000E-01   12.0110           0
     13967 MEMB     125      POPE     H11A     HAL2     0.900000E-01   1.00800           0
     13968 MEMB     125      POPE     H11B     HAL2     0.900000E-01   1.00800           0
     13969 MEMB     125      POPE     P        PL        1.50000       30.9740           0
     13970 MEMB     125      POPE     O13      O2L     -0.780000       15.9994           0
     13971 MEMB     125      POPE     O14      O2L     -0.780000       15.9994           0
     13972 MEMB     125      POPE     O11      OSLP    -0.570000       15.9994           0
     13973 MEMB     125      POPE     O12      OSLP    -0.570000       15.9994           0
     13974 MEMB     125      POPE     C1       CTL2    -0.800000E-01   12.0110           0
     13975 MEMB     125      POPE     HA       HAL2     0.900000E-01   1.00800           0
     13976 MEMB     125      POPE     HB       HAL2     0.900000E-01   1.00800           0
     13977 MEMB     125      POPE     C2       CTL1     0.170000       12.0110           0
     13978 MEMB     125      POPE     HS       HAL1     0.900000E-01   1.00800           0
     13979 MEMB     125      POPE     O21      OSL     -0.490000       15.9994           0
     13980 MEMB     125      POPE     C21      CL       0.900000       12.0110           0
     13981 MEMB     125      POPE     O22      OBL     -0.630000       15.9994           0
     13982 MEMB     125      POPE     C22      CTL2    -0.220000       12.0110           0
     13983 MEMB     125      POPE     H2R      HAL2     0.900000E-01   1.00800           0
     13984 MEMB     125      POPE     H2S      HAL2     0.900000E-01   1.00800           0
     13985 MEMB     125      POPE     C3       CTL2     0.800000E-01   12.0110           0
     13986 MEMB     125      POPE     HX       HAL2     0.900000E-01   1.00800           0
     13987 MEMB     125      POPE     HY       HAL2     0.900000E-01   1.00800           0
     13988 MEMB     125      POPE     O31      OSL     -0.490000       15.9994           0
     13989 MEMB     125      POPE     C31      CL       0.900000       12.0110           0
     13990 MEMB     125      POPE     O32      OBL     -0.630000       15.9994           0
     13991 MEMB     125      POPE     C32      CTL2    -0.220000       12.0110           0
     13992 MEMB     125      POPE     H2X      HAL2     0.900000E-01   1.00800           0
     13993 MEMB     125      POPE     H2Y      HAL2     0.900000E-01   1.00800           0
     13994 MEMB     125      POPE     C23      CTL2    -0.180000       12.0110           0
     13995 MEMB     125      POPE     H3R      HAL2     0.900000E-01   1.00800           0
     13996 MEMB     125      POPE     H3S      HAL2     0.900000E-01   1.00800           0
     13997 MEMB     125      POPE     C24      CTL2    -0.180000       12.0110           0
     13998 MEMB     125      POPE     H4R      HAL2     0.900000E-01   1.00800           0
     13999 MEMB     125      POPE     H4S      HAL2     0.900000E-01   1.00800           0
     14000 MEMB     125      POPE     C25      CTL2    -0.180000       12.0110           0
     14001 MEMB     125      POPE     H5R      HAL2     0.900000E-01   1.00800           0
     14002 MEMB     125      POPE     H5S      HAL2     0.900000E-01   1.00800           0
     14003 MEMB     125      POPE     C26      CTL2    -0.180000       12.0110           0
     14004 MEMB     125      POPE     H6R      HAL2     0.900000E-01   1.00800           0
     14005 MEMB     125      POPE     H6S      HAL2     0.900000E-01   1.00800           0
     14006 MEMB     125      POPE     C27      CTL2    -0.180000       12.0110           0
     14007 MEMB     125      POPE     H7R      HAL2     0.900000E-01   1.00800           0
     14008 MEMB     125      POPE     H7S      HAL2     0.900000E-01   1.00800           0
     14009 MEMB     125      POPE     C28      CTL2    -0.180000       12.0110           0
     14010 MEMB     125      POPE     H8R      HAL2     0.900000E-01   1.00800           0
     14011 MEMB     125      POPE     H8S      HAL2     0.900000E-01   1.00800           0
     14012 MEMB     125      POPE     C29      CEL1    -0.150000       12.0110           0
     14013 MEMB     125      POPE     H91      HEL1     0.150000       1.00800           0
     14014 MEMB     125      POPE     C210     CEL1    -0.150000       12.0110           0
     14015 MEMB     125      POPE     H101     HEL1     0.150000       1.00800           0
     14016 MEMB     125      POPE     C211     CTL2    -0.180000       12.0110           0
     14017 MEMB     125      POPE     H11R     HAL2     0.900000E-01   1.00800           0
     14018 MEMB     125      POPE     H11S     HAL2     0.900000E-01   1.00800           0
     14019 MEMB     125      POPE     C212     CTL2    -0.180000       12.0110           0
     14020 MEMB     125      POPE     H12R     HAL2     0.900000E-01   1.00800           0
     14021 MEMB     125      POPE     H12S     HAL2     0.900000E-01   1.00800           0
     14022 MEMB     125      POPE     C213     CTL2    -0.180000       12.0110           0
     14023 MEMB     125      POPE     H13R     HAL2     0.900000E-01   1.00800           0
     14024 MEMB     125      POPE     H13S     HAL2     0.900000E-01   1.00800           0
     14025 MEMB     125      POPE     C214     CTL2    -0.180000       12.0110           0
     14026 MEMB     125      POPE     H14R     HAL2     0.900000E-01   1.00800           0
     14027 MEMB     125      POPE     H14S     HAL2     0.900000E-01   1.00800           0
     14028 MEMB     125      POPE     C215     CTL2    -0.180000       12.0110           0
     14029 MEMB     125      POPE     H15R     HAL2     0.900000E-01   1.00800           0
     14030 MEMB     125      POPE     H15S     HAL2     0.900000E-01   1.00800           0
     14031 MEMB     125      POPE     C216     CTL2    -0.180000       12.0110           0
     14032 MEMB     125      POPE     H16R     HAL2     0.900000E-01   1.00800           0
     14033 MEMB     125      POPE     H16S     HAL2     0.900000E-01   1.00800           0
     14034 MEMB     125      POPE     C217     CTL2    -0.180000       12.0110           0
     14035 MEMB     125      POPE     H17R     HAL2     0.900000E-01   1.00800           0
     14036 MEMB     125      POPE     H17S     HAL2     0.900000E-01   1.00800           0
     14037 MEMB     125      POPE     C218     CTL3    -0.270000       12.0110           0
     14038 MEMB     125      POPE     H18R     HAL3     0.900000E-01   1.00800           0
     14039 MEMB     125      POPE     H18S     HAL3     0.900000E-01   1.00800           0
     14040 MEMB     125      POPE     H18T     HAL3     0.900000E-01   1.00800           0
     14041 MEMB     125      POPE     C33      CTL2    -0.180000       12.0110           0
     14042 MEMB     125      POPE     H3X      HAL2     0.900000E-01   1.00800           0
     14043 MEMB     125      POPE     H3Y      HAL2     0.900000E-01   1.00800           0
     14044 MEMB     125      POPE     C34      CTL2    -0.180000       12.0110           0
     14045 MEMB     125      POPE     H4X      HAL2     0.900000E-01   1.00800           0
     14046 MEMB     125      POPE     H4Y      HAL2     0.900000E-01   1.00800           0
     14047 MEMB     125      POPE     C35      CTL2    -0.180000       12.0110           0
     14048 MEMB     125      POPE     H5X      HAL2     0.900000E-01   1.00800           0
     14049 MEMB     125      POPE     H5Y      HAL2     0.900000E-01   1.00800           0
     14050 MEMB     125      POPE     C36      CTL2    -0.180000       12.0110           0
     14051 MEMB     125      POPE     H6X      HAL2     0.900000E-01   1.00800           0
     14052 MEMB     125      POPE     H6Y      HAL2     0.900000E-01   1.00800           0
     14053 MEMB     125      POPE     C37      CTL2    -0.180000       12.0110           0
     14054 MEMB     125      POPE     H7X      HAL2     0.900000E-01   1.00800           0
     14055 MEMB     125      POPE     H7Y      HAL2     0.900000E-01   1.00800           0
     14056 MEMB     125      POPE     C38      CTL2    -0.180000       12.0110           0
     14057 MEMB     125      POPE     H8X      HAL2     0.900000E-01   1.00800           0
     14058 MEMB     125      POPE     H8Y      HAL2     0.900000E-01   1.00800           0
     14059 MEMB     125      POPE     C39      CTL2    -0.180000       12.0110           0
     14060 MEMB     125      POPE     H9X      HAL2     0.900000E-01   1.00800           0
     14061 MEMB     125      POPE     H9Y      HAL2     0.900000E-01   1.00800           0
     14062 MEMB     125      POPE     C310     CTL2    -0.180000       12.0110           0
     14063 MEMB     125      POPE     H10X     HAL2     0.900000E-01   1.00800           0
     14064 MEMB     125      POPE     H10Y     HAL2     0.900000E-01   1.00800           0
     14065 MEMB     125      POPE     C311     CTL2    -0.180000       12.0110           0
     14066 MEMB     125      POPE     H11X     HAL2     0.900000E-01   1.00800           0
     14067 MEMB     125      POPE     H11Y     HAL2     0.900000E-01   1.00800           0
     14068 MEMB     125      POPE     C312     CTL2    -0.180000       12.0110           0
     14069 MEMB     125      POPE     H12X     HAL2     0.900000E-01   1.00800           0
     14070 MEMB     125      POPE     H12Y     HAL2     0.900000E-01   1.00800           0
     14071 MEMB     125      POPE     C313     CTL2    -0.180000       12.0110           0
     14072 MEMB     125      POPE     H13X     HAL2     0.900000E-01   1.00800           0
     14073 MEMB     125      POPE     H13Y     HAL2     0.900000E-01   1.00800           0
     14074 MEMB     125      POPE     C314     CTL2    -0.180000       12.0110           0
     14075 MEMB     125      POPE     H14X     HAL2     0.900000E-01   1.00800           0
     14076 MEMB     125      POPE     H14Y     HAL2     0.900000E-01   1.00800           0
     14077 MEMB     125      POPE     C315     CTL2    -0.180000       12.0110           0
     14078 MEMB     125      POPE     H15X     HAL2     0.900000E-01   1.00800           0
     14079 MEMB     125      POPE     H15Y     HAL2     0.900000E-01   1.00800           0
     14080 MEMB     125      POPE     C316     CTL3    -0.270000       12.0110           0
     14081 MEMB     125      POPE     H16X     HAL3     0.900000E-01   1.00800           0
     14082 MEMB     125      POPE     H16Y     HAL3     0.900000E-01   1.00800           0
     14083 MEMB     125      POPE     H16Z     HAL3     0.900000E-01   1.00800           0
     14084 MEMB     126      POPE     N        NH3L    -0.300000       14.0070           0
     14085 MEMB     126      POPE     HN1      HCL      0.330000       1.00800           0
     14086 MEMB     126      POPE     HN2      HCL      0.330000       1.00800           0
     14087 MEMB     126      POPE     HN3      HCL      0.330000       1.00800           0
     14088 MEMB     126      POPE     C12      CTL2     0.130000       12.0110           0
     14089 MEMB     126      POPE     H12A     HAL2     0.900000E-01   1.00800           0
     14090 MEMB     126      POPE     H12B     HAL2     0.900000E-01   1.00800           0
     14091 MEMB     126      POPE     C11      CTL2    -0.800000E-01   12.0110           0
     14092 MEMB     126      POPE     H11A     HAL2     0.900000E-01   1.00800           0
     14093 MEMB     126      POPE     H11B     HAL2     0.900000E-01   1.00800           0
     14094 MEMB     126      POPE     P        PL        1.50000       30.9740           0
     14095 MEMB     126      POPE     O13      O2L     -0.780000       15.9994           0
     14096 MEMB     126      POPE     O14      O2L     -0.780000       15.9994           0
     14097 MEMB     126      POPE     O11      OSLP    -0.570000       15.9994           0
     14098 MEMB     126      POPE     O12      OSLP    -0.570000       15.9994           0
     14099 MEMB     126      POPE     C1       CTL2    -0.800000E-01   12.0110           0
     14100 MEMB     126      POPE     HA       HAL2     0.900000E-01   1.00800           0
     14101 MEMB     126      POPE     HB       HAL2     0.900000E-01   1.00800           0
     14102 MEMB     126      POPE     C2       CTL1     0.170000       12.0110           0
     14103 MEMB     126      POPE     HS       HAL1     0.900000E-01   1.00800           0
     14104 MEMB     126      POPE     O21      OSL     -0.490000       15.9994           0
     14105 MEMB     126      POPE     C21      CL       0.900000       12.0110           0
     14106 MEMB     126      POPE     O22      OBL     -0.630000       15.9994           0
     14107 MEMB     126      POPE     C22      CTL2    -0.220000       12.0110           0
     14108 MEMB     126      POPE     H2R      HAL2     0.900000E-01   1.00800           0
     14109 MEMB     126      POPE     H2S      HAL2     0.900000E-01   1.00800           0
     14110 MEMB     126      POPE     C3       CTL2     0.800000E-01   12.0110           0
     14111 MEMB     126      POPE     HX       HAL2     0.900000E-01   1.00800           0
     14112 MEMB     126      POPE     HY       HAL2     0.900000E-01   1.00800           0
     14113 MEMB     126      POPE     O31      OSL     -0.490000       15.9994           0
     14114 MEMB     126      POPE     C31      CL       0.900000       12.0110           0
     14115 MEMB     126      POPE     O32      OBL     -0.630000       15.9994           0
     14116 MEMB     126      POPE     C32      CTL2    -0.220000       12.0110           0
     14117 MEMB     126      POPE     H2X      HAL2     0.900000E-01   1.00800           0
     14118 MEMB     126      POPE     H2Y      HAL2     0.900000E-01   1.00800           0
     14119 MEMB     126      POPE     C23      CTL2    -0.180000       12.0110           0
     14120 MEMB     126      POPE     H3R      HAL2     0.900000E-01   1.00800           0
     14121 MEMB     126      POPE     H3S      HAL2     0.900000E-01   1.00800           0
     14122 MEMB     126      POPE     C24      CTL2    -0.180000       12.0110           0
     14123 MEMB     126      POPE     H4R      HAL2     0.900000E-01   1.00800           0
     14124 MEMB     126      POPE     H4S      HAL2     0.900000E-01   1.00800           0
     14125 MEMB     126      POPE     C25      CTL2    -0.180000       12.0110           0
     14126 MEMB     126      POPE     H5R      HAL2     0.900000E-01   1.00800           0
     14127 MEMB     126      POPE     H5S      HAL2     0.900000E-01   1.00800           0
     14128 MEMB     126      POPE     C26      CTL2    -0.180000       12.0110           0
     14129 MEMB     126      POPE     H6R      HAL2     0.900000E-01   1.00800           0
     14130 MEMB     126      POPE     H6S      HAL2     0.900000E-01   1.00800           0
     14131 MEMB     126      POPE     C27      CTL2    -0.180000       12.0110           0
     14132 MEMB     126      POPE     H7R      HAL2     0.900000E-01   1.00800           0
     14133 MEMB     126      POPE     H7S      HAL2     0.900000E-01   1.00800           0
     14134 MEMB     126      POPE     C28      CTL2    -0.180000       12.0110           0
     14135 MEMB     126      POPE     H8R      HAL2     0.900000E-01   1.00800           0
     14136 MEMB     126      POPE     H8S      HAL2     0.900000E-01   1.00800           0
     14137 MEMB     126      POPE     C29      CEL1    -0.150000       12.0110           0
     14138 MEMB     126      POPE     H91      HEL1     0.150000       1.00800           0
     14139 MEMB     126      POPE     C210     CEL1    -0.150000       12.0110           0
     14140 MEMB     126      POPE     H101     HEL1     0.150000       1.00800           0
     14141 MEMB     126      POPE     C211     CTL2    -0.180000       12.0110           0
     14142 MEMB     126      POPE     H11R     HAL2     0.900000E-01   1.00800           0
     14143 MEMB     126      POPE     H11S     HAL2     0.900000E-01   1.00800           0
     14144 MEMB     126      POPE     C212     CTL2    -0.180000       12.0110           0
     14145 MEMB     126      POPE     H12R     HAL2     0.900000E-01   1.00800           0
     14146 MEMB     126      POPE     H12S     HAL2     0.900000E-01   1.00800           0
     14147 MEMB     126      POPE     C213     CTL2    -0.180000       12.0110           0
     14148 MEMB     126      POPE     H13R     HAL2     0.900000E-01   1.00800           0
     14149 MEMB     126      POPE     H13S     HAL2     0.900000E-01   1.00800           0
     14150 MEMB     126      POPE     C214     CTL2    -0.180000       12.0110           0
     14151 MEMB     126      POPE     H14R     HAL2     0.900000E-01   1.00800           0
     14152 MEMB     126      POPE     H14S     HAL2     0.900000E-01   1.00800           0
     14153 MEMB     126      POPE     C215     CTL2    -0.180000       12.0110           0
     14154 MEMB     126      POPE     H15R     HAL2     0.900000E-01   1.00800           0
     14155 MEMB     126      POPE     H15S     HAL2     0.900000E-01   1.00800           0
     14156 MEMB     126      POPE     C216     CTL2    -0.180000       12.0110           0
     14157 MEMB     126      POPE     H16R     HAL2     0.900000E-01   1.00800           0
     14158 MEMB     126      POPE     H16S     HAL2     0.900000E-01   1.00800           0
     14159 MEMB     126      POPE     C217     CTL2    -0.180000       12.0110           0
     14160 MEMB     126      POPE     H17R     HAL2     0.900000E-01   1.00800           0
     14161 MEMB     126      POPE     H17S     HAL2     0.900000E-01   1.00800           0
     14162 MEMB     126      POPE     C218     CTL3    -0.270000       12.0110           0
     14163 MEMB     126      POPE     H18R     HAL3     0.900000E-01   1.00800           0
     14164 MEMB     126      POPE     H18S     HAL3     0.900000E-01   1.00800           0
     14165 MEMB     126      POPE     H18T     HAL3     0.900000E-01   1.00800           0
     14166 MEMB     126      POPE     C33      CTL2    -0.180000       12.0110           0
     14167 MEMB     126      POPE     H3X      HAL2     0.900000E-01   1.00800           0
     14168 MEMB     126      POPE     H3Y      HAL2     0.900000E-01   1.00800           0
     14169 MEMB     126      POPE     C34      CTL2    -0.180000       12.0110           0
     14170 MEMB     126      POPE     H4X      HAL2     0.900000E-01   1.00800           0
     14171 MEMB     126      POPE     H4Y      HAL2     0.900000E-01   1.00800           0
     14172 MEMB     126      POPE     C35      CTL2    -0.180000       12.0110           0
     14173 MEMB     126      POPE     H5X      HAL2     0.900000E-01   1.00800           0
     14174 MEMB     126      POPE     H5Y      HAL2     0.900000E-01   1.00800           0
     14175 MEMB     126      POPE     C36      CTL2    -0.180000       12.0110           0
     14176 MEMB     126      POPE     H6X      HAL2     0.900000E-01   1.00800           0
     14177 MEMB     126      POPE     H6Y      HAL2     0.900000E-01   1.00800           0
     14178 MEMB     126      POPE     C37      CTL2    -0.180000       12.0110           0
     14179 MEMB     126      POPE     H7X      HAL2     0.900000E-01   1.00800           0
     14180 MEMB     126      POPE     H7Y      HAL2     0.900000E-01   1.00800           0
     14181 MEMB     126      POPE     C38      CTL2    -0.180000       12.0110           0
     14182 MEMB     126      POPE     H8X      HAL2     0.900000E-01   1.00800           0
     14183 MEMB     126      POPE     H8Y      HAL2     0.900000E-01   1.00800           0
     14184 MEMB     126      POPE     C39      CTL2    -0.180000       12.0110           0
     14185 MEMB     126      POPE     H9X      HAL2     0.900000E-01   1.00800           0
     14186 MEMB     126      POPE     H9Y      HAL2     0.900000E-01   1.00800           0
     14187 MEMB     126      POPE     C310     CTL2    -0.180000       12.0110           0
     14188 MEMB     126      POPE     H10X     HAL2     0.900000E-01   1.00800           0
     14189 MEMB     126      POPE     H10Y     HAL2     0.900000E-01   1.00800           0
     14190 MEMB     126      POPE     C311     CTL2    -0.180000       12.0110           0
     14191 MEMB     126      POPE     H11X     HAL2     0.900000E-01   1.00800           0
     14192 MEMB     126      POPE     H11Y     HAL2     0.900000E-01   1.00800           0
     14193 MEMB     126      POPE     C312     CTL2    -0.180000       12.0110           0
     14194 MEMB     126      POPE     H12X     HAL2     0.900000E-01   1.00800           0
     14195 MEMB     126      POPE     H12Y     HAL2     0.900000E-01   1.00800           0
     14196 MEMB     126      POPE     C313     CTL2    -0.180000       12.0110           0
     14197 MEMB     126      POPE     H13X     HAL2     0.900000E-01   1.00800           0
     14198 MEMB     126      POPE     H13Y     HAL2     0.900000E-01   1.00800           0
     14199 MEMB     126      POPE     C314     CTL2    -0.180000       12.0110           0
     14200 MEMB     126      POPE     H14X     HAL2     0.900000E-01   1.00800           0
     14201 MEMB     126      POPE     H14Y     HAL2     0.900000E-01   1.00800           0
     14202 MEMB     126      POPE     C315     CTL2    -0.180000       12.0110           0
     14203 MEMB     126      POPE     H15X     HAL2     0.900000E-01   1.00800           0
     14204 MEMB     126      POPE     H15Y     HAL2     0.900000E-01   1.00800           0
     14205 MEMB     126      POPE     C316     CTL3    -0.270000       12.0110           0
     14206 MEMB     126      POPE     H16X     HAL3     0.900000E-01   1.00800           0
     14207 MEMB     126      POPE     H16Y     HAL3     0.900000E-01   1.00800           0
     14208 MEMB     126      POPE     H16Z     HAL3     0.900000E-01   1.00800           0
     14209 MEMB     127      POPE     N        NH3L    -0.300000       14.0070           0
     14210 MEMB     127      POPE     HN1      HCL      0.330000       1.00800           0
     14211 MEMB     127      POPE     HN2      HCL      0.330000       1.00800           0
     14212 MEMB     127      POPE     HN3      HCL      0.330000       1.00800           0
     14213 MEMB     127      POPE     C12      CTL2     0.130000       12.0110           0
     14214 MEMB     127      POPE     H12A     HAL2     0.900000E-01   1.00800           0
     14215 MEMB     127      POPE     H12B     HAL2     0.900000E-01   1.00800           0
     14216 MEMB     127      POPE     C11      CTL2    -0.800000E-01   12.0110           0
     14217 MEMB     127      POPE     H11A     HAL2     0.900000E-01   1.00800           0
     14218 MEMB     127      POPE     H11B     HAL2     0.900000E-01   1.00800           0
     14219 MEMB     127      POPE     P        PL        1.50000       30.9740           0
     14220 MEMB     127      POPE     O13      O2L     -0.780000       15.9994           0
     14221 MEMB     127      POPE     O14      O2L     -0.780000       15.9994           0
     14222 MEMB     127      POPE     O11      OSLP    -0.570000       15.9994           0
     14223 MEMB     127      POPE     O12      OSLP    -0.570000       15.9994           0
     14224 MEMB     127      POPE     C1       CTL2    -0.800000E-01   12.0110           0
     14225 MEMB     127      POPE     HA       HAL2     0.900000E-01   1.00800           0
     14226 MEMB     127      POPE     HB       HAL2     0.900000E-01   1.00800           0
     14227 MEMB     127      POPE     C2       CTL1     0.170000       12.0110           0
     14228 MEMB     127      POPE     HS       HAL1     0.900000E-01   1.00800           0
     14229 MEMB     127      POPE     O21      OSL     -0.490000       15.9994           0
     14230 MEMB     127      POPE     C21      CL       0.900000       12.0110           0
     14231 MEMB     127      POPE     O22      OBL     -0.630000       15.9994           0
     14232 MEMB     127      POPE     C22      CTL2    -0.220000       12.0110           0
     14233 MEMB     127      POPE     H2R      HAL2     0.900000E-01   1.00800           0
     14234 MEMB     127      POPE     H2S      HAL2     0.900000E-01   1.00800           0
     14235 MEMB     127      POPE     C3       CTL2     0.800000E-01   12.0110           0
     14236 MEMB     127      POPE     HX       HAL2     0.900000E-01   1.00800           0
     14237 MEMB     127      POPE     HY       HAL2     0.900000E-01   1.00800           0
     14238 MEMB     127      POPE     O31      OSL     -0.490000       15.9994           0
     14239 MEMB     127      POPE     C31      CL       0.900000       12.0110           0
     14240 MEMB     127      POPE     O32      OBL     -0.630000       15.9994           0
     14241 MEMB     127      POPE     C32      CTL2    -0.220000       12.0110           0
     14242 MEMB     127      POPE     H2X      HAL2     0.900000E-01   1.00800           0
     14243 MEMB     127      POPE     H2Y      HAL2     0.900000E-01   1.00800           0
     14244 MEMB     127      POPE     C23      CTL2    -0.180000       12.0110           0
     14245 MEMB     127      POPE     H3R      HAL2     0.900000E-01   1.00800           0
     14246 MEMB     127      POPE     H3S      HAL2     0.900000E-01   1.00800           0
     14247 MEMB     127      POPE     C24      CTL2    -0.180000       12.0110           0
     14248 MEMB     127      POPE     H4R      HAL2     0.900000E-01   1.00800           0
     14249 MEMB     127      POPE     H4S      HAL2     0.900000E-01   1.00800           0
     14250 MEMB     127      POPE     C25      CTL2    -0.180000       12.0110           0
     14251 MEMB     127      POPE     H5R      HAL2     0.900000E-01   1.00800           0
     14252 MEMB     127      POPE     H5S      HAL2     0.900000E-01   1.00800           0
     14253 MEMB     127      POPE     C26      CTL2    -0.180000       12.0110           0
     14254 MEMB     127      POPE     H6R      HAL2     0.900000E-01   1.00800           0
     14255 MEMB     127      POPE     H6S      HAL2     0.900000E-01   1.00800           0
     14256 MEMB     127      POPE     C27      CTL2    -0.180000       12.0110           0
     14257 MEMB     127      POPE     H7R      HAL2     0.900000E-01   1.00800           0
     14258 MEMB     127      POPE     H7S      HAL2     0.900000E-01   1.00800           0
     14259 MEMB     127      POPE     C28      CTL2    -0.180000       12.0110           0
     14260 MEMB     127      POPE     H8R      HAL2     0.900000E-01   1.00800           0
     14261 MEMB     127      POPE     H8S      HAL2     0.900000E-01   1.00800           0
     14262 MEMB     127      POPE     C29      CEL1    -0.150000       12.0110           0
     14263 MEMB     127      POPE     H91      HEL1     0.150000       1.00800           0
     14264 MEMB     127      POPE     C210     CEL1    -0.150000       12.0110           0
     14265 MEMB     127      POPE     H101     HEL1     0.150000       1.00800           0
     14266 MEMB     127      POPE     C211     CTL2    -0.180000       12.0110           0
     14267 MEMB     127      POPE     H11R     HAL2     0.900000E-01   1.00800           0
     14268 MEMB     127      POPE     H11S     HAL2     0.900000E-01   1.00800           0
     14269 MEMB     127      POPE     C212     CTL2    -0.180000       12.0110           0
     14270 MEMB     127      POPE     H12R     HAL2     0.900000E-01   1.00800           0
     14271 MEMB     127      POPE     H12S     HAL2     0.900000E-01   1.00800           0
     14272 MEMB     127      POPE     C213     CTL2    -0.180000       12.0110           0
     14273 MEMB     127      POPE     H13R     HAL2     0.900000E-01   1.00800           0
     14274 MEMB     127      POPE     H13S     HAL2     0.900000E-01   1.00800           0
     14275 MEMB     127      POPE     C214     CTL2    -0.180000       12.0110           0
     14276 MEMB     127      POPE     H14R     HAL2     0.900000E-01   1.00800           0
     14277 MEMB     127      POPE     H14S     HAL2     0.900000E-01   1.00800           0
     14278 MEMB     127      POPE     C215     CTL2    -0.180000       12.0110           0
     14279 MEMB     127      POPE     H15R     HAL2     0.900000E-01   1.00800           0
     14280 MEMB     127      POPE     H15S     HAL2     0.900000E-01   1.00800           0
     14281 MEMB     127      POPE     C216     CTL2    -0.180000       12.0110           0
     14282 MEMB     127      POPE     H16R     HAL2     0.900000E-01   1.00800           0
     14283 MEMB     127      POPE     H16S     HAL2     0.900000E-01   1.00800           0
     14284 MEMB     127      POPE     C217     CTL2    -0.180000       12.0110           0
     14285 MEMB     127      POPE     H17R     HAL2     0.900000E-01   1.00800           0
     14286 MEMB     127      POPE     H17S     HAL2     0.900000E-01   1.00800           0
     14287 MEMB     127      POPE     C218     CTL3    -0.270000       12.0110           0
     14288 MEMB     127      POPE     H18R     HAL3     0.900000E-01   1.00800           0
     14289 MEMB     127      POPE     H18S     HAL3     0.900000E-01   1.00800           0
     14290 MEMB     127      POPE     H18T     HAL3     0.900000E-01   1.00800           0
     14291 MEMB     127      POPE     C33      CTL2    -0.180000       12.0110           0
     14292 MEMB     127      POPE     H3X      HAL2     0.900000E-01   1.00800           0
     14293 MEMB     127      POPE     H3Y      HAL2     0.900000E-01   1.00800           0
     14294 MEMB     127      POPE     C34      CTL2    -0.180000       12.0110           0
     14295 MEMB     127      POPE     H4X      HAL2     0.900000E-01   1.00800           0
     14296 MEMB     127      POPE     H4Y      HAL2     0.900000E-01   1.00800           0
     14297 MEMB     127      POPE     C35      CTL2    -0.180000       12.0110           0
     14298 MEMB     127      POPE     H5X      HAL2     0.900000E-01   1.00800           0
     14299 MEMB     127      POPE     H5Y      HAL2     0.900000E-01   1.00800           0
     14300 MEMB     127      POPE     C36      CTL2    -0.180000       12.0110           0
     14301 MEMB     127      POPE     H6X      HAL2     0.900000E-01   1.00800           0
     14302 MEMB     127      POPE     H6Y      HAL2     0.900000E-01   1.00800           0
     14303 MEMB     127      POPE     C37      CTL2    -0.180000       12.0110           0
     14304 MEMB     127      POPE     H7X      HAL2     0.900000E-01   1.00800           0
     14305 MEMB     127      POPE     H7Y      HAL2     0.900000E-01   1.00800           0
     14306 MEMB     127      POPE     C38      CTL2    -0.180000       12.0110           0
     14307 MEMB     127      POPE     H8X      HAL2     0.900000E-01   1.00800           0
     14308 MEMB     127      POPE     H8Y      HAL2     0.900000E-01   1.00800           0
     14309 MEMB     127      POPE     C39      CTL2    -0.180000       12.0110           0
     14310 MEMB     127      POPE     H9X      HAL2     0.900000E-01   1.00800           0
     14311 MEMB     127      POPE     H9Y      HAL2     0.900000E-01   1.00800           0
     14312 MEMB     127      POPE     C310     CTL2    -0.180000       12.0110           0
     14313 MEMB     127      POPE     H10X     HAL2     0.900000E-01   1.00800           0
     14314 MEMB     127      POPE     H10Y     HAL2     0.900000E-01   1.00800           0
     14315 MEMB     127      POPE     C311     CTL2    -0.180000       12.0110           0
     14316 MEMB     127      POPE     H11X     HAL2     0.900000E-01   1.00800           0
     14317 MEMB     127      POPE     H11Y     HAL2     0.900000E-01   1.00800           0
     14318 MEMB     127      POPE     C312     CTL2    -0.180000       12.0110           0
     14319 MEMB     127      POPE     H12X     HAL2     0.900000E-01   1.00800           0
     14320 MEMB     127      POPE     H12Y     HAL2     0.900000E-01   1.00800           0
     14321 MEMB     127      POPE     C313     CTL2    -0.180000       12.0110           0
     14322 MEMB     127      POPE     H13X     HAL2     0.900000E-01   1.00800           0
     14323 MEMB     127      POPE     H13Y     HAL2     0.900000E-01   1.00800           0
     14324 MEMB     127      POPE     C314     CTL2    -0.180000       12.0110           0
     14325 MEMB     127      POPE     H14X     HAL2     0.900000E-01   1.00800           0
     14326 MEMB     127      POPE     H14Y     HAL2     0.900000E-01   1.00800           0
     14327 MEMB     127      POPE     C315     CTL2    -0.180000       12.0110           0
     14328 MEMB     127      POPE     H15X     HAL2     0.900000E-01   1.00800           0
     14329 MEMB     127      POPE     H15Y     HAL2     0.900000E-01   1.00800           0
     14330 MEMB     127      POPE     C316     CTL3    -0.270000       12.0110           0
     14331 MEMB     127      POPE     H16X     HAL3     0.900000E-01   1.00800           0
     14332 MEMB     127      POPE     H16Y     HAL3     0.900000E-01   1.00800           0
     14333 MEMB     127      POPE     H16Z     HAL3     0.900000E-01   1.00800           0
     14334 MEMB     128      POPE     N        NH3L    -0.300000       14.0070           0
     14335 MEMB     128      POPE     HN1      HCL      0.330000       1.00800           0
     14336 MEMB     128      POPE     HN2      HCL      0.330000       1.00800           0
     14337 MEMB     128      POPE     HN3      HCL      0.330000       1.00800           0
     14338 MEMB     128      POPE     C12      CTL2     0.130000       12.0110           0
     14339 MEMB     128      POPE     H12A     HAL2     0.900000E-01   1.00800           0
     14340 MEMB     128      POPE     H12B     HAL2     0.900000E-01   1.00800           0
     14341 MEMB     128      POPE     C11      CTL2    -0.800000E-01   12.0110           0
     14342 MEMB     128      POPE     H11A     HAL2     0.900000E-01   1.00800           0
     14343 MEMB     128      POPE     H11B     HAL2     0.900000E-01   1.00800           0
     14344 MEMB     128      POPE     P        PL        1.50000       30.9740           0
     14345 MEMB     128      POPE     O13      O2L     -0.780000       15.9994           0
     14346 MEMB     128      POPE     O14      O2L     -0.780000       15.9994           0
     14347 MEMB     128      POPE     O11      OSLP    -0.570000       15.9994           0
     14348 MEMB     128      POPE     O12      OSLP    -0.570000       15.9994           0
     14349 MEMB     128      POPE     C1       CTL2    -0.800000E-01   12.0110           0
     14350 MEMB     128      POPE     HA       HAL2     0.900000E-01   1.00800           0
     14351 MEMB     128      POPE     HB       HAL2     0.900000E-01   1.00800           0
     14352 MEMB     128      POPE     C2       CTL1     0.170000       12.0110           0
     14353 MEMB     128      POPE     HS       HAL1     0.900000E-01   1.00800           0
     14354 MEMB     128      POPE     O21      OSL     -0.490000       15.9994           0
     14355 MEMB     128      POPE     C21      CL       0.900000       12.0110           0
     14356 MEMB     128      POPE     O22      OBL     -0.630000       15.9994           0
     14357 MEMB     128      POPE     C22      CTL2    -0.220000       12.0110           0
     14358 MEMB     128      POPE     H2R      HAL2     0.900000E-01   1.00800           0
     14359 MEMB     128      POPE     H2S      HAL2     0.900000E-01   1.00800           0
     14360 MEMB     128      POPE     C3       CTL2     0.800000E-01   12.0110           0
     14361 MEMB     128      POPE     HX       HAL2     0.900000E-01   1.00800           0
     14362 MEMB     128      POPE     HY       HAL2     0.900000E-01   1.00800           0
     14363 MEMB     128      POPE     O31      OSL     -0.490000       15.9994           0
     14364 MEMB     128      POPE     C31      CL       0.900000       12.0110           0
     14365 MEMB     128      POPE     O32      OBL     -0.630000       15.9994           0
     14366 MEMB     128      POPE     C32      CTL2    -0.220000       12.0110           0
     14367 MEMB     128      POPE     H2X      HAL2     0.900000E-01   1.00800           0
     14368 MEMB     128      POPE     H2Y      HAL2     0.900000E-01   1.00800           0
     14369 MEMB     128      POPE     C23      CTL2    -0.180000       12.0110           0
     14370 MEMB     128      POPE     H3R      HAL2     0.900000E-01   1.00800           0
     14371 MEMB     128      POPE     H3S      HAL2     0.900000E-01   1.00800           0
     14372 MEMB     128      POPE     C24      CTL2    -0.180000       12.0110           0
     14373 MEMB     128      POPE     H4R      HAL2     0.900000E-01   1.00800           0
     14374 MEMB     128      POPE     H4S      HAL2     0.900000E-01   1.00800           0
     14375 MEMB     128      POPE     C25      CTL2    -0.180000       12.0110           0
     14376 MEMB     128      POPE     H5R      HAL2     0.900000E-01   1.00800           0
     14377 MEMB     128      POPE     H5S      HAL2     0.900000E-01   1.00800           0
     14378 MEMB     128      POPE     C26      CTL2    -0.180000       12.0110           0
     14379 MEMB     128      POPE     H6R      HAL2     0.900000E-01   1.00800           0
     14380 MEMB     128      POPE     H6S      HAL2     0.900000E-01   1.00800           0
     14381 MEMB     128      POPE     C27      CTL2    -0.180000       12.0110           0
     14382 MEMB     128      POPE     H7R      HAL2     0.900000E-01   1.00800           0
     14383 MEMB     128      POPE     H7S      HAL2     0.900000E-01   1.00800           0
     14384 MEMB     128      POPE     C28      CTL2    -0.180000       12.0110           0
     14385 MEMB     128      POPE     H8R      HAL2     0.900000E-01   1.00800           0
     14386 MEMB     128      POPE     H8S      HAL2     0.900000E-01   1.00800           0
     14387 MEMB     128      POPE     C29      CEL1    -0.150000       12.0110           0
     14388 MEMB     128      POPE     H91      HEL1     0.150000       1.00800           0
     14389 MEMB     128      POPE     C210     CEL1    -0.150000       12.0110           0
     14390 MEMB     128      POPE     H101     HEL1     0.150000       1.00800           0
     14391 MEMB     128      POPE     C211     CTL2    -0.180000       12.0110           0
     14392 MEMB     128      POPE     H11R     HAL2     0.900000E-01   1.00800           0
     14393 MEMB     128      POPE     H11S     HAL2     0.900000E-01   1.00800           0
     14394 MEMB     128      POPE     C212     CTL2    -0.180000       12.0110           0
     14395 MEMB     128      POPE     H12R     HAL2     0.900000E-01   1.00800           0
     14396 MEMB     128      POPE     H12S     HAL2     0.900000E-01   1.00800           0
     14397 MEMB     128      POPE     C213     CTL2    -0.180000       12.0110           0
     14398 MEMB     128      POPE     H13R     HAL2     0.900000E-01   1.00800           0
     14399 MEMB     128      POPE     H13S     HAL2     0.900000E-01   1.00800           0
     14400 MEMB     128      POPE     C214     CTL2    -0.180000       12.0110           0
     14401 MEMB     128      POPE     H14R     HAL2     0.900000E-01   1.00800           0
     14402 MEMB     128      POPE     H14S     HAL2     0.900000E-01   1.00800           0
     14403 MEMB     128      POPE     C215     CTL2    -0.180000       12.0110           0
     14404 MEMB     128      POPE     H15R     HAL2     0.900000E-01   1.00800           0
     14405 MEMB     128      POPE     H15S     HAL2     0.900000E-01   1.00800           0
     14406 MEMB     128      POPE     C216     CTL2    -0.180000       12.0110           0
     14407 MEMB     128      POPE     H16R     HAL2     0.900000E-01   1.00800           0
     14408 MEMB     128      POPE     H16S     HAL2     0.900000E-01   1.00800           0
     14409 MEMB     128      POPE     C217     CTL2    -0.180000       12.0110           0
     14410 MEMB     128      POPE     H17R     HAL2     0.900000E-01   1.00800           0
     14411 MEMB     128      POPE     H17S     HAL2     0.900000E-01   1.00800           0
     14412 MEMB     128      POPE     C218     CTL3    -0.270000       12.0110           0
     14413 MEMB     128      POPE     H18R     HAL3     0.900000E-01   1.00800           0
     14414 MEMB     128      POPE     H18S     HAL3     0.900000E-01   1.00800           0
     14415 MEMB     128      POPE     H18T     HAL3     0.900000E-01   1.00800           0
     14416 MEMB     128      POPE     C33      CTL2    -0.180000       12.0110           0
     14417 MEMB     128      POPE     H3X      HAL2     0.900000E-01   1.00800           0
     14418 MEMB     128      POPE     H3Y      HAL2     0.900000E-01   1.00800           0
     14419 MEMB     128      POPE     C34      CTL2    -0.180000       12.0110           0
     14420 MEMB     128      POPE     H4X      HAL2     0.900000E-01   1.00800           0
     14421 MEMB     128      POPE     H4Y      HAL2     0.900000E-01   1.00800           0
     14422 MEMB     128      POPE     C35      CTL2    -0.180000       12.0110           0
     14423 MEMB     128      POPE     H5X      HAL2     0.900000E-01   1.00800           0
     14424 MEMB     128      POPE     H5Y      HAL2     0.900000E-01   1.00800           0
     14425 MEMB     128      POPE     C36      CTL2    -0.180000       12.0110           0
     14426 MEMB     128      POPE     H6X      HAL2     0.900000E-01   1.00800           0
     14427 MEMB     128      POPE     H6Y      HAL2     0.900000E-01   1.00800           0
     14428 MEMB     128      POPE     C37      CTL2    -0.180000       12.0110           0
     14429 MEMB     128      POPE     H7X      HAL2     0.900000E-01   1.00800           0
     14430 MEMB     128      POPE     H7Y      HAL2     0.900000E-01   1.00800           0
     14431 MEMB     128      POPE     C38      CTL2    -0.180000       12.0110           0
     14432 MEMB     128      POPE     H8X      HAL2     0.900000E-01   1.00800           0
     14433 MEMB     128      POPE     H8Y      HAL2     0.900000E-01   1.00800           0
     14434 MEMB     128      POPE     C39      CTL2    -0.180000       12.0110           0
     14435 MEMB     128      POPE     H9X      HAL2     0.900000E-01   1.00800           0
     14436 MEMB     128      POPE     H9Y      HAL2     0.900000E-01   1.00800           0
     14437 MEMB     128      POPE     C310     CTL2    -0.180000       12.0110           0
     14438 MEMB     128      POPE     H10X     HAL2     0.900000E-01   1.00800           0
     14439 MEMB     128      POPE     H10Y     HAL2     0.900000E-01   1.00800           0
     14440 MEMB     128      POPE     C311     CTL2    -0.180000       12.0110           0
     14441 MEMB     128      POPE     H11X     HAL2     0.900000E-01   1.00800           0
     14442 MEMB     128      POPE     H11Y     HAL2     0.900000E-01   1.00800           0
     14443 MEMB     128      POPE     C312     CTL2    -0.180000       12.0110           0
     14444 MEMB     128      POPE     H12X     HAL2     0.900000E-01   1.00800           0
     14445 MEMB     128      POPE     H12Y     HAL2     0.900000E-01   1.00800           0
     14446 MEMB     128      POPE     C313     CTL2    -0.180000       12.0110           0
     14447 MEMB     128      POPE     H13X     HAL2     0.900000E-01   1.00800           0
     14448 MEMB     128      POPE     H13Y     HAL2     0.900000E-01   1.00800           0
     14449 MEMB     128      POPE     C314     CTL2    -0.180000       12.0110           0
     14450 MEMB     128      POPE     H14X     HAL2     0.900000E-01   1.00800           0
     14451 MEMB     128      POPE     H14Y     HAL2     0.900000E-01   1.00800           0
     14452 MEMB     128      POPE     C315     CTL2    -0.180000       12.0110           0
     14453 MEMB     128      POPE     H15X     HAL2     0.900000E-01   1.00800           0
     14454 MEMB     128      POPE     H15Y     HAL2     0.900000E-01   1.00800           0
     14455 MEMB     128      POPE     C316     CTL3    -0.270000       12.0110           0
     14456 MEMB     128      POPE     H16X     HAL3     0.900000E-01   1.00800           0
     14457 MEMB     128      POPE     H16Y     HAL3     0.900000E-01   1.00800           0
     14458 MEMB     128      POPE     H16Z     HAL3     0.900000E-01   1.00800           0
     14459 MEMB     129      POPE     N        NH3L    -0.300000       14.0070           0
     14460 MEMB     129      POPE     HN1      HCL      0.330000       1.00800           0
     14461 MEMB     129      POPE     HN2      HCL      0.330000       1.00800           0
     14462 MEMB     129      POPE     HN3      HCL      0.330000       1.00800           0
     14463 MEMB     129      POPE     C12      CTL2     0.130000       12.0110           0
     14464 MEMB     129      POPE     H12A     HAL2     0.900000E-01   1.00800           0
     14465 MEMB     129      POPE     H12B     HAL2     0.900000E-01   1.00800           0
     14466 MEMB     129      POPE     C11      CTL2    -0.800000E-01   12.0110           0
     14467 MEMB     129      POPE     H11A     HAL2     0.900000E-01   1.00800           0
     14468 MEMB     129      POPE     H11B     HAL2     0.900000E-01   1.00800           0
     14469 MEMB     129      POPE     P        PL        1.50000       30.9740           0
     14470 MEMB     129      POPE     O13      O2L     -0.780000       15.9994           0
     14471 MEMB     129      POPE     O14      O2L     -0.780000       15.9994           0
     14472 MEMB     129      POPE     O11      OSLP    -0.570000       15.9994           0
     14473 MEMB     129      POPE     O12      OSLP    -0.570000       15.9994           0
     14474 MEMB     129      POPE     C1       CTL2    -0.800000E-01   12.0110           0
     14475 MEMB     129      POPE     HA       HAL2     0.900000E-01   1.00800           0
     14476 MEMB     129      POPE     HB       HAL2     0.900000E-01   1.00800           0
     14477 MEMB     129      POPE     C2       CTL1     0.170000       12.0110           0
     14478 MEMB     129      POPE     HS       HAL1     0.900000E-01   1.00800           0
     14479 MEMB     129      POPE     O21      OSL     -0.490000       15.9994           0
     14480 MEMB     129      POPE     C21      CL       0.900000       12.0110           0
     14481 MEMB     129      POPE     O22      OBL     -0.630000       15.9994           0
     14482 MEMB     129      POPE     C22      CTL2    -0.220000       12.0110           0
     14483 MEMB     129      POPE     H2R      HAL2     0.900000E-01   1.00800           0
     14484 MEMB     129      POPE     H2S      HAL2     0.900000E-01   1.00800           0
     14485 MEMB     129      POPE     C3       CTL2     0.800000E-01   12.0110           0
     14486 MEMB     129      POPE     HX       HAL2     0.900000E-01   1.00800           0
     14487 MEMB     129      POPE     HY       HAL2     0.900000E-01   1.00800           0
     14488 MEMB     129      POPE     O31      OSL     -0.490000       15.9994           0
     14489 MEMB     129      POPE     C31      CL       0.900000       12.0110           0
     14490 MEMB     129      POPE     O32      OBL     -0.630000       15.9994           0
     14491 MEMB     129      POPE     C32      CTL2    -0.220000       12.0110           0
     14492 MEMB     129      POPE     H2X      HAL2     0.900000E-01   1.00800           0
     14493 MEMB     129      POPE     H2Y      HAL2     0.900000E-01   1.00800           0
     14494 MEMB     129      POPE     C23      CTL2    -0.180000       12.0110           0
     14495 MEMB     129      POPE     H3R      HAL2     0.900000E-01   1.00800           0
     14496 MEMB     129      POPE     H3S      HAL2     0.900000E-01   1.00800           0
     14497 MEMB     129      POPE     C24      CTL2    -0.180000       12.0110           0
     14498 MEMB     129      POPE     H4R      HAL2     0.900000E-01   1.00800           0
     14499 MEMB     129      POPE     H4S      HAL2     0.900000E-01   1.00800           0
     14500 MEMB     129      POPE     C25      CTL2    -0.180000       12.0110           0
     14501 MEMB     129      POPE     H5R      HAL2     0.900000E-01   1.00800           0
     14502 MEMB     129      POPE     H5S      HAL2     0.900000E-01   1.00800           0
     14503 MEMB     129      POPE     C26      CTL2    -0.180000       12.0110           0
     14504 MEMB     129      POPE     H6R      HAL2     0.900000E-01   1.00800           0
     14505 MEMB     129      POPE     H6S      HAL2     0.900000E-01   1.00800           0
     14506 MEMB     129      POPE     C27      CTL2    -0.180000       12.0110           0
     14507 MEMB     129      POPE     H7R      HAL2     0.900000E-01   1.00800           0
     14508 MEMB     129      POPE     H7S      HAL2     0.900000E-01   1.00800           0
     14509 MEMB     129      POPE     C28      CTL2    -0.180000       12.0110           0
     14510 MEMB     129      POPE     H8R      HAL2     0.900000E-01   1.00800           0
     14511 MEMB     129      POPE     H8S      HAL2     0.900000E-01   1.00800           0
     14512 MEMB     129      POPE     C29      CEL1    -0.150000       12.0110           0
     14513 MEMB     129      POPE     H91      HEL1     0.150000       1.00800           0
     14514 MEMB     129      POPE     C210     CEL1    -0.150000       12.0110           0
     14515 MEMB     129      POPE     H101     HEL1     0.150000       1.00800           0
     14516 MEMB     129      POPE     C211     CTL2    -0.180000       12.0110           0
     14517 MEMB     129      POPE     H11R     HAL2     0.900000E-01   1.00800           0
     14518 MEMB     129      POPE     H11S     HAL2     0.900000E-01   1.00800           0
     14519 MEMB     129      POPE     C212     CTL2    -0.180000       12.0110           0
     14520 MEMB     129      POPE     H12R     HAL2     0.900000E-01   1.00800           0
     14521 MEMB     129      POPE     H12S     HAL2     0.900000E-01   1.00800           0
     14522 MEMB     129      POPE     C213     CTL2    -0.180000       12.0110           0
     14523 MEMB     129      POPE     H13R     HAL2     0.900000E-01   1.00800           0
     14524 MEMB     129      POPE     H13S     HAL2     0.900000E-01   1.00800           0
     14525 MEMB     129      POPE     C214     CTL2    -0.180000       12.0110           0
     14526 MEMB     129      POPE     H14R     HAL2     0.900000E-01   1.00800           0
     14527 MEMB     129      POPE     H14S     HAL2     0.900000E-01   1.00800           0
     14528 MEMB     129      POPE     C215     CTL2    -0.180000       12.0110           0
     14529 MEMB     129      POPE     H15R     HAL2     0.900000E-01   1.00800           0
     14530 MEMB     129      POPE     H15S     HAL2     0.900000E-01   1.00800           0
     14531 MEMB     129      POPE     C216     CTL2    -0.180000       12.0110           0
     14532 MEMB     129      POPE     H16R     HAL2     0.900000E-01   1.00800           0
     14533 MEMB     129      POPE     H16S     HAL2     0.900000E-01   1.00800           0
     14534 MEMB     129      POPE     C217     CTL2    -0.180000       12.0110           0
     14535 MEMB     129      POPE     H17R     HAL2     0.900000E-01   1.00800           0
     14536 MEMB     129      POPE     H17S     HAL2     0.900000E-01   1.00800           0
     14537 MEMB     129      POPE     C218     CTL3    -0.270000       12.0110           0
     14538 MEMB     129      POPE     H18R     HAL3     0.900000E-01   1.00800           0
     14539 MEMB     129      POPE     H18S     HAL3     0.900000E-01   1.00800           0
     14540 MEMB     129      POPE     H18T     HAL3     0.900000E-01   1.00800           0
     14541 MEMB     129      POPE     C33      CTL2    -0.180000       12.0110           0
     14542 MEMB     129      POPE     H3X      HAL2     0.900000E-01   1.00800           0
     14543 MEMB     129      POPE     H3Y      HAL2     0.900000E-01   1.00800           0
     14544 MEMB     129      POPE     C34      CTL2    -0.180000       12.0110           0
     14545 MEMB     129      POPE     H4X      HAL2     0.900000E-01   1.00800           0
     14546 MEMB     129      POPE     H4Y      HAL2     0.900000E-01   1.00800           0
     14547 MEMB     129      POPE     C35      CTL2    -0.180000       12.0110           0
     14548 MEMB     129      POPE     H5X      HAL2     0.900000E-01   1.00800           0
     14549 MEMB     129      POPE     H5Y      HAL2     0.900000E-01   1.00800           0
     14550 MEMB     129      POPE     C36      CTL2    -0.180000       12.0110           0
     14551 MEMB     129      POPE     H6X      HAL2     0.900000E-01   1.00800           0
     14552 MEMB     129      POPE     H6Y      HAL2     0.900000E-01   1.00800           0
     14553 MEMB     129      POPE     C37      CTL2    -0.180000       12.0110           0
     14554 MEMB     129      POPE     H7X      HAL2     0.900000E-01   1.00800           0
     14555 MEMB     129      POPE     H7Y      HAL2     0.900000E-01   1.00800           0
     14556 MEMB     129      POPE     C38      CTL2    -0.180000       12.0110           0
     14557 MEMB     129      POPE     H8X      HAL2     0.900000E-01   1.00800           0
     14558 MEMB     129      POPE     H8Y      HAL2     0.900000E-01   1.00800           0
     14559 MEMB     129      POPE     C39      CTL2    -0.180000       12.0110           0
     14560 MEMB     129      POPE     H9X      HAL2     0.900000E-01   1.00800           0
     14561 MEMB     129      POPE     H9Y      HAL2     0.900000E-01   1.00800           0
     14562 MEMB     129      POPE     C310     CTL2    -0.180000       12.0110           0
     14563 MEMB     129      POPE     H10X     HAL2     0.900000E-01   1.00800           0
     14564 MEMB     129      POPE     H10Y     HAL2     0.900000E-01   1.00800           0
     14565 MEMB     129      POPE     C311     CTL2    -0.180000       12.0110           0
     14566 MEMB     129      POPE     H11X     HAL2     0.900000E-01   1.00800           0
     14567 MEMB     129      POPE     H11Y     HAL2     0.900000E-01   1.00800           0
     14568 MEMB     129      POPE     C312     CTL2    -0.180000       12.0110           0
     14569 MEMB     129      POPE     H12X     HAL2     0.900000E-01   1.00800           0
     14570 MEMB     129      POPE     H12Y     HAL2     0.900000E-01   1.00800           0
     14571 MEMB     129      POPE     C313     CTL2    -0.180000       12.0110           0
     14572 MEMB     129      POPE     H13X     HAL2     0.900000E-01   1.00800           0
     14573 MEMB     129      POPE     H13Y     HAL2     0.900000E-01   1.00800           0
     14574 MEMB     129      POPE     C314     CTL2    -0.180000       12.0110           0
     14575 MEMB     129      POPE     H14X     HAL2     0.900000E-01   1.00800           0
     14576 MEMB     129      POPE     H14Y     HAL2     0.900000E-01   1.00800           0
     14577 MEMB     129      POPE     C315     CTL2    -0.180000       12.0110           0
     14578 MEMB     129      POPE     H15X     HAL2     0.900000E-01   1.00800           0
     14579 MEMB     129      POPE     H15Y     HAL2     0.900000E-01   1.00800           0
     14580 MEMB     129      POPE     C316     CTL3    -0.270000       12.0110           0
     14581 MEMB     129      POPE     H16X     HAL3     0.900000E-01   1.00800           0
     14582 MEMB     129      POPE     H16Y     HAL3     0.900000E-01   1.00800           0
     14583 MEMB     129      POPE     H16Z     HAL3     0.900000E-01   1.00800           0
     14584 MEMB     130      POPC     N        NTL     -0.600000       14.0070           0
     14585 MEMB     130      POPC     C12      CTL2    -0.100000       12.0110           0
     14586 MEMB     130      POPC     H12A     HL       0.250000       1.00800           0
     14587 MEMB     130      POPC     H12B     HL       0.250000       1.00800           0
     14588 MEMB     130      POPC     C13      CTL5    -0.350000       12.0110           0
     14589 MEMB     130      POPC     H13A     HL       0.250000       1.00800           0
     14590 MEMB     130      POPC     H13B     HL       0.250000       1.00800           0
     14591 MEMB     130      POPC     H13C     HL       0.250000       1.00800           0
     14592 MEMB     130      POPC     C14      CTL5    -0.350000       12.0110           0
     14593 MEMB     130      POPC     H14A     HL       0.250000       1.00800           0
     14594 MEMB     130      POPC     H14B     HL       0.250000       1.00800           0
     14595 MEMB     130      POPC     H14C     HL       0.250000       1.00800           0
     14596 MEMB     130      POPC     C15      CTL5    -0.350000       12.0110           0
     14597 MEMB     130      POPC     H15A     HL       0.250000       1.00800           0
     14598 MEMB     130      POPC     H15B     HL       0.250000       1.00800           0
     14599 MEMB     130      POPC     H15C     HL       0.250000       1.00800           0
     14600 MEMB     130      POPC     C11      CTL2    -0.800000E-01   12.0110           0
     14601 MEMB     130      POPC     H11A     HAL2     0.900000E-01   1.00800           0
     14602 MEMB     130      POPC     H11B     HAL2     0.900000E-01   1.00800           0
     14603 MEMB     130      POPC     P        PL        1.50000       30.9740           0
     14604 MEMB     130      POPC     O13      O2L     -0.780000       15.9994           0
     14605 MEMB     130      POPC     O14      O2L     -0.780000       15.9994           0
     14606 MEMB     130      POPC     O12      OSLP    -0.570000       15.9994           0
     14607 MEMB     130      POPC     O11      OSLP    -0.570000       15.9994           0
     14608 MEMB     130      POPC     C1       CTL2    -0.800000E-01   12.0110           0
     14609 MEMB     130      POPC     HA       HAL2     0.900000E-01   1.00800           0
     14610 MEMB     130      POPC     HB       HAL2     0.900000E-01   1.00800           0
     14611 MEMB     130      POPC     C2       CTL1     0.170000       12.0110           0
     14612 MEMB     130      POPC     HS       HAL1     0.900000E-01   1.00800           0
     14613 MEMB     130      POPC     O21      OSL     -0.490000       15.9994           0
     14614 MEMB     130      POPC     C21      CL       0.900000       12.0110           0
     14615 MEMB     130      POPC     O22      OBL     -0.630000       15.9994           0
     14616 MEMB     130      POPC     C22      CTL2    -0.220000       12.0110           0
     14617 MEMB     130      POPC     H2R      HAL2     0.900000E-01   1.00800           0
     14618 MEMB     130      POPC     H2S      HAL2     0.900000E-01   1.00800           0
     14619 MEMB     130      POPC     C3       CTL2     0.800000E-01   12.0110           0
     14620 MEMB     130      POPC     HX       HAL2     0.900000E-01   1.00800           0
     14621 MEMB     130      POPC     HY       HAL2     0.900000E-01   1.00800           0
     14622 MEMB     130      POPC     O31      OSL     -0.490000       15.9994           0
     14623 MEMB     130      POPC     C31      CL       0.900000       12.0110           0
     14624 MEMB     130      POPC     O32      OBL     -0.630000       15.9994           0
     14625 MEMB     130      POPC     C32      CTL2    -0.220000       12.0110           0
     14626 MEMB     130      POPC     H2X      HAL2     0.900000E-01   1.00800           0
     14627 MEMB     130      POPC     H2Y      HAL2     0.900000E-01   1.00800           0
     14628 MEMB     130      POPC     C23      CTL2    -0.180000       12.0110           0
     14629 MEMB     130      POPC     H3R      HAL2     0.900000E-01   1.00800           0
     14630 MEMB     130      POPC     H3S      HAL2     0.900000E-01   1.00800           0
     14631 MEMB     130      POPC     C24      CTL2    -0.180000       12.0110           0
     14632 MEMB     130      POPC     H4R      HAL2     0.900000E-01   1.00800           0
     14633 MEMB     130      POPC     H4S      HAL2     0.900000E-01   1.00800           0
     14634 MEMB     130      POPC     C25      CTL2    -0.180000       12.0110           0
     14635 MEMB     130      POPC     H5R      HAL2     0.900000E-01   1.00800           0
     14636 MEMB     130      POPC     H5S      HAL2     0.900000E-01   1.00800           0
     14637 MEMB     130      POPC     C26      CTL2    -0.180000       12.0110           0
     14638 MEMB     130      POPC     H6R      HAL2     0.900000E-01   1.00800           0
     14639 MEMB     130      POPC     H6S      HAL2     0.900000E-01   1.00800           0
     14640 MEMB     130      POPC     C27      CTL2    -0.180000       12.0110           0
     14641 MEMB     130      POPC     H7R      HAL2     0.900000E-01   1.00800           0
     14642 MEMB     130      POPC     H7S      HAL2     0.900000E-01   1.00800           0
     14643 MEMB     130      POPC     C28      CTL2    -0.180000       12.0110           0
     14644 MEMB     130      POPC     H8R      HAL2     0.900000E-01   1.00800           0
     14645 MEMB     130      POPC     H8S      HAL2     0.900000E-01   1.00800           0
     14646 MEMB     130      POPC     C29      CEL1    -0.150000       12.0110           0
     14647 MEMB     130      POPC     H91      HEL1     0.150000       1.00800           0
     14648 MEMB     130      POPC     C210     CEL1    -0.150000       12.0110           0
     14649 MEMB     130      POPC     H101     HEL1     0.150000       1.00800           0
     14650 MEMB     130      POPC     C211     CTL2    -0.180000       12.0110           0
     14651 MEMB     130      POPC     H11R     HAL2     0.900000E-01   1.00800           0
     14652 MEMB     130      POPC     H11S     HAL2     0.900000E-01   1.00800           0
     14653 MEMB     130      POPC     C212     CTL2    -0.180000       12.0110           0
     14654 MEMB     130      POPC     H12R     HAL2     0.900000E-01   1.00800           0
     14655 MEMB     130      POPC     H12S     HAL2     0.900000E-01   1.00800           0
     14656 MEMB     130      POPC     C213     CTL2    -0.180000       12.0110           0
     14657 MEMB     130      POPC     H13R     HAL2     0.900000E-01   1.00800           0
     14658 MEMB     130      POPC     H13S     HAL2     0.900000E-01   1.00800           0
     14659 MEMB     130      POPC     C214     CTL2    -0.180000       12.0110           0
     14660 MEMB     130      POPC     H14R     HAL2     0.900000E-01   1.00800           0
     14661 MEMB     130      POPC     H14S     HAL2     0.900000E-01   1.00800           0
     14662 MEMB     130      POPC     C215     CTL2    -0.180000       12.0110           0
     14663 MEMB     130      POPC     H15R     HAL2     0.900000E-01   1.00800           0
     14664 MEMB     130      POPC     H15S     HAL2     0.900000E-01   1.00800           0
     14665 MEMB     130      POPC     C216     CTL2    -0.180000       12.0110           0
     14666 MEMB     130      POPC     H16R     HAL2     0.900000E-01   1.00800           0
     14667 MEMB     130      POPC     H16S     HAL2     0.900000E-01   1.00800           0
     14668 MEMB     130      POPC     C217     CTL2    -0.180000       12.0110           0
     14669 MEMB     130      POPC     H17R     HAL2     0.900000E-01   1.00800           0
     14670 MEMB     130      POPC     H17S     HAL2     0.900000E-01   1.00800           0
     14671 MEMB     130      POPC     C218     CTL3    -0.270000       12.0110           0
     14672 MEMB     130      POPC     H18R     HAL3     0.900000E-01   1.00800           0
     14673 MEMB     130      POPC     H18S     HAL3     0.900000E-01   1.00800           0
     14674 MEMB     130      POPC     H18T     HAL3     0.900000E-01   1.00800           0
     14675 MEMB     130      POPC     C33      CTL2    -0.180000       12.0110           0
     14676 MEMB     130      POPC     H3X      HAL2     0.900000E-01   1.00800           0
     14677 MEMB     130      POPC     H3Y      HAL2     0.900000E-01   1.00800           0
     14678 MEMB     130      POPC     C34      CTL2    -0.180000       12.0110           0
     14679 MEMB     130      POPC     H4X      HAL2     0.900000E-01   1.00800           0
     14680 MEMB     130      POPC     H4Y      HAL2     0.900000E-01   1.00800           0
     14681 MEMB     130      POPC     C35      CTL2    -0.180000       12.0110           0
     14682 MEMB     130      POPC     H5X      HAL2     0.900000E-01   1.00800           0
     14683 MEMB     130      POPC     H5Y      HAL2     0.900000E-01   1.00800           0
     14684 MEMB     130      POPC     C36      CTL2    -0.180000       12.0110           0
     14685 MEMB     130      POPC     H6X      HAL2     0.900000E-01   1.00800           0
     14686 MEMB     130      POPC     H6Y      HAL2     0.900000E-01   1.00800           0
     14687 MEMB     130      POPC     C37      CTL2    -0.180000       12.0110           0
     14688 MEMB     130      POPC     H7X      HAL2     0.900000E-01   1.00800           0
     14689 MEMB     130      POPC     H7Y      HAL2     0.900000E-01   1.00800           0
     14690 MEMB     130      POPC     C38      CTL2    -0.180000       12.0110           0
     14691 MEMB     130      POPC     H8X      HAL2     0.900000E-01   1.00800           0
     14692 MEMB     130      POPC     H8Y      HAL2     0.900000E-01   1.00800           0
     14693 MEMB     130      POPC     C39      CTL2    -0.180000       12.0110           0
     14694 MEMB     130      POPC     H9X      HAL2     0.900000E-01   1.00800           0
     14695 MEMB     130      POPC     H9Y      HAL2     0.900000E-01   1.00800           0
     14696 MEMB     130      POPC     C310     CTL2    -0.180000       12.0110           0
     14697 MEMB     130      POPC     H10X     HAL2     0.900000E-01   1.00800           0
     14698 MEMB     130      POPC     H10Y     HAL2     0.900000E-01   1.00800           0
     14699 MEMB     130      POPC     C311     CTL2    -0.180000       12.0110           0
     14700 MEMB     130      POPC     H11X     HAL2     0.900000E-01   1.00800           0
     14701 MEMB     130      POPC     H11Y     HAL2     0.900000E-01   1.00800           0
     14702 MEMB     130      POPC     C312     CTL2    -0.180000       12.0110           0
     14703 MEMB     130      POPC     H12X     HAL2     0.900000E-01   1.00800           0
     14704 MEMB     130      POPC     H12Y     HAL2     0.900000E-01   1.00800           0
     14705 MEMB     130      POPC     C313     CTL2    -0.180000       12.0110           0
     14706 MEMB     130      POPC     H13X     HAL2     0.900000E-01   1.00800           0
     14707 MEMB     130      POPC     H13Y     HAL2     0.900000E-01   1.00800           0
     14708 MEMB     130      POPC     C314     CTL2    -0.180000       12.0110           0
     14709 MEMB     130      POPC     H14X     HAL2     0.900000E-01   1.00800           0
     14710 MEMB     130      POPC     H14Y     HAL2     0.900000E-01   1.00800           0
     14711 MEMB     130      POPC     C315     CTL2    -0.180000       12.0110           0
     14712 MEMB     130      POPC     H15X     HAL2     0.900000E-01   1.00800           0
     14713 MEMB     130      POPC     H15Y     HAL2     0.900000E-01   1.00800           0
     14714 MEMB     130      POPC     C316     CTL3    -0.270000       12.0110           0
     14715 MEMB     130      POPC     H16X     HAL3     0.900000E-01   1.00800           0
     14716 MEMB     130      POPC     H16Y     HAL3     0.900000E-01   1.00800           0
     14717 MEMB     130      POPC     H16Z     HAL3     0.900000E-01   1.00800           0
     14718 MEMB     131      POPE     N        NH3L    -0.300000       14.0070           0
     14719 MEMB     131      POPE     HN1      HCL      0.330000       1.00800           0
     14720 MEMB     131      POPE     HN2      HCL      0.330000       1.00800           0
     14721 MEMB     131      POPE     HN3      HCL      0.330000       1.00800           0
     14722 MEMB     131      POPE     C12      CTL2     0.130000       12.0110           0
     14723 MEMB     131      POPE     H12A     HAL2     0.900000E-01   1.00800           0
     14724 MEMB     131      POPE     H12B     HAL2     0.900000E-01   1.00800           0
     14725 MEMB     131      POPE     C11      CTL2    -0.800000E-01   12.0110           0
     14726 MEMB     131      POPE     H11A     HAL2     0.900000E-01   1.00800           0
     14727 MEMB     131      POPE     H11B     HAL2     0.900000E-01   1.00800           0
     14728 MEMB     131      POPE     P        PL        1.50000       30.9740           0
     14729 MEMB     131      POPE     O13      O2L     -0.780000       15.9994           0
     14730 MEMB     131      POPE     O14      O2L     -0.780000       15.9994           0
     14731 MEMB     131      POPE     O11      OSLP    -0.570000       15.9994           0
     14732 MEMB     131      POPE     O12      OSLP    -0.570000       15.9994           0
     14733 MEMB     131      POPE     C1       CTL2    -0.800000E-01   12.0110           0
     14734 MEMB     131      POPE     HA       HAL2     0.900000E-01   1.00800           0
     14735 MEMB     131      POPE     HB       HAL2     0.900000E-01   1.00800           0
     14736 MEMB     131      POPE     C2       CTL1     0.170000       12.0110           0
     14737 MEMB     131      POPE     HS       HAL1     0.900000E-01   1.00800           0
     14738 MEMB     131      POPE     O21      OSL     -0.490000       15.9994           0
     14739 MEMB     131      POPE     C21      CL       0.900000       12.0110           0
     14740 MEMB     131      POPE     O22      OBL     -0.630000       15.9994           0
     14741 MEMB     131      POPE     C22      CTL2    -0.220000       12.0110           0
     14742 MEMB     131      POPE     H2R      HAL2     0.900000E-01   1.00800           0
     14743 MEMB     131      POPE     H2S      HAL2     0.900000E-01   1.00800           0
     14744 MEMB     131      POPE     C3       CTL2     0.800000E-01   12.0110           0
     14745 MEMB     131      POPE     HX       HAL2     0.900000E-01   1.00800           0
     14746 MEMB     131      POPE     HY       HAL2     0.900000E-01   1.00800           0
     14747 MEMB     131      POPE     O31      OSL     -0.490000       15.9994           0
     14748 MEMB     131      POPE     C31      CL       0.900000       12.0110           0
     14749 MEMB     131      POPE     O32      OBL     -0.630000       15.9994           0
     14750 MEMB     131      POPE     C32      CTL2    -0.220000       12.0110           0
     14751 MEMB     131      POPE     H2X      HAL2     0.900000E-01   1.00800           0
     14752 MEMB     131      POPE     H2Y      HAL2     0.900000E-01   1.00800           0
     14753 MEMB     131      POPE     C23      CTL2    -0.180000       12.0110           0
     14754 MEMB     131      POPE     H3R      HAL2     0.900000E-01   1.00800           0
     14755 MEMB     131      POPE     H3S      HAL2     0.900000E-01   1.00800           0
     14756 MEMB     131      POPE     C24      CTL2    -0.180000       12.0110           0
     14757 MEMB     131      POPE     H4R      HAL2     0.900000E-01   1.00800           0
     14758 MEMB     131      POPE     H4S      HAL2     0.900000E-01   1.00800           0
     14759 MEMB     131      POPE     C25      CTL2    -0.180000       12.0110           0
     14760 MEMB     131      POPE     H5R      HAL2     0.900000E-01   1.00800           0
     14761 MEMB     131      POPE     H5S      HAL2     0.900000E-01   1.00800           0
     14762 MEMB     131      POPE     C26      CTL2    -0.180000       12.0110           0
     14763 MEMB     131      POPE     H6R      HAL2     0.900000E-01   1.00800           0
     14764 MEMB     131      POPE     H6S      HAL2     0.900000E-01   1.00800           0
     14765 MEMB     131      POPE     C27      CTL2    -0.180000       12.0110           0
     14766 MEMB     131      POPE     H7R      HAL2     0.900000E-01   1.00800           0
     14767 MEMB     131      POPE     H7S      HAL2     0.900000E-01   1.00800           0
     14768 MEMB     131      POPE     C28      CTL2    -0.180000       12.0110           0
     14769 MEMB     131      POPE     H8R      HAL2     0.900000E-01   1.00800           0
     14770 MEMB     131      POPE     H8S      HAL2     0.900000E-01   1.00800           0
     14771 MEMB     131      POPE     C29      CEL1    -0.150000       12.0110           0
     14772 MEMB     131      POPE     H91      HEL1     0.150000       1.00800           0
     14773 MEMB     131      POPE     C210     CEL1    -0.150000       12.0110           0
     14774 MEMB     131      POPE     H101     HEL1     0.150000       1.00800           0
     14775 MEMB     131      POPE     C211     CTL2    -0.180000       12.0110           0
     14776 MEMB     131      POPE     H11R     HAL2     0.900000E-01   1.00800           0
     14777 MEMB     131      POPE     H11S     HAL2     0.900000E-01   1.00800           0
     14778 MEMB     131      POPE     C212     CTL2    -0.180000       12.0110           0
     14779 MEMB     131      POPE     H12R     HAL2     0.900000E-01   1.00800           0
     14780 MEMB     131      POPE     H12S     HAL2     0.900000E-01   1.00800           0
     14781 MEMB     131      POPE     C213     CTL2    -0.180000       12.0110           0
     14782 MEMB     131      POPE     H13R     HAL2     0.900000E-01   1.00800           0
     14783 MEMB     131      POPE     H13S     HAL2     0.900000E-01   1.00800           0
     14784 MEMB     131      POPE     C214     CTL2    -0.180000       12.0110           0
     14785 MEMB     131      POPE     H14R     HAL2     0.900000E-01   1.00800           0
     14786 MEMB     131      POPE     H14S     HAL2     0.900000E-01   1.00800           0
     14787 MEMB     131      POPE     C215     CTL2    -0.180000       12.0110           0
     14788 MEMB     131      POPE     H15R     HAL2     0.900000E-01   1.00800           0
     14789 MEMB     131      POPE     H15S     HAL2     0.900000E-01   1.00800           0
     14790 MEMB     131      POPE     C216     CTL2    -0.180000       12.0110           0
     14791 MEMB     131      POPE     H16R     HAL2     0.900000E-01   1.00800           0
     14792 MEMB     131      POPE     H16S     HAL2     0.900000E-01   1.00800           0
     14793 MEMB     131      POPE     C217     CTL2    -0.180000       12.0110           0
     14794 MEMB     131      POPE     H17R     HAL2     0.900000E-01   1.00800           0
     14795 MEMB     131      POPE     H17S     HAL2     0.900000E-01   1.00800           0
     14796 MEMB     131      POPE     C218     CTL3    -0.270000       12.0110           0
     14797 MEMB     131      POPE     H18R     HAL3     0.900000E-01   1.00800           0
     14798 MEMB     131      POPE     H18S     HAL3     0.900000E-01   1.00800           0
     14799 MEMB     131      POPE     H18T     HAL3     0.900000E-01   1.00800           0
     14800 MEMB     131      POPE     C33      CTL2    -0.180000       12.0110           0
     14801 MEMB     131      POPE     H3X      HAL2     0.900000E-01   1.00800           0
     14802 MEMB     131      POPE     H3Y      HAL2     0.900000E-01   1.00800           0
     14803 MEMB     131      POPE     C34      CTL2    -0.180000       12.0110           0
     14804 MEMB     131      POPE     H4X      HAL2     0.900000E-01   1.00800           0
     14805 MEMB     131      POPE     H4Y      HAL2     0.900000E-01   1.00800           0
     14806 MEMB     131      POPE     C35      CTL2    -0.180000       12.0110           0
     14807 MEMB     131      POPE     H5X      HAL2     0.900000E-01   1.00800           0
     14808 MEMB     131      POPE     H5Y      HAL2     0.900000E-01   1.00800           0
     14809 MEMB     131      POPE     C36      CTL2    -0.180000       12.0110           0
     14810 MEMB     131      POPE     H6X      HAL2     0.900000E-01   1.00800           0
     14811 MEMB     131      POPE     H6Y      HAL2     0.900000E-01   1.00800           0
     14812 MEMB     131      POPE     C37      CTL2    -0.180000       12.0110           0
     14813 MEMB     131      POPE     H7X      HAL2     0.900000E-01   1.00800           0
     14814 MEMB     131      POPE     H7Y      HAL2     0.900000E-01   1.00800           0
     14815 MEMB     131      POPE     C38      CTL2    -0.180000       12.0110           0
     14816 MEMB     131      POPE     H8X      HAL2     0.900000E-01   1.00800           0
     14817 MEMB     131      POPE     H8Y      HAL2     0.900000E-01   1.00800           0
     14818 MEMB     131      POPE     C39      CTL2    -0.180000       12.0110           0
     14819 MEMB     131      POPE     H9X      HAL2     0.900000E-01   1.00800           0
     14820 MEMB     131      POPE     H9Y      HAL2     0.900000E-01   1.00800           0
     14821 MEMB     131      POPE     C310     CTL2    -0.180000       12.0110           0
     14822 MEMB     131      POPE     H10X     HAL2     0.900000E-01   1.00800           0
     14823 MEMB     131      POPE     H10Y     HAL2     0.900000E-01   1.00800           0
     14824 MEMB     131      POPE     C311     CTL2    -0.180000       12.0110           0
     14825 MEMB     131      POPE     H11X     HAL2     0.900000E-01   1.00800           0
     14826 MEMB     131      POPE     H11Y     HAL2     0.900000E-01   1.00800           0
     14827 MEMB     131      POPE     C312     CTL2    -0.180000       12.0110           0
     14828 MEMB     131      POPE     H12X     HAL2     0.900000E-01   1.00800           0
     14829 MEMB     131      POPE     H12Y     HAL2     0.900000E-01   1.00800           0
     14830 MEMB     131      POPE     C313     CTL2    -0.180000       12.0110           0
     14831 MEMB     131      POPE     H13X     HAL2     0.900000E-01   1.00800           0
     14832 MEMB     131      POPE     H13Y     HAL2     0.900000E-01   1.00800           0
     14833 MEMB     131      POPE     C314     CTL2    -0.180000       12.0110           0
     14834 MEMB     131      POPE     H14X     HAL2     0.900000E-01   1.00800           0
     14835 MEMB     131      POPE     H14Y     HAL2     0.900000E-01   1.00800           0
     14836 MEMB     131      POPE     C315     CTL2    -0.180000       12.0110           0
     14837 MEMB     131      POPE     H15X     HAL2     0.900000E-01   1.00800           0
     14838 MEMB     131      POPE     H15Y     HAL2     0.900000E-01   1.00800           0
     14839 MEMB     131      POPE     C316     CTL3    -0.270000       12.0110           0
     14840 MEMB     131      POPE     H16X     HAL3     0.900000E-01   1.00800           0
     14841 MEMB     131      POPE     H16Y     HAL3     0.900000E-01   1.00800           0
     14842 MEMB     131      POPE     H16Z     HAL3     0.900000E-01   1.00800           0
     14843 MEMB     132      POPC     N        NTL     -0.600000       14.0070           0
     14844 MEMB     132      POPC     C12      CTL2    -0.100000       12.0110           0
     14845 MEMB     132      POPC     H12A     HL       0.250000       1.00800           0
     14846 MEMB     132      POPC     H12B     HL       0.250000       1.00800           0
     14847 MEMB     132      POPC     C13      CTL5    -0.350000       12.0110           0
     14848 MEMB     132      POPC     H13A     HL       0.250000       1.00800           0
     14849 MEMB     132      POPC     H13B     HL       0.250000       1.00800           0
     14850 MEMB     132      POPC     H13C     HL       0.250000       1.00800           0
     14851 MEMB     132      POPC     C14      CTL5    -0.350000       12.0110           0
     14852 MEMB     132      POPC     H14A     HL       0.250000       1.00800           0
     14853 MEMB     132      POPC     H14B     HL       0.250000       1.00800           0
     14854 MEMB     132      POPC     H14C     HL       0.250000       1.00800           0
     14855 MEMB     132      POPC     C15      CTL5    -0.350000       12.0110           0
     14856 MEMB     132      POPC     H15A     HL       0.250000       1.00800           0
     14857 MEMB     132      POPC     H15B     HL       0.250000       1.00800           0
     14858 MEMB     132      POPC     H15C     HL       0.250000       1.00800           0
     14859 MEMB     132      POPC     C11      CTL2    -0.800000E-01   12.0110           0
     14860 MEMB     132      POPC     H11A     HAL2     0.900000E-01   1.00800           0
     14861 MEMB     132      POPC     H11B     HAL2     0.900000E-01   1.00800           0
     14862 MEMB     132      POPC     P        PL        1.50000       30.9740           0
     14863 MEMB     132      POPC     O13      O2L     -0.780000       15.9994           0
     14864 MEMB     132      POPC     O14      O2L     -0.780000       15.9994           0
     14865 MEMB     132      POPC     O12      OSLP    -0.570000       15.9994           0
     14866 MEMB     132      POPC     O11      OSLP    -0.570000       15.9994           0
     14867 MEMB     132      POPC     C1       CTL2    -0.800000E-01   12.0110           0
     14868 MEMB     132      POPC     HA       HAL2     0.900000E-01   1.00800           0
     14869 MEMB     132      POPC     HB       HAL2     0.900000E-01   1.00800           0
     14870 MEMB     132      POPC     C2       CTL1     0.170000       12.0110           0
     14871 MEMB     132      POPC     HS       HAL1     0.900000E-01   1.00800           0
     14872 MEMB     132      POPC     O21      OSL     -0.490000       15.9994           0
     14873 MEMB     132      POPC     C21      CL       0.900000       12.0110           0
     14874 MEMB     132      POPC     O22      OBL     -0.630000       15.9994           0
     14875 MEMB     132      POPC     C22      CTL2    -0.220000       12.0110           0
     14876 MEMB     132      POPC     H2R      HAL2     0.900000E-01   1.00800           0
     14877 MEMB     132      POPC     H2S      HAL2     0.900000E-01   1.00800           0
     14878 MEMB     132      POPC     C3       CTL2     0.800000E-01   12.0110           0
     14879 MEMB     132      POPC     HX       HAL2     0.900000E-01   1.00800           0
     14880 MEMB     132      POPC     HY       HAL2     0.900000E-01   1.00800           0
     14881 MEMB     132      POPC     O31      OSL     -0.490000       15.9994           0
     14882 MEMB     132      POPC     C31      CL       0.900000       12.0110           0
     14883 MEMB     132      POPC     O32      OBL     -0.630000       15.9994           0
     14884 MEMB     132      POPC     C32      CTL2    -0.220000       12.0110           0
     14885 MEMB     132      POPC     H2X      HAL2     0.900000E-01   1.00800           0
     14886 MEMB     132      POPC     H2Y      HAL2     0.900000E-01   1.00800           0
     14887 MEMB     132      POPC     C23      CTL2    -0.180000       12.0110           0
     14888 MEMB     132      POPC     H3R      HAL2     0.900000E-01   1.00800           0
     14889 MEMB     132      POPC     H3S      HAL2     0.900000E-01   1.00800           0
     14890 MEMB     132      POPC     C24      CTL2    -0.180000       12.0110           0
     14891 MEMB     132      POPC     H4R      HAL2     0.900000E-01   1.00800           0
     14892 MEMB     132      POPC     H4S      HAL2     0.900000E-01   1.00800           0
     14893 MEMB     132      POPC     C25      CTL2    -0.180000       12.0110           0
     14894 MEMB     132      POPC     H5R      HAL2     0.900000E-01   1.00800           0
     14895 MEMB     132      POPC     H5S      HAL2     0.900000E-01   1.00800           0
     14896 MEMB     132      POPC     C26      CTL2    -0.180000       12.0110           0
     14897 MEMB     132      POPC     H6R      HAL2     0.900000E-01   1.00800           0
     14898 MEMB     132      POPC     H6S      HAL2     0.900000E-01   1.00800           0
     14899 MEMB     132      POPC     C27      CTL2    -0.180000       12.0110           0
     14900 MEMB     132      POPC     H7R      HAL2     0.900000E-01   1.00800           0
     14901 MEMB     132      POPC     H7S      HAL2     0.900000E-01   1.00800           0
     14902 MEMB     132      POPC     C28      CTL2    -0.180000       12.0110           0
     14903 MEMB     132      POPC     H8R      HAL2     0.900000E-01   1.00800           0
     14904 MEMB     132      POPC     H8S      HAL2     0.900000E-01   1.00800           0
     14905 MEMB     132      POPC     C29      CEL1    -0.150000       12.0110           0
     14906 MEMB     132      POPC     H91      HEL1     0.150000       1.00800           0
     14907 MEMB     132      POPC     C210     CEL1    -0.150000       12.0110           0
     14908 MEMB     132      POPC     H101     HEL1     0.150000       1.00800           0
     14909 MEMB     132      POPC     C211     CTL2    -0.180000       12.0110           0
     14910 MEMB     132      POPC     H11R     HAL2     0.900000E-01   1.00800           0
     14911 MEMB     132      POPC     H11S     HAL2     0.900000E-01   1.00800           0
     14912 MEMB     132      POPC     C212     CTL2    -0.180000       12.0110           0
     14913 MEMB     132      POPC     H12R     HAL2     0.900000E-01   1.00800           0
     14914 MEMB     132      POPC     H12S     HAL2     0.900000E-01   1.00800           0
     14915 MEMB     132      POPC     C213     CTL2    -0.180000       12.0110           0
     14916 MEMB     132      POPC     H13R     HAL2     0.900000E-01   1.00800           0
     14917 MEMB     132      POPC     H13S     HAL2     0.900000E-01   1.00800           0
     14918 MEMB     132      POPC     C214     CTL2    -0.180000       12.0110           0
     14919 MEMB     132      POPC     H14R     HAL2     0.900000E-01   1.00800           0
     14920 MEMB     132      POPC     H14S     HAL2     0.900000E-01   1.00800           0
     14921 MEMB     132      POPC     C215     CTL2    -0.180000       12.0110           0
     14922 MEMB     132      POPC     H15R     HAL2     0.900000E-01   1.00800           0
     14923 MEMB     132      POPC     H15S     HAL2     0.900000E-01   1.00800           0
     14924 MEMB     132      POPC     C216     CTL2    -0.180000       12.0110           0
     14925 MEMB     132      POPC     H16R     HAL2     0.900000E-01   1.00800           0
     14926 MEMB     132      POPC     H16S     HAL2     0.900000E-01   1.00800           0
     14927 MEMB     132      POPC     C217     CTL2    -0.180000       12.0110           0
     14928 MEMB     132      POPC     H17R     HAL2     0.900000E-01   1.00800           0
     14929 MEMB     132      POPC     H17S     HAL2     0.900000E-01   1.00800           0
     14930 MEMB     132      POPC     C218     CTL3    -0.270000       12.0110           0
     14931 MEMB     132      POPC     H18R     HAL3     0.900000E-01   1.00800           0
     14932 MEMB     132      POPC     H18S     HAL3     0.900000E-01   1.00800           0
     14933 MEMB     132      POPC     H18T     HAL3     0.900000E-01   1.00800           0
     14934 MEMB     132      POPC     C33      CTL2    -0.180000       12.0110           0
     14935 MEMB     132      POPC     H3X      HAL2     0.900000E-01   1.00800           0
     14936 MEMB     132      POPC     H3Y      HAL2     0.900000E-01   1.00800           0
     14937 MEMB     132      POPC     C34      CTL2    -0.180000       12.0110           0
     14938 MEMB     132      POPC     H4X      HAL2     0.900000E-01   1.00800           0
     14939 MEMB     132      POPC     H4Y      HAL2     0.900000E-01   1.00800           0
     14940 MEMB     132      POPC     C35      CTL2    -0.180000       12.0110           0
     14941 MEMB     132      POPC     H5X      HAL2     0.900000E-01   1.00800           0
     14942 MEMB     132      POPC     H5Y      HAL2     0.900000E-01   1.00800           0
     14943 MEMB     132      POPC     C36      CTL2    -0.180000       12.0110           0
     14944 MEMB     132      POPC     H6X      HAL2     0.900000E-01   1.00800           0
     14945 MEMB     132      POPC     H6Y      HAL2     0.900000E-01   1.00800           0
     14946 MEMB     132      POPC     C37      CTL2    -0.180000       12.0110           0
     14947 MEMB     132      POPC     H7X      HAL2     0.900000E-01   1.00800           0
     14948 MEMB     132      POPC     H7Y      HAL2     0.900000E-01   1.00800           0
     14949 MEMB     132      POPC     C38      CTL2    -0.180000       12.0110           0
     14950 MEMB     132      POPC     H8X      HAL2     0.900000E-01   1.00800           0
     14951 MEMB     132      POPC     H8Y      HAL2     0.900000E-01   1.00800           0
     14952 MEMB     132      POPC     C39      CTL2    -0.180000       12.0110           0
     14953 MEMB     132      POPC     H9X      HAL2     0.900000E-01   1.00800           0
     14954 MEMB     132      POPC     H9Y      HAL2     0.900000E-01   1.00800           0
     14955 MEMB     132      POPC     C310     CTL2    -0.180000       12.0110           0
     14956 MEMB     132      POPC     H10X     HAL2     0.900000E-01   1.00800           0
     14957 MEMB     132      POPC     H10Y     HAL2     0.900000E-01   1.00800           0
     14958 MEMB     132      POPC     C311     CTL2    -0.180000       12.0110           0
     14959 MEMB     132      POPC     H11X     HAL2     0.900000E-01   1.00800           0
     14960 MEMB     132      POPC     H11Y     HAL2     0.900000E-01   1.00800           0
     14961 MEMB     132      POPC     C312     CTL2    -0.180000       12.0110           0
     14962 MEMB     132      POPC     H12X     HAL2     0.900000E-01   1.00800           0
     14963 MEMB     132      POPC     H12Y     HAL2     0.900000E-01   1.00800           0
     14964 MEMB     132      POPC     C313     CTL2    -0.180000       12.0110           0
     14965 MEMB     132      POPC     H13X     HAL2     0.900000E-01   1.00800           0
     14966 MEMB     132      POPC     H13Y     HAL2     0.900000E-01   1.00800           0
     14967 MEMB     132      POPC     C314     CTL2    -0.180000       12.0110           0
     14968 MEMB     132      POPC     H14X     HAL2     0.900000E-01   1.00800           0
     14969 MEMB     132      POPC     H14Y     HAL2     0.900000E-01   1.00800           0
     14970 MEMB     132      POPC     C315     CTL2    -0.180000       12.0110           0
     14971 MEMB     132      POPC     H15X     HAL2     0.900000E-01   1.00800           0
     14972 MEMB     132      POPC     H15Y     HAL2     0.900000E-01   1.00800           0
     14973 MEMB     132      POPC     C316     CTL3    -0.270000       12.0110           0
     14974 MEMB     132      POPC     H16X     HAL3     0.900000E-01   1.00800           0
     14975 MEMB     132      POPC     H16Y     HAL3     0.900000E-01   1.00800           0
     14976 MEMB     132      POPC     H16Z     HAL3     0.900000E-01   1.00800           0
     14977 MEMB     133      POPC     N        NTL     -0.600000       14.0070           0
     14978 MEMB     133      POPC     C12      CTL2    -0.100000       12.0110           0
     14979 MEMB     133      POPC     H12A     HL       0.250000       1.00800           0
     14980 MEMB     133      POPC     H12B     HL       0.250000       1.00800           0
     14981 MEMB     133      POPC     C13      CTL5    -0.350000       12.0110           0
     14982 MEMB     133      POPC     H13A     HL       0.250000       1.00800           0
     14983 MEMB     133      POPC     H13B     HL       0.250000       1.00800           0
     14984 MEMB     133      POPC     H13C     HL       0.250000       1.00800           0
     14985 MEMB     133      POPC     C14      CTL5    -0.350000       12.0110           0
     14986 MEMB     133      POPC     H14A     HL       0.250000       1.00800           0
     14987 MEMB     133      POPC     H14B     HL       0.250000       1.00800           0
     14988 MEMB     133      POPC     H14C     HL       0.250000       1.00800           0
     14989 MEMB     133      POPC     C15      CTL5    -0.350000       12.0110           0
     14990 MEMB     133      POPC     H15A     HL       0.250000       1.00800           0
     14991 MEMB     133      POPC     H15B     HL       0.250000       1.00800           0
     14992 MEMB     133      POPC     H15C     HL       0.250000       1.00800           0
     14993 MEMB     133      POPC     C11      CTL2    -0.800000E-01   12.0110           0
     14994 MEMB     133      POPC     H11A     HAL2     0.900000E-01   1.00800           0
     14995 MEMB     133      POPC     H11B     HAL2     0.900000E-01   1.00800           0
     14996 MEMB     133      POPC     P        PL        1.50000       30.9740           0
     14997 MEMB     133      POPC     O13      O2L     -0.780000       15.9994           0
     14998 MEMB     133      POPC     O14      O2L     -0.780000       15.9994           0
     14999 MEMB     133      POPC     O12      OSLP    -0.570000       15.9994           0
     15000 MEMB     133      POPC     O11      OSLP    -0.570000       15.9994           0
     15001 MEMB     133      POPC     C1       CTL2    -0.800000E-01   12.0110           0
     15002 MEMB     133      POPC     HA       HAL2     0.900000E-01   1.00800           0
     15003 MEMB     133      POPC     HB       HAL2     0.900000E-01   1.00800           0
     15004 MEMB     133      POPC     C2       CTL1     0.170000       12.0110           0
     15005 MEMB     133      POPC     HS       HAL1     0.900000E-01   1.00800           0
     15006 MEMB     133      POPC     O21      OSL     -0.490000       15.9994           0
     15007 MEMB     133      POPC     C21      CL       0.900000       12.0110           0
     15008 MEMB     133      POPC     O22      OBL     -0.630000       15.9994           0
     15009 MEMB     133      POPC     C22      CTL2    -0.220000       12.0110           0
     15010 MEMB     133      POPC     H2R      HAL2     0.900000E-01   1.00800           0
     15011 MEMB     133      POPC     H2S      HAL2     0.900000E-01   1.00800           0
     15012 MEMB     133      POPC     C3       CTL2     0.800000E-01   12.0110           0
     15013 MEMB     133      POPC     HX       HAL2     0.900000E-01   1.00800           0
     15014 MEMB     133      POPC     HY       HAL2     0.900000E-01   1.00800           0
     15015 MEMB     133      POPC     O31      OSL     -0.490000       15.9994           0
     15016 MEMB     133      POPC     C31      CL       0.900000       12.0110           0
     15017 MEMB     133      POPC     O32      OBL     -0.630000       15.9994           0
     15018 MEMB     133      POPC     C32      CTL2    -0.220000       12.0110           0
     15019 MEMB     133      POPC     H2X      HAL2     0.900000E-01   1.00800           0
     15020 MEMB     133      POPC     H2Y      HAL2     0.900000E-01   1.00800           0
     15021 MEMB     133      POPC     C23      CTL2    -0.180000       12.0110           0
     15022 MEMB     133      POPC     H3R      HAL2     0.900000E-01   1.00800           0
     15023 MEMB     133      POPC     H3S      HAL2     0.900000E-01   1.00800           0
     15024 MEMB     133      POPC     C24      CTL2    -0.180000       12.0110           0
     15025 MEMB     133      POPC     H4R      HAL2     0.900000E-01   1.00800           0
     15026 MEMB     133      POPC     H4S      HAL2     0.900000E-01   1.00800           0
     15027 MEMB     133      POPC     C25      CTL2    -0.180000       12.0110           0
     15028 MEMB     133      POPC     H5R      HAL2     0.900000E-01   1.00800           0
     15029 MEMB     133      POPC     H5S      HAL2     0.900000E-01   1.00800           0
     15030 MEMB     133      POPC     C26      CTL2    -0.180000       12.0110           0
     15031 MEMB     133      POPC     H6R      HAL2     0.900000E-01   1.00800           0
     15032 MEMB     133      POPC     H6S      HAL2     0.900000E-01   1.00800           0
     15033 MEMB     133      POPC     C27      CTL2    -0.180000       12.0110           0
     15034 MEMB     133      POPC     H7R      HAL2     0.900000E-01   1.00800           0
     15035 MEMB     133      POPC     H7S      HAL2     0.900000E-01   1.00800           0
     15036 MEMB     133      POPC     C28      CTL2    -0.180000       12.0110           0
     15037 MEMB     133      POPC     H8R      HAL2     0.900000E-01   1.00800           0
     15038 MEMB     133      POPC     H8S      HAL2     0.900000E-01   1.00800           0
     15039 MEMB     133      POPC     C29      CEL1    -0.150000       12.0110           0
     15040 MEMB     133      POPC     H91      HEL1     0.150000       1.00800           0
     15041 MEMB     133      POPC     C210     CEL1    -0.150000       12.0110           0
     15042 MEMB     133      POPC     H101     HEL1     0.150000       1.00800           0
     15043 MEMB     133      POPC     C211     CTL2    -0.180000       12.0110           0
     15044 MEMB     133      POPC     H11R     HAL2     0.900000E-01   1.00800           0
     15045 MEMB     133      POPC     H11S     HAL2     0.900000E-01   1.00800           0
     15046 MEMB     133      POPC     C212     CTL2    -0.180000       12.0110           0
     15047 MEMB     133      POPC     H12R     HAL2     0.900000E-01   1.00800           0
     15048 MEMB     133      POPC     H12S     HAL2     0.900000E-01   1.00800           0
     15049 MEMB     133      POPC     C213     CTL2    -0.180000       12.0110           0
     15050 MEMB     133      POPC     H13R     HAL2     0.900000E-01   1.00800           0
     15051 MEMB     133      POPC     H13S     HAL2     0.900000E-01   1.00800           0
     15052 MEMB     133      POPC     C214     CTL2    -0.180000       12.0110           0
     15053 MEMB     133      POPC     H14R     HAL2     0.900000E-01   1.00800           0
     15054 MEMB     133      POPC     H14S     HAL2     0.900000E-01   1.00800           0
     15055 MEMB     133      POPC     C215     CTL2    -0.180000       12.0110           0
     15056 MEMB     133      POPC     H15R     HAL2     0.900000E-01   1.00800           0
     15057 MEMB     133      POPC     H15S     HAL2     0.900000E-01   1.00800           0
     15058 MEMB     133      POPC     C216     CTL2    -0.180000       12.0110           0
     15059 MEMB     133      POPC     H16R     HAL2     0.900000E-01   1.00800           0
     15060 MEMB     133      POPC     H16S     HAL2     0.900000E-01   1.00800           0
     15061 MEMB     133      POPC     C217     CTL2    -0.180000       12.0110           0
     15062 MEMB     133      POPC     H17R     HAL2     0.900000E-01   1.00800           0
     15063 MEMB     133      POPC     H17S     HAL2     0.900000E-01   1.00800           0
     15064 MEMB     133      POPC     C218     CTL3    -0.270000       12.0110           0
     15065 MEMB     133      POPC     H18R     HAL3     0.900000E-01   1.00800           0
     15066 MEMB     133      POPC     H18S     HAL3     0.900000E-01   1.00800           0
     15067 MEMB     133      POPC     H18T     HAL3     0.900000E-01   1.00800           0
     15068 MEMB     133      POPC     C33      CTL2    -0.180000       12.0110           0
     15069 MEMB     133      POPC     H3X      HAL2     0.900000E-01   1.00800           0
     15070 MEMB     133      POPC     H3Y      HAL2     0.900000E-01   1.00800           0
     15071 MEMB     133      POPC     C34      CTL2    -0.180000       12.0110           0
     15072 MEMB     133      POPC     H4X      HAL2     0.900000E-01   1.00800           0
     15073 MEMB     133      POPC     H4Y      HAL2     0.900000E-01   1.00800           0
     15074 MEMB     133      POPC     C35      CTL2    -0.180000       12.0110           0
     15075 MEMB     133      POPC     H5X      HAL2     0.900000E-01   1.00800           0
     15076 MEMB     133      POPC     H5Y      HAL2     0.900000E-01   1.00800           0
     15077 MEMB     133      POPC     C36      CTL2    -0.180000       12.0110           0
     15078 MEMB     133      POPC     H6X      HAL2     0.900000E-01   1.00800           0
     15079 MEMB     133      POPC     H6Y      HAL2     0.900000E-01   1.00800           0
     15080 MEMB     133      POPC     C37      CTL2    -0.180000       12.0110           0
     15081 MEMB     133      POPC     H7X      HAL2     0.900000E-01   1.00800           0
     15082 MEMB     133      POPC     H7Y      HAL2     0.900000E-01   1.00800           0
     15083 MEMB     133      POPC     C38      CTL2    -0.180000       12.0110           0
     15084 MEMB     133      POPC     H8X      HAL2     0.900000E-01   1.00800           0
     15085 MEMB     133      POPC     H8Y      HAL2     0.900000E-01   1.00800           0
     15086 MEMB     133      POPC     C39      CTL2    -0.180000       12.0110           0
     15087 MEMB     133      POPC     H9X      HAL2     0.900000E-01   1.00800           0
     15088 MEMB     133      POPC     H9Y      HAL2     0.900000E-01   1.00800           0
     15089 MEMB     133      POPC     C310     CTL2    -0.180000       12.0110           0
     15090 MEMB     133      POPC     H10X     HAL2     0.900000E-01   1.00800           0
     15091 MEMB     133      POPC     H10Y     HAL2     0.900000E-01   1.00800           0
     15092 MEMB     133      POPC     C311     CTL2    -0.180000       12.0110           0
     15093 MEMB     133      POPC     H11X     HAL2     0.900000E-01   1.00800           0
     15094 MEMB     133      POPC     H11Y     HAL2     0.900000E-01   1.00800           0
     15095 MEMB     133      POPC     C312     CTL2    -0.180000       12.0110           0
     15096 MEMB     133      POPC     H12X     HAL2     0.900000E-01   1.00800           0
     15097 MEMB     133      POPC     H12Y     HAL2     0.900000E-01   1.00800           0
     15098 MEMB     133      POPC     C313     CTL2    -0.180000       12.0110           0
     15099 MEMB     133      POPC     H13X     HAL2     0.900000E-01   1.00800           0
     15100 MEMB     133      POPC     H13Y     HAL2     0.900000E-01   1.00800           0
     15101 MEMB     133      POPC     C314     CTL2    -0.180000       12.0110           0
     15102 MEMB     133      POPC     H14X     HAL2     0.900000E-01   1.00800           0
     15103 MEMB     133      POPC     H14Y     HAL2     0.900000E-01   1.00800           0
     15104 MEMB     133      POPC     C315     CTL2    -0.180000       12.0110           0
     15105 MEMB     133      POPC     H15X     HAL2     0.900000E-01   1.00800           0
     15106 MEMB     133      POPC     H15Y     HAL2     0.900000E-01   1.00800           0
     15107 MEMB     133      POPC     C316     CTL3    -0.270000       12.0110           0
     15108 MEMB     133      POPC     H16X     HAL3     0.900000E-01   1.00800           0
     15109 MEMB     133      POPC     H16Y     HAL3     0.900000E-01   1.00800           0
     15110 MEMB     133      POPC     H16Z     HAL3     0.900000E-01   1.00800           0
     15111 MEMB     134      POPE     N        NH3L    -0.300000       14.0070           0
     15112 MEMB     134      POPE     HN1      HCL      0.330000       1.00800           0
     15113 MEMB     134      POPE     HN2      HCL      0.330000       1.00800           0
     15114 MEMB     134      POPE     HN3      HCL      0.330000       1.00800           0
     15115 MEMB     134      POPE     C12      CTL2     0.130000       12.0110           0
     15116 MEMB     134      POPE     H12A     HAL2     0.900000E-01   1.00800           0
     15117 MEMB     134      POPE     H12B     HAL2     0.900000E-01   1.00800           0
     15118 MEMB     134      POPE     C11      CTL2    -0.800000E-01   12.0110           0
     15119 MEMB     134      POPE     H11A     HAL2     0.900000E-01   1.00800           0
     15120 MEMB     134      POPE     H11B     HAL2     0.900000E-01   1.00800           0
     15121 MEMB     134      POPE     P        PL        1.50000       30.9740           0
     15122 MEMB     134      POPE     O13      O2L     -0.780000       15.9994           0
     15123 MEMB     134      POPE     O14      O2L     -0.780000       15.9994           0
     15124 MEMB     134      POPE     O11      OSLP    -0.570000       15.9994           0
     15125 MEMB     134      POPE     O12      OSLP    -0.570000       15.9994           0
     15126 MEMB     134      POPE     C1       CTL2    -0.800000E-01   12.0110           0
     15127 MEMB     134      POPE     HA       HAL2     0.900000E-01   1.00800           0
     15128 MEMB     134      POPE     HB       HAL2     0.900000E-01   1.00800           0
     15129 MEMB     134      POPE     C2       CTL1     0.170000       12.0110           0
     15130 MEMB     134      POPE     HS       HAL1     0.900000E-01   1.00800           0
     15131 MEMB     134      POPE     O21      OSL     -0.490000       15.9994           0
     15132 MEMB     134      POPE     C21      CL       0.900000       12.0110           0
     15133 MEMB     134      POPE     O22      OBL     -0.630000       15.9994           0
     15134 MEMB     134      POPE     C22      CTL2    -0.220000       12.0110           0
     15135 MEMB     134      POPE     H2R      HAL2     0.900000E-01   1.00800           0
     15136 MEMB     134      POPE     H2S      HAL2     0.900000E-01   1.00800           0
     15137 MEMB     134      POPE     C3       CTL2     0.800000E-01   12.0110           0
     15138 MEMB     134      POPE     HX       HAL2     0.900000E-01   1.00800           0
     15139 MEMB     134      POPE     HY       HAL2     0.900000E-01   1.00800           0
     15140 MEMB     134      POPE     O31      OSL     -0.490000       15.9994           0
     15141 MEMB     134      POPE     C31      CL       0.900000       12.0110           0
     15142 MEMB     134      POPE     O32      OBL     -0.630000       15.9994           0
     15143 MEMB     134      POPE     C32      CTL2    -0.220000       12.0110           0
     15144 MEMB     134      POPE     H2X      HAL2     0.900000E-01   1.00800           0
     15145 MEMB     134      POPE     H2Y      HAL2     0.900000E-01   1.00800           0
     15146 MEMB     134      POPE     C23      CTL2    -0.180000       12.0110           0
     15147 MEMB     134      POPE     H3R      HAL2     0.900000E-01   1.00800           0
     15148 MEMB     134      POPE     H3S      HAL2     0.900000E-01   1.00800           0
     15149 MEMB     134      POPE     C24      CTL2    -0.180000       12.0110           0
     15150 MEMB     134      POPE     H4R      HAL2     0.900000E-01   1.00800           0
     15151 MEMB     134      POPE     H4S      HAL2     0.900000E-01   1.00800           0
     15152 MEMB     134      POPE     C25      CTL2    -0.180000       12.0110           0
     15153 MEMB     134      POPE     H5R      HAL2     0.900000E-01   1.00800           0
     15154 MEMB     134      POPE     H5S      HAL2     0.900000E-01   1.00800           0
     15155 MEMB     134      POPE     C26      CTL2    -0.180000       12.0110           0
     15156 MEMB     134      POPE     H6R      HAL2     0.900000E-01   1.00800           0
     15157 MEMB     134      POPE     H6S      HAL2     0.900000E-01   1.00800           0
     15158 MEMB     134      POPE     C27      CTL2    -0.180000       12.0110           0
     15159 MEMB     134      POPE     H7R      HAL2     0.900000E-01   1.00800           0
     15160 MEMB     134      POPE     H7S      HAL2     0.900000E-01   1.00800           0
     15161 MEMB     134      POPE     C28      CTL2    -0.180000       12.0110           0
     15162 MEMB     134      POPE     H8R      HAL2     0.900000E-01   1.00800           0
     15163 MEMB     134      POPE     H8S      HAL2     0.900000E-01   1.00800           0
     15164 MEMB     134      POPE     C29      CEL1    -0.150000       12.0110           0
     15165 MEMB     134      POPE     H91      HEL1     0.150000       1.00800           0
     15166 MEMB     134      POPE     C210     CEL1    -0.150000       12.0110           0
     15167 MEMB     134      POPE     H101     HEL1     0.150000       1.00800           0
     15168 MEMB     134      POPE     C211     CTL2    -0.180000       12.0110           0
     15169 MEMB     134      POPE     H11R     HAL2     0.900000E-01   1.00800           0
     15170 MEMB     134      POPE     H11S     HAL2     0.900000E-01   1.00800           0
     15171 MEMB     134      POPE     C212     CTL2    -0.180000       12.0110           0
     15172 MEMB     134      POPE     H12R     HAL2     0.900000E-01   1.00800           0
     15173 MEMB     134      POPE     H12S     HAL2     0.900000E-01   1.00800           0
     15174 MEMB     134      POPE     C213     CTL2    -0.180000       12.0110           0
     15175 MEMB     134      POPE     H13R     HAL2     0.900000E-01   1.00800           0
     15176 MEMB     134      POPE     H13S     HAL2     0.900000E-01   1.00800           0
     15177 MEMB     134      POPE     C214     CTL2    -0.180000       12.0110           0
     15178 MEMB     134      POPE     H14R     HAL2     0.900000E-01   1.00800           0
     15179 MEMB     134      POPE     H14S     HAL2     0.900000E-01   1.00800           0
     15180 MEMB     134      POPE     C215     CTL2    -0.180000       12.0110           0
     15181 MEMB     134      POPE     H15R     HAL2     0.900000E-01   1.00800           0
     15182 MEMB     134      POPE     H15S     HAL2     0.900000E-01   1.00800           0
     15183 MEMB     134      POPE     C216     CTL2    -0.180000       12.0110           0
     15184 MEMB     134      POPE     H16R     HAL2     0.900000E-01   1.00800           0
     15185 MEMB     134      POPE     H16S     HAL2     0.900000E-01   1.00800           0
     15186 MEMB     134      POPE     C217     CTL2    -0.180000       12.0110           0
     15187 MEMB     134      POPE     H17R     HAL2     0.900000E-01   1.00800           0
     15188 MEMB     134      POPE     H17S     HAL2     0.900000E-01   1.00800           0
     15189 MEMB     134      POPE     C218     CTL3    -0.270000       12.0110           0
     15190 MEMB     134      POPE     H18R     HAL3     0.900000E-01   1.00800           0
     15191 MEMB     134      POPE     H18S     HAL3     0.900000E-01   1.00800           0
     15192 MEMB     134      POPE     H18T     HAL3     0.900000E-01   1.00800           0
     15193 MEMB     134      POPE     C33      CTL2    -0.180000       12.0110           0
     15194 MEMB     134      POPE     H3X      HAL2     0.900000E-01   1.00800           0
     15195 MEMB     134      POPE     H3Y      HAL2     0.900000E-01   1.00800           0
     15196 MEMB     134      POPE     C34      CTL2    -0.180000       12.0110           0
     15197 MEMB     134      POPE     H4X      HAL2     0.900000E-01   1.00800           0
     15198 MEMB     134      POPE     H4Y      HAL2     0.900000E-01   1.00800           0
     15199 MEMB     134      POPE     C35      CTL2    -0.180000       12.0110           0
     15200 MEMB     134      POPE     H5X      HAL2     0.900000E-01   1.00800           0
     15201 MEMB     134      POPE     H5Y      HAL2     0.900000E-01   1.00800           0
     15202 MEMB     134      POPE     C36      CTL2    -0.180000       12.0110           0
     15203 MEMB     134      POPE     H6X      HAL2     0.900000E-01   1.00800           0
     15204 MEMB     134      POPE     H6Y      HAL2     0.900000E-01   1.00800           0
     15205 MEMB     134      POPE     C37      CTL2    -0.180000       12.0110           0
     15206 MEMB     134      POPE     H7X      HAL2     0.900000E-01   1.00800           0
     15207 MEMB     134      POPE     H7Y      HAL2     0.900000E-01   1.00800           0
     15208 MEMB     134      POPE     C38      CTL2    -0.180000       12.0110           0
     15209 MEMB     134      POPE     H8X      HAL2     0.900000E-01   1.00800           0
     15210 MEMB     134      POPE     H8Y      HAL2     0.900000E-01   1.00800           0
     15211 MEMB     134      POPE     C39      CTL2    -0.180000       12.0110           0
     15212 MEMB     134      POPE     H9X      HAL2     0.900000E-01   1.00800           0
     15213 MEMB     134      POPE     H9Y      HAL2     0.900000E-01   1.00800           0
     15214 MEMB     134      POPE     C310     CTL2    -0.180000       12.0110           0
     15215 MEMB     134      POPE     H10X     HAL2     0.900000E-01   1.00800           0
     15216 MEMB     134      POPE     H10Y     HAL2     0.900000E-01   1.00800           0
     15217 MEMB     134      POPE     C311     CTL2    -0.180000       12.0110           0
     15218 MEMB     134      POPE     H11X     HAL2     0.900000E-01   1.00800           0
     15219 MEMB     134      POPE     H11Y     HAL2     0.900000E-01   1.00800           0
     15220 MEMB     134      POPE     C312     CTL2    -0.180000       12.0110           0
     15221 MEMB     134      POPE     H12X     HAL2     0.900000E-01   1.00800           0
     15222 MEMB     134      POPE     H12Y     HAL2     0.900000E-01   1.00800           0
     15223 MEMB     134      POPE     C313     CTL2    -0.180000       12.0110           0
     15224 MEMB     134      POPE     H13X     HAL2     0.900000E-01   1.00800           0
     15225 MEMB     134      POPE     H13Y     HAL2     0.900000E-01   1.00800           0
     15226 MEMB     134      POPE     C314     CTL2    -0.180000       12.0110           0
     15227 MEMB     134      POPE     H14X     HAL2     0.900000E-01   1.00800           0
     15228 MEMB     134      POPE     H14Y     HAL2     0.900000E-01   1.00800           0
     15229 MEMB     134      POPE     C315     CTL2    -0.180000       12.0110           0
     15230 MEMB     134      POPE     H15X     HAL2     0.900000E-01   1.00800           0
     15231 MEMB     134      POPE     H15Y     HAL2     0.900000E-01   1.00800           0
     15232 MEMB     134      POPE     C316     CTL3    -0.270000       12.0110           0
     15233 MEMB     134      POPE     H16X     HAL3     0.900000E-01   1.00800           0
     15234 MEMB     134      POPE     H16Y     HAL3     0.900000E-01   1.00800           0
     15235 MEMB     134      POPE     H16Z     HAL3     0.900000E-01   1.00800           0
     15236 MEMB     135      POPE     N        NH3L    -0.300000       14.0070           0
     15237 MEMB     135      POPE     HN1      HCL      0.330000       1.00800           0
     15238 MEMB     135      POPE     HN2      HCL      0.330000       1.00800           0
     15239 MEMB     135      POPE     HN3      HCL      0.330000       1.00800           0
     15240 MEMB     135      POPE     C12      CTL2     0.130000       12.0110           0
     15241 MEMB     135      POPE     H12A     HAL2     0.900000E-01   1.00800           0
     15242 MEMB     135      POPE     H12B     HAL2     0.900000E-01   1.00800           0
     15243 MEMB     135      POPE     C11      CTL2    -0.800000E-01   12.0110           0
     15244 MEMB     135      POPE     H11A     HAL2     0.900000E-01   1.00800           0
     15245 MEMB     135      POPE     H11B     HAL2     0.900000E-01   1.00800           0
     15246 MEMB     135      POPE     P        PL        1.50000       30.9740           0
     15247 MEMB     135      POPE     O13      O2L     -0.780000       15.9994           0
     15248 MEMB     135      POPE     O14      O2L     -0.780000       15.9994           0
     15249 MEMB     135      POPE     O11      OSLP    -0.570000       15.9994           0
     15250 MEMB     135      POPE     O12      OSLP    -0.570000       15.9994           0
     15251 MEMB     135      POPE     C1       CTL2    -0.800000E-01   12.0110           0
     15252 MEMB     135      POPE     HA       HAL2     0.900000E-01   1.00800           0
     15253 MEMB     135      POPE     HB       HAL2     0.900000E-01   1.00800           0
     15254 MEMB     135      POPE     C2       CTL1     0.170000       12.0110           0
     15255 MEMB     135      POPE     HS       HAL1     0.900000E-01   1.00800           0
     15256 MEMB     135      POPE     O21      OSL     -0.490000       15.9994           0
     15257 MEMB     135      POPE     C21      CL       0.900000       12.0110           0
     15258 MEMB     135      POPE     O22      OBL     -0.630000       15.9994           0
     15259 MEMB     135      POPE     C22      CTL2    -0.220000       12.0110           0
     15260 MEMB     135      POPE     H2R      HAL2     0.900000E-01   1.00800           0
     15261 MEMB     135      POPE     H2S      HAL2     0.900000E-01   1.00800           0
     15262 MEMB     135      POPE     C3       CTL2     0.800000E-01   12.0110           0
     15263 MEMB     135      POPE     HX       HAL2     0.900000E-01   1.00800           0
     15264 MEMB     135      POPE     HY       HAL2     0.900000E-01   1.00800           0
     15265 MEMB     135      POPE     O31      OSL     -0.490000       15.9994           0
     15266 MEMB     135      POPE     C31      CL       0.900000       12.0110           0
     15267 MEMB     135      POPE     O32      OBL     -0.630000       15.9994           0
     15268 MEMB     135      POPE     C32      CTL2    -0.220000       12.0110           0
     15269 MEMB     135      POPE     H2X      HAL2     0.900000E-01   1.00800           0
     15270 MEMB     135      POPE     H2Y      HAL2     0.900000E-01   1.00800           0
     15271 MEMB     135      POPE     C23      CTL2    -0.180000       12.0110           0
     15272 MEMB     135      POPE     H3R      HAL2     0.900000E-01   1.00800           0
     15273 MEMB     135      POPE     H3S      HAL2     0.900000E-01   1.00800           0
     15274 MEMB     135      POPE     C24      CTL2    -0.180000       12.0110           0
     15275 MEMB     135      POPE     H4R      HAL2     0.900000E-01   1.00800           0
     15276 MEMB     135      POPE     H4S      HAL2     0.900000E-01   1.00800           0
     15277 MEMB     135      POPE     C25      CTL2    -0.180000       12.0110           0
     15278 MEMB     135      POPE     H5R      HAL2     0.900000E-01   1.00800           0
     15279 MEMB     135      POPE     H5S      HAL2     0.900000E-01   1.00800           0
     15280 MEMB     135      POPE     C26      CTL2    -0.180000       12.0110           0
     15281 MEMB     135      POPE     H6R      HAL2     0.900000E-01   1.00800           0
     15282 MEMB     135      POPE     H6S      HAL2     0.900000E-01   1.00800           0
     15283 MEMB     135      POPE     C27      CTL2    -0.180000       12.0110           0
     15284 MEMB     135      POPE     H7R      HAL2     0.900000E-01   1.00800           0
     15285 MEMB     135      POPE     H7S      HAL2     0.900000E-01   1.00800           0
     15286 MEMB     135      POPE     C28      CTL2    -0.180000       12.0110           0
     15287 MEMB     135      POPE     H8R      HAL2     0.900000E-01   1.00800           0
     15288 MEMB     135      POPE     H8S      HAL2     0.900000E-01   1.00800           0
     15289 MEMB     135      POPE     C29      CEL1    -0.150000       12.0110           0
     15290 MEMB     135      POPE     H91      HEL1     0.150000       1.00800           0
     15291 MEMB     135      POPE     C210     CEL1    -0.150000       12.0110           0
     15292 MEMB     135      POPE     H101     HEL1     0.150000       1.00800           0
     15293 MEMB     135      POPE     C211     CTL2    -0.180000       12.0110           0
     15294 MEMB     135      POPE     H11R     HAL2     0.900000E-01   1.00800           0
     15295 MEMB     135      POPE     H11S     HAL2     0.900000E-01   1.00800           0
     15296 MEMB     135      POPE     C212     CTL2    -0.180000       12.0110           0
     15297 MEMB     135      POPE     H12R     HAL2     0.900000E-01   1.00800           0
     15298 MEMB     135      POPE     H12S     HAL2     0.900000E-01   1.00800           0
     15299 MEMB     135      POPE     C213     CTL2    -0.180000       12.0110           0
     15300 MEMB     135      POPE     H13R     HAL2     0.900000E-01   1.00800           0
     15301 MEMB     135      POPE     H13S     HAL2     0.900000E-01   1.00800           0
     15302 MEMB     135      POPE     C214     CTL2    -0.180000       12.0110           0
     15303 MEMB     135      POPE     H14R     HAL2     0.900000E-01   1.00800           0
     15304 MEMB     135      POPE     H14S     HAL2     0.900000E-01   1.00800           0
     15305 MEMB     135      POPE     C215     CTL2    -0.180000       12.0110           0
     15306 MEMB     135      POPE     H15R     HAL2     0.900000E-01   1.00800           0
     15307 MEMB     135      POPE     H15S     HAL2     0.900000E-01   1.00800           0
     15308 MEMB     135      POPE     C216     CTL2    -0.180000       12.0110           0
     15309 MEMB     135      POPE     H16R     HAL2     0.900000E-01   1.00800           0
     15310 MEMB     135      POPE     H16S     HAL2     0.900000E-01   1.00800           0
     15311 MEMB     135      POPE     C217     CTL2    -0.180000       12.0110           0
     15312 MEMB     135      POPE     H17R     HAL2     0.900000E-01   1.00800           0
     15313 MEMB     135      POPE     H17S     HAL2     0.900000E-01   1.00800           0
     15314 MEMB     135      POPE     C218     CTL3    -0.270000       12.0110           0
     15315 MEMB     135      POPE     H18R     HAL3     0.900000E-01   1.00800           0
     15316 MEMB     135      POPE     H18S     HAL3     0.900000E-01   1.00800           0
     15317 MEMB     135      POPE     H18T     HAL3     0.900000E-01   1.00800           0
     15318 MEMB     135      POPE     C33      CTL2    -0.180000       12.0110           0
     15319 MEMB     135      POPE     H3X      HAL2     0.900000E-01   1.00800           0
     15320 MEMB     135      POPE     H3Y      HAL2     0.900000E-01   1.00800           0
     15321 MEMB     135      POPE     C34      CTL2    -0.180000       12.0110           0
     15322 MEMB     135      POPE     H4X      HAL2     0.900000E-01   1.00800           0
     15323 MEMB     135      POPE     H4Y      HAL2     0.900000E-01   1.00800           0
     15324 MEMB     135      POPE     C35      CTL2    -0.180000       12.0110           0
     15325 MEMB     135      POPE     H5X      HAL2     0.900000E-01   1.00800           0
     15326 MEMB     135      POPE     H5Y      HAL2     0.900000E-01   1.00800           0
     15327 MEMB     135      POPE     C36      CTL2    -0.180000       12.0110           0
     15328 MEMB     135      POPE     H6X      HAL2     0.900000E-01   1.00800           0
     15329 MEMB     135      POPE     H6Y      HAL2     0.900000E-01   1.00800           0
     15330 MEMB     135      POPE     C37      CTL2    -0.180000       12.0110           0
     15331 MEMB     135      POPE     H7X      HAL2     0.900000E-01   1.00800           0
     15332 MEMB     135      POPE     H7Y      HAL2     0.900000E-01   1.00800           0
     15333 MEMB     135      POPE     C38      CTL2    -0.180000       12.0110           0
     15334 MEMB     135      POPE     H8X      HAL2     0.900000E-01   1.00800           0
     15335 MEMB     135      POPE     H8Y      HAL2     0.900000E-01   1.00800           0
     15336 MEMB     135      POPE     C39      CTL2    -0.180000       12.0110           0
     15337 MEMB     135      POPE     H9X      HAL2     0.900000E-01   1.00800           0
     15338 MEMB     135      POPE     H9Y      HAL2     0.900000E-01   1.00800           0
     15339 MEMB     135      POPE     C310     CTL2    -0.180000       12.0110           0
     15340 MEMB     135      POPE     H10X     HAL2     0.900000E-01   1.00800           0
     15341 MEMB     135      POPE     H10Y     HAL2     0.900000E-01   1.00800           0
     15342 MEMB     135      POPE     C311     CTL2    -0.180000       12.0110           0
     15343 MEMB     135      POPE     H11X     HAL2     0.900000E-01   1.00800           0
     15344 MEMB     135      POPE     H11Y     HAL2     0.900000E-01   1.00800           0
     15345 MEMB     135      POPE     C312     CTL2    -0.180000       12.0110           0
     15346 MEMB     135      POPE     H12X     HAL2     0.900000E-01   1.00800           0
     15347 MEMB     135      POPE     H12Y     HAL2     0.900000E-01   1.00800           0
     15348 MEMB     135      POPE     C313     CTL2    -0.180000       12.0110           0
     15349 MEMB     135      POPE     H13X     HAL2     0.900000E-01   1.00800           0
     15350 MEMB     135      POPE     H13Y     HAL2     0.900000E-01   1.00800           0
     15351 MEMB     135      POPE     C314     CTL2    -0.180000       12.0110           0
     15352 MEMB     135      POPE     H14X     HAL2     0.900000E-01   1.00800           0
     15353 MEMB     135      POPE     H14Y     HAL2     0.900000E-01   1.00800           0
     15354 MEMB     135      POPE     C315     CTL2    -0.180000       12.0110           0
     15355 MEMB     135      POPE     H15X     HAL2     0.900000E-01   1.00800           0
     15356 MEMB     135      POPE     H15Y     HAL2     0.900000E-01   1.00800           0
     15357 MEMB     135      POPE     C316     CTL3    -0.270000       12.0110           0
     15358 MEMB     135      POPE     H16X     HAL3     0.900000E-01   1.00800           0
     15359 MEMB     135      POPE     H16Y     HAL3     0.900000E-01   1.00800           0
     15360 MEMB     135      POPE     H16Z     HAL3     0.900000E-01   1.00800           0
     15361 MEMB     136      POPE     N        NH3L    -0.300000       14.0070           0
     15362 MEMB     136      POPE     HN1      HCL      0.330000       1.00800           0
     15363 MEMB     136      POPE     HN2      HCL      0.330000       1.00800           0
     15364 MEMB     136      POPE     HN3      HCL      0.330000       1.00800           0
     15365 MEMB     136      POPE     C12      CTL2     0.130000       12.0110           0
     15366 MEMB     136      POPE     H12A     HAL2     0.900000E-01   1.00800           0
     15367 MEMB     136      POPE     H12B     HAL2     0.900000E-01   1.00800           0
     15368 MEMB     136      POPE     C11      CTL2    -0.800000E-01   12.0110           0
     15369 MEMB     136      POPE     H11A     HAL2     0.900000E-01   1.00800           0
     15370 MEMB     136      POPE     H11B     HAL2     0.900000E-01   1.00800           0
     15371 MEMB     136      POPE     P        PL        1.50000       30.9740           0
     15372 MEMB     136      POPE     O13      O2L     -0.780000       15.9994           0
     15373 MEMB     136      POPE     O14      O2L     -0.780000       15.9994           0
     15374 MEMB     136      POPE     O11      OSLP    -0.570000       15.9994           0
     15375 MEMB     136      POPE     O12      OSLP    -0.570000       15.9994           0
     15376 MEMB     136      POPE     C1       CTL2    -0.800000E-01   12.0110           0
     15377 MEMB     136      POPE     HA       HAL2     0.900000E-01   1.00800           0
     15378 MEMB     136      POPE     HB       HAL2     0.900000E-01   1.00800           0
     15379 MEMB     136      POPE     C2       CTL1     0.170000       12.0110           0
     15380 MEMB     136      POPE     HS       HAL1     0.900000E-01   1.00800           0
     15381 MEMB     136      POPE     O21      OSL     -0.490000       15.9994           0
     15382 MEMB     136      POPE     C21      CL       0.900000       12.0110           0
     15383 MEMB     136      POPE     O22      OBL     -0.630000       15.9994           0
     15384 MEMB     136      POPE     C22      CTL2    -0.220000       12.0110           0
     15385 MEMB     136      POPE     H2R      HAL2     0.900000E-01   1.00800           0
     15386 MEMB     136      POPE     H2S      HAL2     0.900000E-01   1.00800           0
     15387 MEMB     136      POPE     C3       CTL2     0.800000E-01   12.0110           0
     15388 MEMB     136      POPE     HX       HAL2     0.900000E-01   1.00800           0
     15389 MEMB     136      POPE     HY       HAL2     0.900000E-01   1.00800           0
     15390 MEMB     136      POPE     O31      OSL     -0.490000       15.9994           0
     15391 MEMB     136      POPE     C31      CL       0.900000       12.0110           0
     15392 MEMB     136      POPE     O32      OBL     -0.630000       15.9994           0
     15393 MEMB     136      POPE     C32      CTL2    -0.220000       12.0110           0
     15394 MEMB     136      POPE     H2X      HAL2     0.900000E-01   1.00800           0
     15395 MEMB     136      POPE     H2Y      HAL2     0.900000E-01   1.00800           0
     15396 MEMB     136      POPE     C23      CTL2    -0.180000       12.0110           0
     15397 MEMB     136      POPE     H3R      HAL2     0.900000E-01   1.00800           0
     15398 MEMB     136      POPE     H3S      HAL2     0.900000E-01   1.00800           0
     15399 MEMB     136      POPE     C24      CTL2    -0.180000       12.0110           0
     15400 MEMB     136      POPE     H4R      HAL2     0.900000E-01   1.00800           0
     15401 MEMB     136      POPE     H4S      HAL2     0.900000E-01   1.00800           0
     15402 MEMB     136      POPE     C25      CTL2    -0.180000       12.0110           0
     15403 MEMB     136      POPE     H5R      HAL2     0.900000E-01   1.00800           0
     15404 MEMB     136      POPE     H5S      HAL2     0.900000E-01   1.00800           0
     15405 MEMB     136      POPE     C26      CTL2    -0.180000       12.0110           0
     15406 MEMB     136      POPE     H6R      HAL2     0.900000E-01   1.00800           0
     15407 MEMB     136      POPE     H6S      HAL2     0.900000E-01   1.00800           0
     15408 MEMB     136      POPE     C27      CTL2    -0.180000       12.0110           0
     15409 MEMB     136      POPE     H7R      HAL2     0.900000E-01   1.00800           0
     15410 MEMB     136      POPE     H7S      HAL2     0.900000E-01   1.00800           0
     15411 MEMB     136      POPE     C28      CTL2    -0.180000       12.0110           0
     15412 MEMB     136      POPE     H8R      HAL2     0.900000E-01   1.00800           0
     15413 MEMB     136      POPE     H8S      HAL2     0.900000E-01   1.00800           0
     15414 MEMB     136      POPE     C29      CEL1    -0.150000       12.0110           0
     15415 MEMB     136      POPE     H91      HEL1     0.150000       1.00800           0
     15416 MEMB     136      POPE     C210     CEL1    -0.150000       12.0110           0
     15417 MEMB     136      POPE     H101     HEL1     0.150000       1.00800           0
     15418 MEMB     136      POPE     C211     CTL2    -0.180000       12.0110           0
     15419 MEMB     136      POPE     H11R     HAL2     0.900000E-01   1.00800           0
     15420 MEMB     136      POPE     H11S     HAL2     0.900000E-01   1.00800           0
     15421 MEMB     136      POPE     C212     CTL2    -0.180000       12.0110           0
     15422 MEMB     136      POPE     H12R     HAL2     0.900000E-01   1.00800           0
     15423 MEMB     136      POPE     H12S     HAL2     0.900000E-01   1.00800           0
     15424 MEMB     136      POPE     C213     CTL2    -0.180000       12.0110           0
     15425 MEMB     136      POPE     H13R     HAL2     0.900000E-01   1.00800           0
     15426 MEMB     136      POPE     H13S     HAL2     0.900000E-01   1.00800           0
     15427 MEMB     136      POPE     C214     CTL2    -0.180000       12.0110           0
     15428 MEMB     136      POPE     H14R     HAL2     0.900000E-01   1.00800           0
     15429 MEMB     136      POPE     H14S     HAL2     0.900000E-01   1.00800           0
     15430 MEMB     136      POPE     C215     CTL2    -0.180000       12.0110           0
     15431 MEMB     136      POPE     H15R     HAL2     0.900000E-01   1.00800           0
     15432 MEMB     136      POPE     H15S     HAL2     0.900000E-01   1.00800           0
     15433 MEMB     136      POPE     C216     CTL2    -0.180000       12.0110           0
     15434 MEMB     136      POPE     H16R     HAL2     0.900000E-01   1.00800           0
     15435 MEMB     136      POPE     H16S     HAL2     0.900000E-01   1.00800           0
     15436 MEMB     136      POPE     C217     CTL2    -0.180000       12.0110           0
     15437 MEMB     136      POPE     H17R     HAL2     0.900000E-01   1.00800           0
     15438 MEMB     136      POPE     H17S     HAL2     0.900000E-01   1.00800           0
     15439 MEMB     136      POPE     C218     CTL3    -0.270000       12.0110           0
     15440 MEMB     136      POPE     H18R     HAL3     0.900000E-01   1.00800           0
     15441 MEMB     136      POPE     H18S     HAL3     0.900000E-01   1.00800           0
     15442 MEMB     136      POPE     H18T     HAL3     0.900000E-01   1.00800           0
     15443 MEMB     136      POPE     C33      CTL2    -0.180000       12.0110           0
     15444 MEMB     136      POPE     H3X      HAL2     0.900000E-01   1.00800           0
     15445 MEMB     136      POPE     H3Y      HAL2     0.900000E-01   1.00800           0
     15446 MEMB     136      POPE     C34      CTL2    -0.180000       12.0110           0
     15447 MEMB     136      POPE     H4X      HAL2     0.900000E-01   1.00800           0
     15448 MEMB     136      POPE     H4Y      HAL2     0.900000E-01   1.00800           0
     15449 MEMB     136      POPE     C35      CTL2    -0.180000       12.0110           0
     15450 MEMB     136      POPE     H5X      HAL2     0.900000E-01   1.00800           0
     15451 MEMB     136      POPE     H5Y      HAL2     0.900000E-01   1.00800           0
     15452 MEMB     136      POPE     C36      CTL2    -0.180000       12.0110           0
     15453 MEMB     136      POPE     H6X      HAL2     0.900000E-01   1.00800           0
     15454 MEMB     136      POPE     H6Y      HAL2     0.900000E-01   1.00800           0
     15455 MEMB     136      POPE     C37      CTL2    -0.180000       12.0110           0
     15456 MEMB     136      POPE     H7X      HAL2     0.900000E-01   1.00800           0
     15457 MEMB     136      POPE     H7Y      HAL2     0.900000E-01   1.00800           0
     15458 MEMB     136      POPE     C38      CTL2    -0.180000       12.0110           0
     15459 MEMB     136      POPE     H8X      HAL2     0.900000E-01   1.00800           0
     15460 MEMB     136      POPE     H8Y      HAL2     0.900000E-01   1.00800           0
     15461 MEMB     136      POPE     C39      CTL2    -0.180000       12.0110           0
     15462 MEMB     136      POPE     H9X      HAL2     0.900000E-01   1.00800           0
     15463 MEMB     136      POPE     H9Y      HAL2     0.900000E-01   1.00800           0
     15464 MEMB     136      POPE     C310     CTL2    -0.180000       12.0110           0
     15465 MEMB     136      POPE     H10X     HAL2     0.900000E-01   1.00800           0
     15466 MEMB     136      POPE     H10Y     HAL2     0.900000E-01   1.00800           0
     15467 MEMB     136      POPE     C311     CTL2    -0.180000       12.0110           0
     15468 MEMB     136      POPE     H11X     HAL2     0.900000E-01   1.00800           0
     15469 MEMB     136      POPE     H11Y     HAL2     0.900000E-01   1.00800           0
     15470 MEMB     136      POPE     C312     CTL2    -0.180000       12.0110           0
     15471 MEMB     136      POPE     H12X     HAL2     0.900000E-01   1.00800           0
     15472 MEMB     136      POPE     H12Y     HAL2     0.900000E-01   1.00800           0
     15473 MEMB     136      POPE     C313     CTL2    -0.180000       12.0110           0
     15474 MEMB     136      POPE     H13X     HAL2     0.900000E-01   1.00800           0
     15475 MEMB     136      POPE     H13Y     HAL2     0.900000E-01   1.00800           0
     15476 MEMB     136      POPE     C314     CTL2    -0.180000       12.0110           0
     15477 MEMB     136      POPE     H14X     HAL2     0.900000E-01   1.00800           0
     15478 MEMB     136      POPE     H14Y     HAL2     0.900000E-01   1.00800           0
     15479 MEMB     136      POPE     C315     CTL2    -0.180000       12.0110           0
     15480 MEMB     136      POPE     H15X     HAL2     0.900000E-01   1.00800           0
     15481 MEMB     136      POPE     H15Y     HAL2     0.900000E-01   1.00800           0
     15482 MEMB     136      POPE     C316     CTL3    -0.270000       12.0110           0
     15483 MEMB     136      POPE     H16X     HAL3     0.900000E-01   1.00800           0
     15484 MEMB     136      POPE     H16Y     HAL3     0.900000E-01   1.00800           0
     15485 MEMB     136      POPE     H16Z     HAL3     0.900000E-01   1.00800           0
     15486 MEMB     137      POPC     N        NTL     -0.600000       14.0070           0
     15487 MEMB     137      POPC     C12      CTL2    -0.100000       12.0110           0
     15488 MEMB     137      POPC     H12A     HL       0.250000       1.00800           0
     15489 MEMB     137      POPC     H12B     HL       0.250000       1.00800           0
     15490 MEMB     137      POPC     C13      CTL5    -0.350000       12.0110           0
     15491 MEMB     137      POPC     H13A     HL       0.250000       1.00800           0
     15492 MEMB     137      POPC     H13B     HL       0.250000       1.00800           0
     15493 MEMB     137      POPC     H13C     HL       0.250000       1.00800           0
     15494 MEMB     137      POPC     C14      CTL5    -0.350000       12.0110           0
     15495 MEMB     137      POPC     H14A     HL       0.250000       1.00800           0
     15496 MEMB     137      POPC     H14B     HL       0.250000       1.00800           0
     15497 MEMB     137      POPC     H14C     HL       0.250000       1.00800           0
     15498 MEMB     137      POPC     C15      CTL5    -0.350000       12.0110           0
     15499 MEMB     137      POPC     H15A     HL       0.250000       1.00800           0
     15500 MEMB     137      POPC     H15B     HL       0.250000       1.00800           0
     15501 MEMB     137      POPC     H15C     HL       0.250000       1.00800           0
     15502 MEMB     137      POPC     C11      CTL2    -0.800000E-01   12.0110           0
     15503 MEMB     137      POPC     H11A     HAL2     0.900000E-01   1.00800           0
     15504 MEMB     137      POPC     H11B     HAL2     0.900000E-01   1.00800           0
     15505 MEMB     137      POPC     P        PL        1.50000       30.9740           0
     15506 MEMB     137      POPC     O13      O2L     -0.780000       15.9994           0
     15507 MEMB     137      POPC     O14      O2L     -0.780000       15.9994           0
     15508 MEMB     137      POPC     O12      OSLP    -0.570000       15.9994           0
     15509 MEMB     137      POPC     O11      OSLP    -0.570000       15.9994           0
     15510 MEMB     137      POPC     C1       CTL2    -0.800000E-01   12.0110           0
     15511 MEMB     137      POPC     HA       HAL2     0.900000E-01   1.00800           0
     15512 MEMB     137      POPC     HB       HAL2     0.900000E-01   1.00800           0
     15513 MEMB     137      POPC     C2       CTL1     0.170000       12.0110           0
     15514 MEMB     137      POPC     HS       HAL1     0.900000E-01   1.00800           0
     15515 MEMB     137      POPC     O21      OSL     -0.490000       15.9994           0
     15516 MEMB     137      POPC     C21      CL       0.900000       12.0110           0
     15517 MEMB     137      POPC     O22      OBL     -0.630000       15.9994           0
     15518 MEMB     137      POPC     C22      CTL2    -0.220000       12.0110           0
     15519 MEMB     137      POPC     H2R      HAL2     0.900000E-01   1.00800           0
     15520 MEMB     137      POPC     H2S      HAL2     0.900000E-01   1.00800           0
     15521 MEMB     137      POPC     C3       CTL2     0.800000E-01   12.0110           0
     15522 MEMB     137      POPC     HX       HAL2     0.900000E-01   1.00800           0
     15523 MEMB     137      POPC     HY       HAL2     0.900000E-01   1.00800           0
     15524 MEMB     137      POPC     O31      OSL     -0.490000       15.9994           0
     15525 MEMB     137      POPC     C31      CL       0.900000       12.0110           0
     15526 MEMB     137      POPC     O32      OBL     -0.630000       15.9994           0
     15527 MEMB     137      POPC     C32      CTL2    -0.220000       12.0110           0
     15528 MEMB     137      POPC     H2X      HAL2     0.900000E-01   1.00800           0
     15529 MEMB     137      POPC     H2Y      HAL2     0.900000E-01   1.00800           0
     15530 MEMB     137      POPC     C23      CTL2    -0.180000       12.0110           0
     15531 MEMB     137      POPC     H3R      HAL2     0.900000E-01   1.00800           0
     15532 MEMB     137      POPC     H3S      HAL2     0.900000E-01   1.00800           0
     15533 MEMB     137      POPC     C24      CTL2    -0.180000       12.0110           0
     15534 MEMB     137      POPC     H4R      HAL2     0.900000E-01   1.00800           0
     15535 MEMB     137      POPC     H4S      HAL2     0.900000E-01   1.00800           0
     15536 MEMB     137      POPC     C25      CTL2    -0.180000       12.0110           0
     15537 MEMB     137      POPC     H5R      HAL2     0.900000E-01   1.00800           0
     15538 MEMB     137      POPC     H5S      HAL2     0.900000E-01   1.00800           0
     15539 MEMB     137      POPC     C26      CTL2    -0.180000       12.0110           0
     15540 MEMB     137      POPC     H6R      HAL2     0.900000E-01   1.00800           0
     15541 MEMB     137      POPC     H6S      HAL2     0.900000E-01   1.00800           0
     15542 MEMB     137      POPC     C27      CTL2    -0.180000       12.0110           0
     15543 MEMB     137      POPC     H7R      HAL2     0.900000E-01   1.00800           0
     15544 MEMB     137      POPC     H7S      HAL2     0.900000E-01   1.00800           0
     15545 MEMB     137      POPC     C28      CTL2    -0.180000       12.0110           0
     15546 MEMB     137      POPC     H8R      HAL2     0.900000E-01   1.00800           0
     15547 MEMB     137      POPC     H8S      HAL2     0.900000E-01   1.00800           0
     15548 MEMB     137      POPC     C29      CEL1    -0.150000       12.0110           0
     15549 MEMB     137      POPC     H91      HEL1     0.150000       1.00800           0
     15550 MEMB     137      POPC     C210     CEL1    -0.150000       12.0110           0
     15551 MEMB     137      POPC     H101     HEL1     0.150000       1.00800           0
     15552 MEMB     137      POPC     C211     CTL2    -0.180000       12.0110           0
     15553 MEMB     137      POPC     H11R     HAL2     0.900000E-01   1.00800           0
     15554 MEMB     137      POPC     H11S     HAL2     0.900000E-01   1.00800           0
     15555 MEMB     137      POPC     C212     CTL2    -0.180000       12.0110           0
     15556 MEMB     137      POPC     H12R     HAL2     0.900000E-01   1.00800           0
     15557 MEMB     137      POPC     H12S     HAL2     0.900000E-01   1.00800           0
     15558 MEMB     137      POPC     C213     CTL2    -0.180000       12.0110           0
     15559 MEMB     137      POPC     H13R     HAL2     0.900000E-01   1.00800           0
     15560 MEMB     137      POPC     H13S     HAL2     0.900000E-01   1.00800           0
     15561 MEMB     137      POPC     C214     CTL2    -0.180000       12.0110           0
     15562 MEMB     137      POPC     H14R     HAL2     0.900000E-01   1.00800           0
     15563 MEMB     137      POPC     H14S     HAL2     0.900000E-01   1.00800           0
     15564 MEMB     137      POPC     C215     CTL2    -0.180000       12.0110           0
     15565 MEMB     137      POPC     H15R     HAL2     0.900000E-01   1.00800           0
     15566 MEMB     137      POPC     H15S     HAL2     0.900000E-01   1.00800           0
     15567 MEMB     137      POPC     C216     CTL2    -0.180000       12.0110           0
     15568 MEMB     137      POPC     H16R     HAL2     0.900000E-01   1.00800           0
     15569 MEMB     137      POPC     H16S     HAL2     0.900000E-01   1.00800           0
     15570 MEMB     137      POPC     C217     CTL2    -0.180000       12.0110           0
     15571 MEMB     137      POPC     H17R     HAL2     0.900000E-01   1.00800           0
     15572 MEMB     137      POPC     H17S     HAL2     0.900000E-01   1.00800           0
     15573 MEMB     137      POPC     C218     CTL3    -0.270000       12.0110           0
     15574 MEMB     137      POPC     H18R     HAL3     0.900000E-01   1.00800           0
     15575 MEMB     137      POPC     H18S     HAL3     0.900000E-01   1.00800           0
     15576 MEMB     137      POPC     H18T     HAL3     0.900000E-01   1.00800           0
     15577 MEMB     137      POPC     C33      CTL2    -0.180000       12.0110           0
     15578 MEMB     137      POPC     H3X      HAL2     0.900000E-01   1.00800           0
     15579 MEMB     137      POPC     H3Y      HAL2     0.900000E-01   1.00800           0
     15580 MEMB     137      POPC     C34      CTL2    -0.180000       12.0110           0
     15581 MEMB     137      POPC     H4X      HAL2     0.900000E-01   1.00800           0
     15582 MEMB     137      POPC     H4Y      HAL2     0.900000E-01   1.00800           0
     15583 MEMB     137      POPC     C35      CTL2    -0.180000       12.0110           0
     15584 MEMB     137      POPC     H5X      HAL2     0.900000E-01   1.00800           0
     15585 MEMB     137      POPC     H5Y      HAL2     0.900000E-01   1.00800           0
     15586 MEMB     137      POPC     C36      CTL2    -0.180000       12.0110           0
     15587 MEMB     137      POPC     H6X      HAL2     0.900000E-01   1.00800           0
     15588 MEMB     137      POPC     H6Y      HAL2     0.900000E-01   1.00800           0
     15589 MEMB     137      POPC     C37      CTL2    -0.180000       12.0110           0
     15590 MEMB     137      POPC     H7X      HAL2     0.900000E-01   1.00800           0
     15591 MEMB     137      POPC     H7Y      HAL2     0.900000E-01   1.00800           0
     15592 MEMB     137      POPC     C38      CTL2    -0.180000       12.0110           0
     15593 MEMB     137      POPC     H8X      HAL2     0.900000E-01   1.00800           0
     15594 MEMB     137      POPC     H8Y      HAL2     0.900000E-01   1.00800           0
     15595 MEMB     137      POPC     C39      CTL2    -0.180000       12.0110           0
     15596 MEMB     137      POPC     H9X      HAL2     0.900000E-01   1.00800           0
     15597 MEMB     137      POPC     H9Y      HAL2     0.900000E-01   1.00800           0
     15598 MEMB     137      POPC     C310     CTL2    -0.180000       12.0110           0
     15599 MEMB     137      POPC     H10X     HAL2     0.900000E-01   1.00800           0
     15600 MEMB     137      POPC     H10Y     HAL2     0.900000E-01   1.00800           0
     15601 MEMB     137      POPC     C311     CTL2    -0.180000       12.0110           0
     15602 MEMB     137      POPC     H11X     HAL2     0.900000E-01   1.00800           0
     15603 MEMB     137      POPC     H11Y     HAL2     0.900000E-01   1.00800           0
     15604 MEMB     137      POPC     C312     CTL2    -0.180000       12.0110           0
     15605 MEMB     137      POPC     H12X     HAL2     0.900000E-01   1.00800           0
     15606 MEMB     137      POPC     H12Y     HAL2     0.900000E-01   1.00800           0
     15607 MEMB     137      POPC     C313     CTL2    -0.180000       12.0110           0
     15608 MEMB     137      POPC     H13X     HAL2     0.900000E-01   1.00800           0
     15609 MEMB     137      POPC     H13Y     HAL2     0.900000E-01   1.00800           0
     15610 MEMB     137      POPC     C314     CTL2    -0.180000       12.0110           0
     15611 MEMB     137      POPC     H14X     HAL2     0.900000E-01   1.00800           0
     15612 MEMB     137      POPC     H14Y     HAL2     0.900000E-01   1.00800           0
     15613 MEMB     137      POPC     C315     CTL2    -0.180000       12.0110           0
     15614 MEMB     137      POPC     H15X     HAL2     0.900000E-01   1.00800           0
     15615 MEMB     137      POPC     H15Y     HAL2     0.900000E-01   1.00800           0
     15616 MEMB     137      POPC     C316     CTL3    -0.270000       12.0110           0
     15617 MEMB     137      POPC     H16X     HAL3     0.900000E-01   1.00800           0
     15618 MEMB     137      POPC     H16Y     HAL3     0.900000E-01   1.00800           0
     15619 MEMB     137      POPC     H16Z     HAL3     0.900000E-01   1.00800           0
     15620 MEMB     138      POPE     N        NH3L    -0.300000       14.0070           0
     15621 MEMB     138      POPE     HN1      HCL      0.330000       1.00800           0
     15622 MEMB     138      POPE     HN2      HCL      0.330000       1.00800           0
     15623 MEMB     138      POPE     HN3      HCL      0.330000       1.00800           0
     15624 MEMB     138      POPE     C12      CTL2     0.130000       12.0110           0
     15625 MEMB     138      POPE     H12A     HAL2     0.900000E-01   1.00800           0
     15626 MEMB     138      POPE     H12B     HAL2     0.900000E-01   1.00800           0
     15627 MEMB     138      POPE     C11      CTL2    -0.800000E-01   12.0110           0
     15628 MEMB     138      POPE     H11A     HAL2     0.900000E-01   1.00800           0
     15629 MEMB     138      POPE     H11B     HAL2     0.900000E-01   1.00800           0
     15630 MEMB     138      POPE     P        PL        1.50000       30.9740           0
     15631 MEMB     138      POPE     O13      O2L     -0.780000       15.9994           0
     15632 MEMB     138      POPE     O14      O2L     -0.780000       15.9994           0
     15633 MEMB     138      POPE     O11      OSLP    -0.570000       15.9994           0
     15634 MEMB     138      POPE     O12      OSLP    -0.570000       15.9994           0
     15635 MEMB     138      POPE     C1       CTL2    -0.800000E-01   12.0110           0
     15636 MEMB     138      POPE     HA       HAL2     0.900000E-01   1.00800           0
     15637 MEMB     138      POPE     HB       HAL2     0.900000E-01   1.00800           0
     15638 MEMB     138      POPE     C2       CTL1     0.170000       12.0110           0
     15639 MEMB     138      POPE     HS       HAL1     0.900000E-01   1.00800           0
     15640 MEMB     138      POPE     O21      OSL     -0.490000       15.9994           0
     15641 MEMB     138      POPE     C21      CL       0.900000       12.0110           0
     15642 MEMB     138      POPE     O22      OBL     -0.630000       15.9994           0
     15643 MEMB     138      POPE     C22      CTL2    -0.220000       12.0110           0
     15644 MEMB     138      POPE     H2R      HAL2     0.900000E-01   1.00800           0
     15645 MEMB     138      POPE     H2S      HAL2     0.900000E-01   1.00800           0
     15646 MEMB     138      POPE     C3       CTL2     0.800000E-01   12.0110           0
     15647 MEMB     138      POPE     HX       HAL2     0.900000E-01   1.00800           0
     15648 MEMB     138      POPE     HY       HAL2     0.900000E-01   1.00800           0
     15649 MEMB     138      POPE     O31      OSL     -0.490000       15.9994           0
     15650 MEMB     138      POPE     C31      CL       0.900000       12.0110           0
     15651 MEMB     138      POPE     O32      OBL     -0.630000       15.9994           0
     15652 MEMB     138      POPE     C32      CTL2    -0.220000       12.0110           0
     15653 MEMB     138      POPE     H2X      HAL2     0.900000E-01   1.00800           0
     15654 MEMB     138      POPE     H2Y      HAL2     0.900000E-01   1.00800           0
     15655 MEMB     138      POPE     C23      CTL2    -0.180000       12.0110           0
     15656 MEMB     138      POPE     H3R      HAL2     0.900000E-01   1.00800           0
     15657 MEMB     138      POPE     H3S      HAL2     0.900000E-01   1.00800           0
     15658 MEMB     138      POPE     C24      CTL2    -0.180000       12.0110           0
     15659 MEMB     138      POPE     H4R      HAL2     0.900000E-01   1.00800           0
     15660 MEMB     138      POPE     H4S      HAL2     0.900000E-01   1.00800           0
     15661 MEMB     138      POPE     C25      CTL2    -0.180000       12.0110           0
     15662 MEMB     138      POPE     H5R      HAL2     0.900000E-01   1.00800           0
     15663 MEMB     138      POPE     H5S      HAL2     0.900000E-01   1.00800           0
     15664 MEMB     138      POPE     C26      CTL2    -0.180000       12.0110           0
     15665 MEMB     138      POPE     H6R      HAL2     0.900000E-01   1.00800           0
     15666 MEMB     138      POPE     H6S      HAL2     0.900000E-01   1.00800           0
     15667 MEMB     138      POPE     C27      CTL2    -0.180000       12.0110           0
     15668 MEMB     138      POPE     H7R      HAL2     0.900000E-01   1.00800           0
     15669 MEMB     138      POPE     H7S      HAL2     0.900000E-01   1.00800           0
     15670 MEMB     138      POPE     C28      CTL2    -0.180000       12.0110           0
     15671 MEMB     138      POPE     H8R      HAL2     0.900000E-01   1.00800           0
     15672 MEMB     138      POPE     H8S      HAL2     0.900000E-01   1.00800           0
     15673 MEMB     138      POPE     C29      CEL1    -0.150000       12.0110           0
     15674 MEMB     138      POPE     H91      HEL1     0.150000       1.00800           0
     15675 MEMB     138      POPE     C210     CEL1    -0.150000       12.0110           0
     15676 MEMB     138      POPE     H101     HEL1     0.150000       1.00800           0
     15677 MEMB     138      POPE     C211     CTL2    -0.180000       12.0110           0
     15678 MEMB     138      POPE     H11R     HAL2     0.900000E-01   1.00800           0
     15679 MEMB     138      POPE     H11S     HAL2     0.900000E-01   1.00800           0
     15680 MEMB     138      POPE     C212     CTL2    -0.180000       12.0110           0
     15681 MEMB     138      POPE     H12R     HAL2     0.900000E-01   1.00800           0
     15682 MEMB     138      POPE     H12S     HAL2     0.900000E-01   1.00800           0
     15683 MEMB     138      POPE     C213     CTL2    -0.180000       12.0110           0
     15684 MEMB     138      POPE     H13R     HAL2     0.900000E-01   1.00800           0
     15685 MEMB     138      POPE     H13S     HAL2     0.900000E-01   1.00800           0
     15686 MEMB     138      POPE     C214     CTL2    -0.180000       12.0110           0
     15687 MEMB     138      POPE     H14R     HAL2     0.900000E-01   1.00800           0
     15688 MEMB     138      POPE     H14S     HAL2     0.900000E-01   1.00800           0
     15689 MEMB     138      POPE     C215     CTL2    -0.180000       12.0110           0
     15690 MEMB     138      POPE     H15R     HAL2     0.900000E-01   1.00800           0
     15691 MEMB     138      POPE     H15S     HAL2     0.900000E-01   1.00800           0
     15692 MEMB     138      POPE     C216     CTL2    -0.180000       12.0110           0
     15693 MEMB     138      POPE     H16R     HAL2     0.900000E-01   1.00800           0
     15694 MEMB     138      POPE     H16S     HAL2     0.900000E-01   1.00800           0
     15695 MEMB     138      POPE     C217     CTL2    -0.180000       12.0110           0
     15696 MEMB     138      POPE     H17R     HAL2     0.900000E-01   1.00800           0
     15697 MEMB     138      POPE     H17S     HAL2     0.900000E-01   1.00800           0
     15698 MEMB     138      POPE     C218     CTL3    -0.270000       12.0110           0
     15699 MEMB     138      POPE     H18R     HAL3     0.900000E-01   1.00800           0
     15700 MEMB     138      POPE     H18S     HAL3     0.900000E-01   1.00800           0
     15701 MEMB     138      POPE     H18T     HAL3     0.900000E-01   1.00800           0
     15702 MEMB     138      POPE     C33      CTL2    -0.180000       12.0110           0
     15703 MEMB     138      POPE     H3X      HAL2     0.900000E-01   1.00800           0
     15704 MEMB     138      POPE     H3Y      HAL2     0.900000E-01   1.00800           0
     15705 MEMB     138      POPE     C34      CTL2    -0.180000       12.0110           0
     15706 MEMB     138      POPE     H4X      HAL2     0.900000E-01   1.00800           0
     15707 MEMB     138      POPE     H4Y      HAL2     0.900000E-01   1.00800           0
     15708 MEMB     138      POPE     C35      CTL2    -0.180000       12.0110           0
     15709 MEMB     138      POPE     H5X      HAL2     0.900000E-01   1.00800           0
     15710 MEMB     138      POPE     H5Y      HAL2     0.900000E-01   1.00800           0
     15711 MEMB     138      POPE     C36      CTL2    -0.180000       12.0110           0
     15712 MEMB     138      POPE     H6X      HAL2     0.900000E-01   1.00800           0
     15713 MEMB     138      POPE     H6Y      HAL2     0.900000E-01   1.00800           0
     15714 MEMB     138      POPE     C37      CTL2    -0.180000       12.0110           0
     15715 MEMB     138      POPE     H7X      HAL2     0.900000E-01   1.00800           0
     15716 MEMB     138      POPE     H7Y      HAL2     0.900000E-01   1.00800           0
     15717 MEMB     138      POPE     C38      CTL2    -0.180000       12.0110           0
     15718 MEMB     138      POPE     H8X      HAL2     0.900000E-01   1.00800           0
     15719 MEMB     138      POPE     H8Y      HAL2     0.900000E-01   1.00800           0
     15720 MEMB     138      POPE     C39      CTL2    -0.180000       12.0110           0
     15721 MEMB     138      POPE     H9X      HAL2     0.900000E-01   1.00800           0
     15722 MEMB     138      POPE     H9Y      HAL2     0.900000E-01   1.00800           0
     15723 MEMB     138      POPE     C310     CTL2    -0.180000       12.0110           0
     15724 MEMB     138      POPE     H10X     HAL2     0.900000E-01   1.00800           0
     15725 MEMB     138      POPE     H10Y     HAL2     0.900000E-01   1.00800           0
     15726 MEMB     138      POPE     C311     CTL2    -0.180000       12.0110           0
     15727 MEMB     138      POPE     H11X     HAL2     0.900000E-01   1.00800           0
     15728 MEMB     138      POPE     H11Y     HAL2     0.900000E-01   1.00800           0
     15729 MEMB     138      POPE     C312     CTL2    -0.180000       12.0110           0
     15730 MEMB     138      POPE     H12X     HAL2     0.900000E-01   1.00800           0
     15731 MEMB     138      POPE     H12Y     HAL2     0.900000E-01   1.00800           0
     15732 MEMB     138      POPE     C313     CTL2    -0.180000       12.0110           0
     15733 MEMB     138      POPE     H13X     HAL2     0.900000E-01   1.00800           0
     15734 MEMB     138      POPE     H13Y     HAL2     0.900000E-01   1.00800           0
     15735 MEMB     138      POPE     C314     CTL2    -0.180000       12.0110           0
     15736 MEMB     138      POPE     H14X     HAL2     0.900000E-01   1.00800           0
     15737 MEMB     138      POPE     H14Y     HAL2     0.900000E-01   1.00800           0
     15738 MEMB     138      POPE     C315     CTL2    -0.180000       12.0110           0
     15739 MEMB     138      POPE     H15X     HAL2     0.900000E-01   1.00800           0
     15740 MEMB     138      POPE     H15Y     HAL2     0.900000E-01   1.00800           0
     15741 MEMB     138      POPE     C316     CTL3    -0.270000       12.0110           0
     15742 MEMB     138      POPE     H16X     HAL3     0.900000E-01   1.00800           0
     15743 MEMB     138      POPE     H16Y     HAL3     0.900000E-01   1.00800           0
     15744 MEMB     138      POPE     H16Z     HAL3     0.900000E-01   1.00800           0
     15745 MEMB     139      POPE     N        NH3L    -0.300000       14.0070           0
     15746 MEMB     139      POPE     HN1      HCL      0.330000       1.00800           0
     15747 MEMB     139      POPE     HN2      HCL      0.330000       1.00800           0
     15748 MEMB     139      POPE     HN3      HCL      0.330000       1.00800           0
     15749 MEMB     139      POPE     C12      CTL2     0.130000       12.0110           0
     15750 MEMB     139      POPE     H12A     HAL2     0.900000E-01   1.00800           0
     15751 MEMB     139      POPE     H12B     HAL2     0.900000E-01   1.00800           0
     15752 MEMB     139      POPE     C11      CTL2    -0.800000E-01   12.0110           0
     15753 MEMB     139      POPE     H11A     HAL2     0.900000E-01   1.00800           0
     15754 MEMB     139      POPE     H11B     HAL2     0.900000E-01   1.00800           0
     15755 MEMB     139      POPE     P        PL        1.50000       30.9740           0
     15756 MEMB     139      POPE     O13      O2L     -0.780000       15.9994           0
     15757 MEMB     139      POPE     O14      O2L     -0.780000       15.9994           0
     15758 MEMB     139      POPE     O11      OSLP    -0.570000       15.9994           0
     15759 MEMB     139      POPE     O12      OSLP    -0.570000       15.9994           0
     15760 MEMB     139      POPE     C1       CTL2    -0.800000E-01   12.0110           0
     15761 MEMB     139      POPE     HA       HAL2     0.900000E-01   1.00800           0
     15762 MEMB     139      POPE     HB       HAL2     0.900000E-01   1.00800           0
     15763 MEMB     139      POPE     C2       CTL1     0.170000       12.0110           0
     15764 MEMB     139      POPE     HS       HAL1     0.900000E-01   1.00800           0
     15765 MEMB     139      POPE     O21      OSL     -0.490000       15.9994           0
     15766 MEMB     139      POPE     C21      CL       0.900000       12.0110           0
     15767 MEMB     139      POPE     O22      OBL     -0.630000       15.9994           0
     15768 MEMB     139      POPE     C22      CTL2    -0.220000       12.0110           0
     15769 MEMB     139      POPE     H2R      HAL2     0.900000E-01   1.00800           0
     15770 MEMB     139      POPE     H2S      HAL2     0.900000E-01   1.00800           0
     15771 MEMB     139      POPE     C3       CTL2     0.800000E-01   12.0110           0
     15772 MEMB     139      POPE     HX       HAL2     0.900000E-01   1.00800           0
     15773 MEMB     139      POPE     HY       HAL2     0.900000E-01   1.00800           0
     15774 MEMB     139      POPE     O31      OSL     -0.490000       15.9994           0
     15775 MEMB     139      POPE     C31      CL       0.900000       12.0110           0
     15776 MEMB     139      POPE     O32      OBL     -0.630000       15.9994           0
     15777 MEMB     139      POPE     C32      CTL2    -0.220000       12.0110           0
     15778 MEMB     139      POPE     H2X      HAL2     0.900000E-01   1.00800           0
     15779 MEMB     139      POPE     H2Y      HAL2     0.900000E-01   1.00800           0
     15780 MEMB     139      POPE     C23      CTL2    -0.180000       12.0110           0
     15781 MEMB     139      POPE     H3R      HAL2     0.900000E-01   1.00800           0
     15782 MEMB     139      POPE     H3S      HAL2     0.900000E-01   1.00800           0
     15783 MEMB     139      POPE     C24      CTL2    -0.180000       12.0110           0
     15784 MEMB     139      POPE     H4R      HAL2     0.900000E-01   1.00800           0
     15785 MEMB     139      POPE     H4S      HAL2     0.900000E-01   1.00800           0
     15786 MEMB     139      POPE     C25      CTL2    -0.180000       12.0110           0
     15787 MEMB     139      POPE     H5R      HAL2     0.900000E-01   1.00800           0
     15788 MEMB     139      POPE     H5S      HAL2     0.900000E-01   1.00800           0
     15789 MEMB     139      POPE     C26      CTL2    -0.180000       12.0110           0
     15790 MEMB     139      POPE     H6R      HAL2     0.900000E-01   1.00800           0
     15791 MEMB     139      POPE     H6S      HAL2     0.900000E-01   1.00800           0
     15792 MEMB     139      POPE     C27      CTL2    -0.180000       12.0110           0
     15793 MEMB     139      POPE     H7R      HAL2     0.900000E-01   1.00800           0
     15794 MEMB     139      POPE     H7S      HAL2     0.900000E-01   1.00800           0
     15795 MEMB     139      POPE     C28      CTL2    -0.180000       12.0110           0
     15796 MEMB     139      POPE     H8R      HAL2     0.900000E-01   1.00800           0
     15797 MEMB     139      POPE     H8S      HAL2     0.900000E-01   1.00800           0
     15798 MEMB     139      POPE     C29      CEL1    -0.150000       12.0110           0
     15799 MEMB     139      POPE     H91      HEL1     0.150000       1.00800           0
     15800 MEMB     139      POPE     C210     CEL1    -0.150000       12.0110           0
     15801 MEMB     139      POPE     H101     HEL1     0.150000       1.00800           0
     15802 MEMB     139      POPE     C211     CTL2    -0.180000       12.0110           0
     15803 MEMB     139      POPE     H11R     HAL2     0.900000E-01   1.00800           0
     15804 MEMB     139      POPE     H11S     HAL2     0.900000E-01   1.00800           0
     15805 MEMB     139      POPE     C212     CTL2    -0.180000       12.0110           0
     15806 MEMB     139      POPE     H12R     HAL2     0.900000E-01   1.00800           0
     15807 MEMB     139      POPE     H12S     HAL2     0.900000E-01   1.00800           0
     15808 MEMB     139      POPE     C213     CTL2    -0.180000       12.0110           0
     15809 MEMB     139      POPE     H13R     HAL2     0.900000E-01   1.00800           0
     15810 MEMB     139      POPE     H13S     HAL2     0.900000E-01   1.00800           0
     15811 MEMB     139      POPE     C214     CTL2    -0.180000       12.0110           0
     15812 MEMB     139      POPE     H14R     HAL2     0.900000E-01   1.00800           0
     15813 MEMB     139      POPE     H14S     HAL2     0.900000E-01   1.00800           0
     15814 MEMB     139      POPE     C215     CTL2    -0.180000       12.0110           0
     15815 MEMB     139      POPE     H15R     HAL2     0.900000E-01   1.00800           0
     15816 MEMB     139      POPE     H15S     HAL2     0.900000E-01   1.00800           0
     15817 MEMB     139      POPE     C216     CTL2    -0.180000       12.0110           0
     15818 MEMB     139      POPE     H16R     HAL2     0.900000E-01   1.00800           0
     15819 MEMB     139      POPE     H16S     HAL2     0.900000E-01   1.00800           0
     15820 MEMB     139      POPE     C217     CTL2    -0.180000       12.0110           0
     15821 MEMB     139      POPE     H17R     HAL2     0.900000E-01   1.00800           0
     15822 MEMB     139      POPE     H17S     HAL2     0.900000E-01   1.00800           0
     15823 MEMB     139      POPE     C218     CTL3    -0.270000       12.0110           0
     15824 MEMB     139      POPE     H18R     HAL3     0.900000E-01   1.00800           0
     15825 MEMB     139      POPE     H18S     HAL3     0.900000E-01   1.00800           0
     15826 MEMB     139      POPE     H18T     HAL3     0.900000E-01   1.00800           0
     15827 MEMB     139      POPE     C33      CTL2    -0.180000       12.0110           0
     15828 MEMB     139      POPE     H3X      HAL2     0.900000E-01   1.00800           0
     15829 MEMB     139      POPE     H3Y      HAL2     0.900000E-01   1.00800           0
     15830 MEMB     139      POPE     C34      CTL2    -0.180000       12.0110           0
     15831 MEMB     139      POPE     H4X      HAL2     0.900000E-01   1.00800           0
     15832 MEMB     139      POPE     H4Y      HAL2     0.900000E-01   1.00800           0
     15833 MEMB     139      POPE     C35      CTL2    -0.180000       12.0110           0
     15834 MEMB     139      POPE     H5X      HAL2     0.900000E-01   1.00800           0
     15835 MEMB     139      POPE     H5Y      HAL2     0.900000E-01   1.00800           0
     15836 MEMB     139      POPE     C36      CTL2    -0.180000       12.0110           0
     15837 MEMB     139      POPE     H6X      HAL2     0.900000E-01   1.00800           0
     15838 MEMB     139      POPE     H6Y      HAL2     0.900000E-01   1.00800           0
     15839 MEMB     139      POPE     C37      CTL2    -0.180000       12.0110           0
     15840 MEMB     139      POPE     H7X      HAL2     0.900000E-01   1.00800           0
     15841 MEMB     139      POPE     H7Y      HAL2     0.900000E-01   1.00800           0
     15842 MEMB     139      POPE     C38      CTL2    -0.180000       12.0110           0
     15843 MEMB     139      POPE     H8X      HAL2     0.900000E-01   1.00800           0
     15844 MEMB     139      POPE     H8Y      HAL2     0.900000E-01   1.00800           0
     15845 MEMB     139      POPE     C39      CTL2    -0.180000       12.0110           0
     15846 MEMB     139      POPE     H9X      HAL2     0.900000E-01   1.00800           0
     15847 MEMB     139      POPE     H9Y      HAL2     0.900000E-01   1.00800           0
     15848 MEMB     139      POPE     C310     CTL2    -0.180000       12.0110           0
     15849 MEMB     139      POPE     H10X     HAL2     0.900000E-01   1.00800           0
     15850 MEMB     139      POPE     H10Y     HAL2     0.900000E-01   1.00800           0
     15851 MEMB     139      POPE     C311     CTL2    -0.180000       12.0110           0
     15852 MEMB     139      POPE     H11X     HAL2     0.900000E-01   1.00800           0
     15853 MEMB     139      POPE     H11Y     HAL2     0.900000E-01   1.00800           0
     15854 MEMB     139      POPE     C312     CTL2    -0.180000       12.0110           0
     15855 MEMB     139      POPE     H12X     HAL2     0.900000E-01   1.00800           0
     15856 MEMB     139      POPE     H12Y     HAL2     0.900000E-01   1.00800           0
     15857 MEMB     139      POPE     C313     CTL2    -0.180000       12.0110           0
     15858 MEMB     139      POPE     H13X     HAL2     0.900000E-01   1.00800           0
     15859 MEMB     139      POPE     H13Y     HAL2     0.900000E-01   1.00800           0
     15860 MEMB     139      POPE     C314     CTL2    -0.180000       12.0110           0
     15861 MEMB     139      POPE     H14X     HAL2     0.900000E-01   1.00800           0
     15862 MEMB     139      POPE     H14Y     HAL2     0.900000E-01   1.00800           0
     15863 MEMB     139      POPE     C315     CTL2    -0.180000       12.0110           0
     15864 MEMB     139      POPE     H15X     HAL2     0.900000E-01   1.00800           0
     15865 MEMB     139      POPE     H15Y     HAL2     0.900000E-01   1.00800           0
     15866 MEMB     139      POPE     C316     CTL3    -0.270000       12.0110           0
     15867 MEMB     139      POPE     H16X     HAL3     0.900000E-01   1.00800           0
     15868 MEMB     139      POPE     H16Y     HAL3     0.900000E-01   1.00800           0
     15869 MEMB     139      POPE     H16Z     HAL3     0.900000E-01   1.00800           0
     15870 MEMB     140      POPE     N        NH3L    -0.300000       14.0070           0
     15871 MEMB     140      POPE     HN1      HCL      0.330000       1.00800           0
     15872 MEMB     140      POPE     HN2      HCL      0.330000       1.00800           0
     15873 MEMB     140      POPE     HN3      HCL      0.330000       1.00800           0
     15874 MEMB     140      POPE     C12      CTL2     0.130000       12.0110           0
     15875 MEMB     140      POPE     H12A     HAL2     0.900000E-01   1.00800           0
     15876 MEMB     140      POPE     H12B     HAL2     0.900000E-01   1.00800           0
     15877 MEMB     140      POPE     C11      CTL2    -0.800000E-01   12.0110           0
     15878 MEMB     140      POPE     H11A     HAL2     0.900000E-01   1.00800           0
     15879 MEMB     140      POPE     H11B     HAL2     0.900000E-01   1.00800           0
     15880 MEMB     140      POPE     P        PL        1.50000       30.9740           0
     15881 MEMB     140      POPE     O13      O2L     -0.780000       15.9994           0
     15882 MEMB     140      POPE     O14      O2L     -0.780000       15.9994           0
     15883 MEMB     140      POPE     O11      OSLP    -0.570000       15.9994           0
     15884 MEMB     140      POPE     O12      OSLP    -0.570000       15.9994           0
     15885 MEMB     140      POPE     C1       CTL2    -0.800000E-01   12.0110           0
     15886 MEMB     140      POPE     HA       HAL2     0.900000E-01   1.00800           0
     15887 MEMB     140      POPE     HB       HAL2     0.900000E-01   1.00800           0
     15888 MEMB     140      POPE     C2       CTL1     0.170000       12.0110           0
     15889 MEMB     140      POPE     HS       HAL1     0.900000E-01   1.00800           0
     15890 MEMB     140      POPE     O21      OSL     -0.490000       15.9994           0
     15891 MEMB     140      POPE     C21      CL       0.900000       12.0110           0
     15892 MEMB     140      POPE     O22      OBL     -0.630000       15.9994           0
     15893 MEMB     140      POPE     C22      CTL2    -0.220000       12.0110           0
     15894 MEMB     140      POPE     H2R      HAL2     0.900000E-01   1.00800           0
     15895 MEMB     140      POPE     H2S      HAL2     0.900000E-01   1.00800           0
     15896 MEMB     140      POPE     C3       CTL2     0.800000E-01   12.0110           0
     15897 MEMB     140      POPE     HX       HAL2     0.900000E-01   1.00800           0
     15898 MEMB     140      POPE     HY       HAL2     0.900000E-01   1.00800           0
     15899 MEMB     140      POPE     O31      OSL     -0.490000       15.9994           0
     15900 MEMB     140      POPE     C31      CL       0.900000       12.0110           0
     15901 MEMB     140      POPE     O32      OBL     -0.630000       15.9994           0
     15902 MEMB     140      POPE     C32      CTL2    -0.220000       12.0110           0
     15903 MEMB     140      POPE     H2X      HAL2     0.900000E-01   1.00800           0
     15904 MEMB     140      POPE     H2Y      HAL2     0.900000E-01   1.00800           0
     15905 MEMB     140      POPE     C23      CTL2    -0.180000       12.0110           0
     15906 MEMB     140      POPE     H3R      HAL2     0.900000E-01   1.00800           0
     15907 MEMB     140      POPE     H3S      HAL2     0.900000E-01   1.00800           0
     15908 MEMB     140      POPE     C24      CTL2    -0.180000       12.0110           0
     15909 MEMB     140      POPE     H4R      HAL2     0.900000E-01   1.00800           0
     15910 MEMB     140      POPE     H4S      HAL2     0.900000E-01   1.00800           0
     15911 MEMB     140      POPE     C25      CTL2    -0.180000       12.0110           0
     15912 MEMB     140      POPE     H5R      HAL2     0.900000E-01   1.00800           0
     15913 MEMB     140      POPE     H5S      HAL2     0.900000E-01   1.00800           0
     15914 MEMB     140      POPE     C26      CTL2    -0.180000       12.0110           0
     15915 MEMB     140      POPE     H6R      HAL2     0.900000E-01   1.00800           0
     15916 MEMB     140      POPE     H6S      HAL2     0.900000E-01   1.00800           0
     15917 MEMB     140      POPE     C27      CTL2    -0.180000       12.0110           0
     15918 MEMB     140      POPE     H7R      HAL2     0.900000E-01   1.00800           0
     15919 MEMB     140      POPE     H7S      HAL2     0.900000E-01   1.00800           0
     15920 MEMB     140      POPE     C28      CTL2    -0.180000       12.0110           0
     15921 MEMB     140      POPE     H8R      HAL2     0.900000E-01   1.00800           0
     15922 MEMB     140      POPE     H8S      HAL2     0.900000E-01   1.00800           0
     15923 MEMB     140      POPE     C29      CEL1    -0.150000       12.0110           0
     15924 MEMB     140      POPE     H91      HEL1     0.150000       1.00800           0
     15925 MEMB     140      POPE     C210     CEL1    -0.150000       12.0110           0
     15926 MEMB     140      POPE     H101     HEL1     0.150000       1.00800           0
     15927 MEMB     140      POPE     C211     CTL2    -0.180000       12.0110           0
     15928 MEMB     140      POPE     H11R     HAL2     0.900000E-01   1.00800           0
     15929 MEMB     140      POPE     H11S     HAL2     0.900000E-01   1.00800           0
     15930 MEMB     140      POPE     C212     CTL2    -0.180000       12.0110           0
     15931 MEMB     140      POPE     H12R     HAL2     0.900000E-01   1.00800           0
     15932 MEMB     140      POPE     H12S     HAL2     0.900000E-01   1.00800           0
     15933 MEMB     140      POPE     C213     CTL2    -0.180000       12.0110           0
     15934 MEMB     140      POPE     H13R     HAL2     0.900000E-01   1.00800           0
     15935 MEMB     140      POPE     H13S     HAL2     0.900000E-01   1.00800           0
     15936 MEMB     140      POPE     C214     CTL2    -0.180000       12.0110           0
     15937 MEMB     140      POPE     H14R     HAL2     0.900000E-01   1.00800           0
     15938 MEMB     140      POPE     H14S     HAL2     0.900000E-01   1.00800           0
     15939 MEMB     140      POPE     C215     CTL2    -0.180000       12.0110           0
     15940 MEMB     140      POPE     H15R     HAL2     0.900000E-01   1.00800           0
     15941 MEMB     140      POPE     H15S     HAL2     0.900000E-01   1.00800           0
     15942 MEMB     140      POPE     C216     CTL2    -0.180000       12.0110           0
     15943 MEMB     140      POPE     H16R     HAL2     0.900000E-01   1.00800           0
     15944 MEMB     140      POPE     H16S     HAL2     0.900000E-01   1.00800           0
     15945 MEMB     140      POPE     C217     CTL2    -0.180000       12.0110           0
     15946 MEMB     140      POPE     H17R     HAL2     0.900000E-01   1.00800           0
     15947 MEMB     140      POPE     H17S     HAL2     0.900000E-01   1.00800           0
     15948 MEMB     140      POPE     C218     CTL3    -0.270000       12.0110           0
     15949 MEMB     140      POPE     H18R     HAL3     0.900000E-01   1.00800           0
     15950 MEMB     140      POPE     H18S     HAL3     0.900000E-01   1.00800           0
     15951 MEMB     140      POPE     H18T     HAL3     0.900000E-01   1.00800           0
     15952 MEMB     140      POPE     C33      CTL2    -0.180000       12.0110           0
     15953 MEMB     140      POPE     H3X      HAL2     0.900000E-01   1.00800           0
     15954 MEMB     140      POPE     H3Y      HAL2     0.900000E-01   1.00800           0
     15955 MEMB     140      POPE     C34      CTL2    -0.180000       12.0110           0
     15956 MEMB     140      POPE     H4X      HAL2     0.900000E-01   1.00800           0
     15957 MEMB     140      POPE     H4Y      HAL2     0.900000E-01   1.00800           0
     15958 MEMB     140      POPE     C35      CTL2    -0.180000       12.0110           0
     15959 MEMB     140      POPE     H5X      HAL2     0.900000E-01   1.00800           0
     15960 MEMB     140      POPE     H5Y      HAL2     0.900000E-01   1.00800           0
     15961 MEMB     140      POPE     C36      CTL2    -0.180000       12.0110           0
     15962 MEMB     140      POPE     H6X      HAL2     0.900000E-01   1.00800           0
     15963 MEMB     140      POPE     H6Y      HAL2     0.900000E-01   1.00800           0
     15964 MEMB     140      POPE     C37      CTL2    -0.180000       12.0110           0
     15965 MEMB     140      POPE     H7X      HAL2     0.900000E-01   1.00800           0
     15966 MEMB     140      POPE     H7Y      HAL2     0.900000E-01   1.00800           0
     15967 MEMB     140      POPE     C38      CTL2    -0.180000       12.0110           0
     15968 MEMB     140      POPE     H8X      HAL2     0.900000E-01   1.00800           0
     15969 MEMB     140      POPE     H8Y      HAL2     0.900000E-01   1.00800           0
     15970 MEMB     140      POPE     C39      CTL2    -0.180000       12.0110           0
     15971 MEMB     140      POPE     H9X      HAL2     0.900000E-01   1.00800           0
     15972 MEMB     140      POPE     H9Y      HAL2     0.900000E-01   1.00800           0
     15973 MEMB     140      POPE     C310     CTL2    -0.180000       12.0110           0
     15974 MEMB     140      POPE     H10X     HAL2     0.900000E-01   1.00800           0
     15975 MEMB     140      POPE     H10Y     HAL2     0.900000E-01   1.00800           0
     15976 MEMB     140      POPE     C311     CTL2    -0.180000       12.0110           0
     15977 MEMB     140      POPE     H11X     HAL2     0.900000E-01   1.00800           0
     15978 MEMB     140      POPE     H11Y     HAL2     0.900000E-01   1.00800           0
     15979 MEMB     140      POPE     C312     CTL2    -0.180000       12.0110           0
     15980 MEMB     140      POPE     H12X     HAL2     0.900000E-01   1.00800           0
     15981 MEMB     140      POPE     H12Y     HAL2     0.900000E-01   1.00800           0
     15982 MEMB     140      POPE     C313     CTL2    -0.180000       12.0110           0
     15983 MEMB     140      POPE     H13X     HAL2     0.900000E-01   1.00800           0
     15984 MEMB     140      POPE     H13Y     HAL2     0.900000E-01   1.00800           0
     15985 MEMB     140      POPE     C314     CTL2    -0.180000       12.0110           0
     15986 MEMB     140      POPE     H14X     HAL2     0.900000E-01   1.00800           0
     15987 MEMB     140      POPE     H14Y     HAL2     0.900000E-01   1.00800           0
     15988 MEMB     140      POPE     C315     CTL2    -0.180000       12.0110           0
     15989 MEMB     140      POPE     H15X     HAL2     0.900000E-01   1.00800           0
     15990 MEMB     140      POPE     H15Y     HAL2     0.900000E-01   1.00800           0
     15991 MEMB     140      POPE     C316     CTL3    -0.270000       12.0110           0
     15992 MEMB     140      POPE     H16X     HAL3     0.900000E-01   1.00800           0
     15993 MEMB     140      POPE     H16Y     HAL3     0.900000E-01   1.00800           0
     15994 MEMB     140      POPE     H16Z     HAL3     0.900000E-01   1.00800           0
     15995 MEMB     141      POPE     N        NH3L    -0.300000       14.0070           0
     15996 MEMB     141      POPE     HN1      HCL      0.330000       1.00800           0
     15997 MEMB     141      POPE     HN2      HCL      0.330000       1.00800           0
     15998 MEMB     141      POPE     HN3      HCL      0.330000       1.00800           0
     15999 MEMB     141      POPE     C12      CTL2     0.130000       12.0110           0
     16000 MEMB     141      POPE     H12A     HAL2     0.900000E-01   1.00800           0
     16001 MEMB     141      POPE     H12B     HAL2     0.900000E-01   1.00800           0
     16002 MEMB     141      POPE     C11      CTL2    -0.800000E-01   12.0110           0
     16003 MEMB     141      POPE     H11A     HAL2     0.900000E-01   1.00800           0
     16004 MEMB     141      POPE     H11B     HAL2     0.900000E-01   1.00800           0
     16005 MEMB     141      POPE     P        PL        1.50000       30.9740           0
     16006 MEMB     141      POPE     O13      O2L     -0.780000       15.9994           0
     16007 MEMB     141      POPE     O14      O2L     -0.780000       15.9994           0
     16008 MEMB     141      POPE     O11      OSLP    -0.570000       15.9994           0
     16009 MEMB     141      POPE     O12      OSLP    -0.570000       15.9994           0
     16010 MEMB     141      POPE     C1       CTL2    -0.800000E-01   12.0110           0
     16011 MEMB     141      POPE     HA       HAL2     0.900000E-01   1.00800           0
     16012 MEMB     141      POPE     HB       HAL2     0.900000E-01   1.00800           0
     16013 MEMB     141      POPE     C2       CTL1     0.170000       12.0110           0
     16014 MEMB     141      POPE     HS       HAL1     0.900000E-01   1.00800           0
     16015 MEMB     141      POPE     O21      OSL     -0.490000       15.9994           0
     16016 MEMB     141      POPE     C21      CL       0.900000       12.0110           0
     16017 MEMB     141      POPE     O22      OBL     -0.630000       15.9994           0
     16018 MEMB     141      POPE     C22      CTL2    -0.220000       12.0110           0
     16019 MEMB     141      POPE     H2R      HAL2     0.900000E-01   1.00800           0
     16020 MEMB     141      POPE     H2S      HAL2     0.900000E-01   1.00800           0
     16021 MEMB     141      POPE     C3       CTL2     0.800000E-01   12.0110           0
     16022 MEMB     141      POPE     HX       HAL2     0.900000E-01   1.00800           0
     16023 MEMB     141      POPE     HY       HAL2     0.900000E-01   1.00800           0
     16024 MEMB     141      POPE     O31      OSL     -0.490000       15.9994           0
     16025 MEMB     141      POPE     C31      CL       0.900000       12.0110           0
     16026 MEMB     141      POPE     O32      OBL     -0.630000       15.9994           0
     16027 MEMB     141      POPE     C32      CTL2    -0.220000       12.0110           0
     16028 MEMB     141      POPE     H2X      HAL2     0.900000E-01   1.00800           0
     16029 MEMB     141      POPE     H2Y      HAL2     0.900000E-01   1.00800           0
     16030 MEMB     141      POPE     C23      CTL2    -0.180000       12.0110           0
     16031 MEMB     141      POPE     H3R      HAL2     0.900000E-01   1.00800           0
     16032 MEMB     141      POPE     H3S      HAL2     0.900000E-01   1.00800           0
     16033 MEMB     141      POPE     C24      CTL2    -0.180000       12.0110           0
     16034 MEMB     141      POPE     H4R      HAL2     0.900000E-01   1.00800           0
     16035 MEMB     141      POPE     H4S      HAL2     0.900000E-01   1.00800           0
     16036 MEMB     141      POPE     C25      CTL2    -0.180000       12.0110           0
     16037 MEMB     141      POPE     H5R      HAL2     0.900000E-01   1.00800           0
     16038 MEMB     141      POPE     H5S      HAL2     0.900000E-01   1.00800           0
     16039 MEMB     141      POPE     C26      CTL2    -0.180000       12.0110           0
     16040 MEMB     141      POPE     H6R      HAL2     0.900000E-01   1.00800           0
     16041 MEMB     141      POPE     H6S      HAL2     0.900000E-01   1.00800           0
     16042 MEMB     141      POPE     C27      CTL2    -0.180000       12.0110           0
     16043 MEMB     141      POPE     H7R      HAL2     0.900000E-01   1.00800           0
     16044 MEMB     141      POPE     H7S      HAL2     0.900000E-01   1.00800           0
     16045 MEMB     141      POPE     C28      CTL2    -0.180000       12.0110           0
     16046 MEMB     141      POPE     H8R      HAL2     0.900000E-01   1.00800           0
     16047 MEMB     141      POPE     H8S      HAL2     0.900000E-01   1.00800           0
     16048 MEMB     141      POPE     C29      CEL1    -0.150000       12.0110           0
     16049 MEMB     141      POPE     H91      HEL1     0.150000       1.00800           0
     16050 MEMB     141      POPE     C210     CEL1    -0.150000       12.0110           0
     16051 MEMB     141      POPE     H101     HEL1     0.150000       1.00800           0
     16052 MEMB     141      POPE     C211     CTL2    -0.180000       12.0110           0
     16053 MEMB     141      POPE     H11R     HAL2     0.900000E-01   1.00800           0
     16054 MEMB     141      POPE     H11S     HAL2     0.900000E-01   1.00800           0
     16055 MEMB     141      POPE     C212     CTL2    -0.180000       12.0110           0
     16056 MEMB     141      POPE     H12R     HAL2     0.900000E-01   1.00800           0
     16057 MEMB     141      POPE     H12S     HAL2     0.900000E-01   1.00800           0
     16058 MEMB     141      POPE     C213     CTL2    -0.180000       12.0110           0
     16059 MEMB     141      POPE     H13R     HAL2     0.900000E-01   1.00800           0
     16060 MEMB     141      POPE     H13S     HAL2     0.900000E-01   1.00800           0
     16061 MEMB     141      POPE     C214     CTL2    -0.180000       12.0110           0
     16062 MEMB     141      POPE     H14R     HAL2     0.900000E-01   1.00800           0
     16063 MEMB     141      POPE     H14S     HAL2     0.900000E-01   1.00800           0
     16064 MEMB     141      POPE     C215     CTL2    -0.180000       12.0110           0
     16065 MEMB     141      POPE     H15R     HAL2     0.900000E-01   1.00800           0
     16066 MEMB     141      POPE     H15S     HAL2     0.900000E-01   1.00800           0
     16067 MEMB     141      POPE     C216     CTL2    -0.180000       12.0110           0
     16068 MEMB     141      POPE     H16R     HAL2     0.900000E-01   1.00800           0
     16069 MEMB     141      POPE     H16S     HAL2     0.900000E-01   1.00800           0
     16070 MEMB     141      POPE     C217     CTL2    -0.180000       12.0110           0
     16071 MEMB     141      POPE     H17R     HAL2     0.900000E-01   1.00800           0
     16072 MEMB     141      POPE     H17S     HAL2     0.900000E-01   1.00800           0
     16073 MEMB     141      POPE     C218     CTL3    -0.270000       12.0110           0
     16074 MEMB     141      POPE     H18R     HAL3     0.900000E-01   1.00800           0
     16075 MEMB     141      POPE     H18S     HAL3     0.900000E-01   1.00800           0
     16076 MEMB     141      POPE     H18T     HAL3     0.900000E-01   1.00800           0
     16077 MEMB     141      POPE     C33      CTL2    -0.180000       12.0110           0
     16078 MEMB     141      POPE     H3X      HAL2     0.900000E-01   1.00800           0
     16079 MEMB     141      POPE     H3Y      HAL2     0.900000E-01   1.00800           0
     16080 MEMB     141      POPE     C34      CTL2    -0.180000       12.0110           0
     16081 MEMB     141      POPE     H4X      HAL2     0.900000E-01   1.00800           0
     16082 MEMB     141      POPE     H4Y      HAL2     0.900000E-01   1.00800           0
     16083 MEMB     141      POPE     C35      CTL2    -0.180000       12.0110           0
     16084 MEMB     141      POPE     H5X      HAL2     0.900000E-01   1.00800           0
     16085 MEMB     141      POPE     H5Y      HAL2     0.900000E-01   1.00800           0
     16086 MEMB     141      POPE     C36      CTL2    -0.180000       12.0110           0
     16087 MEMB     141      POPE     H6X      HAL2     0.900000E-01   1.00800           0
     16088 MEMB     141      POPE     H6Y      HAL2     0.900000E-01   1.00800           0
     16089 MEMB     141      POPE     C37      CTL2    -0.180000       12.0110           0
     16090 MEMB     141      POPE     H7X      HAL2     0.900000E-01   1.00800           0
     16091 MEMB     141      POPE     H7Y      HAL2     0.900000E-01   1.00800           0
     16092 MEMB     141      POPE     C38      CTL2    -0.180000       12.0110           0
     16093 MEMB     141      POPE     H8X      HAL2     0.900000E-01   1.00800           0
     16094 MEMB     141      POPE     H8Y      HAL2     0.900000E-01   1.00800           0
     16095 MEMB     141      POPE     C39      CTL2    -0.180000       12.0110           0
     16096 MEMB     141      POPE     H9X      HAL2     0.900000E-01   1.00800           0
     16097 MEMB     141      POPE     H9Y      HAL2     0.900000E-01   1.00800           0
     16098 MEMB     141      POPE     C310     CTL2    -0.180000       12.0110           0
     16099 MEMB     141      POPE     H10X     HAL2     0.900000E-01   1.00800           0
     16100 MEMB     141      POPE     H10Y     HAL2     0.900000E-01   1.00800           0
     16101 MEMB     141      POPE     C311     CTL2    -0.180000       12.0110           0
     16102 MEMB     141      POPE     H11X     HAL2     0.900000E-01   1.00800           0
     16103 MEMB     141      POPE     H11Y     HAL2     0.900000E-01   1.00800           0
     16104 MEMB     141      POPE     C312     CTL2    -0.180000       12.0110           0
     16105 MEMB     141      POPE     H12X     HAL2     0.900000E-01   1.00800           0
     16106 MEMB     141      POPE     H12Y     HAL2     0.900000E-01   1.00800           0
     16107 MEMB     141      POPE     C313     CTL2    -0.180000       12.0110           0
     16108 MEMB     141      POPE     H13X     HAL2     0.900000E-01   1.00800           0
     16109 MEMB     141      POPE     H13Y     HAL2     0.900000E-01   1.00800           0
     16110 MEMB     141      POPE     C314     CTL2    -0.180000       12.0110           0
     16111 MEMB     141      POPE     H14X     HAL2     0.900000E-01   1.00800           0
     16112 MEMB     141      POPE     H14Y     HAL2     0.900000E-01   1.00800           0
     16113 MEMB     141      POPE     C315     CTL2    -0.180000       12.0110           0
     16114 MEMB     141      POPE     H15X     HAL2     0.900000E-01   1.00800           0
     16115 MEMB     141      POPE     H15Y     HAL2     0.900000E-01   1.00800           0
     16116 MEMB     141      POPE     C316     CTL3    -0.270000       12.0110           0
     16117 MEMB     141      POPE     H16X     HAL3     0.900000E-01   1.00800           0
     16118 MEMB     141      POPE     H16Y     HAL3     0.900000E-01   1.00800           0
     16119 MEMB     141      POPE     H16Z     HAL3     0.900000E-01   1.00800           0
     16120 MEMB     142      POPC     N        NTL     -0.600000       14.0070           0
     16121 MEMB     142      POPC     C12      CTL2    -0.100000       12.0110           0
     16122 MEMB     142      POPC     H12A     HL       0.250000       1.00800           0
     16123 MEMB     142      POPC     H12B     HL       0.250000       1.00800           0
     16124 MEMB     142      POPC     C13      CTL5    -0.350000       12.0110           0
     16125 MEMB     142      POPC     H13A     HL       0.250000       1.00800           0
     16126 MEMB     142      POPC     H13B     HL       0.250000       1.00800           0
     16127 MEMB     142      POPC     H13C     HL       0.250000       1.00800           0
     16128 MEMB     142      POPC     C14      CTL5    -0.350000       12.0110           0
     16129 MEMB     142      POPC     H14A     HL       0.250000       1.00800           0
     16130 MEMB     142      POPC     H14B     HL       0.250000       1.00800           0
     16131 MEMB     142      POPC     H14C     HL       0.250000       1.00800           0
     16132 MEMB     142      POPC     C15      CTL5    -0.350000       12.0110           0
     16133 MEMB     142      POPC     H15A     HL       0.250000       1.00800           0
     16134 MEMB     142      POPC     H15B     HL       0.250000       1.00800           0
     16135 MEMB     142      POPC     H15C     HL       0.250000       1.00800           0
     16136 MEMB     142      POPC     C11      CTL2    -0.800000E-01   12.0110           0
     16137 MEMB     142      POPC     H11A     HAL2     0.900000E-01   1.00800           0
     16138 MEMB     142      POPC     H11B     HAL2     0.900000E-01   1.00800           0
     16139 MEMB     142      POPC     P        PL        1.50000       30.9740           0
     16140 MEMB     142      POPC     O13      O2L     -0.780000       15.9994           0
     16141 MEMB     142      POPC     O14      O2L     -0.780000       15.9994           0
     16142 MEMB     142      POPC     O12      OSLP    -0.570000       15.9994           0
     16143 MEMB     142      POPC     O11      OSLP    -0.570000       15.9994           0
     16144 MEMB     142      POPC     C1       CTL2    -0.800000E-01   12.0110           0
     16145 MEMB     142      POPC     HA       HAL2     0.900000E-01   1.00800           0
     16146 MEMB     142      POPC     HB       HAL2     0.900000E-01   1.00800           0
     16147 MEMB     142      POPC     C2       CTL1     0.170000       12.0110           0
     16148 MEMB     142      POPC     HS       HAL1     0.900000E-01   1.00800           0
     16149 MEMB     142      POPC     O21      OSL     -0.490000       15.9994           0
     16150 MEMB     142      POPC     C21      CL       0.900000       12.0110           0
     16151 MEMB     142      POPC     O22      OBL     -0.630000       15.9994           0
     16152 MEMB     142      POPC     C22      CTL2    -0.220000       12.0110           0
     16153 MEMB     142      POPC     H2R      HAL2     0.900000E-01   1.00800           0
     16154 MEMB     142      POPC     H2S      HAL2     0.900000E-01   1.00800           0
     16155 MEMB     142      POPC     C3       CTL2     0.800000E-01   12.0110           0
     16156 MEMB     142      POPC     HX       HAL2     0.900000E-01   1.00800           0
     16157 MEMB     142      POPC     HY       HAL2     0.900000E-01   1.00800           0
     16158 MEMB     142      POPC     O31      OSL     -0.490000       15.9994           0
     16159 MEMB     142      POPC     C31      CL       0.900000       12.0110           0
     16160 MEMB     142      POPC     O32      OBL     -0.630000       15.9994           0
     16161 MEMB     142      POPC     C32      CTL2    -0.220000       12.0110           0
     16162 MEMB     142      POPC     H2X      HAL2     0.900000E-01   1.00800           0
     16163 MEMB     142      POPC     H2Y      HAL2     0.900000E-01   1.00800           0
     16164 MEMB     142      POPC     C23      CTL2    -0.180000       12.0110           0
     16165 MEMB     142      POPC     H3R      HAL2     0.900000E-01   1.00800           0
     16166 MEMB     142      POPC     H3S      HAL2     0.900000E-01   1.00800           0
     16167 MEMB     142      POPC     C24      CTL2    -0.180000       12.0110           0
     16168 MEMB     142      POPC     H4R      HAL2     0.900000E-01   1.00800           0
     16169 MEMB     142      POPC     H4S      HAL2     0.900000E-01   1.00800           0
     16170 MEMB     142      POPC     C25      CTL2    -0.180000       12.0110           0
     16171 MEMB     142      POPC     H5R      HAL2     0.900000E-01   1.00800           0
     16172 MEMB     142      POPC     H5S      HAL2     0.900000E-01   1.00800           0
     16173 MEMB     142      POPC     C26      CTL2    -0.180000       12.0110           0
     16174 MEMB     142      POPC     H6R      HAL2     0.900000E-01   1.00800           0
     16175 MEMB     142      POPC     H6S      HAL2     0.900000E-01   1.00800           0
     16176 MEMB     142      POPC     C27      CTL2    -0.180000       12.0110           0
     16177 MEMB     142      POPC     H7R      HAL2     0.900000E-01   1.00800           0
     16178 MEMB     142      POPC     H7S      HAL2     0.900000E-01   1.00800           0
     16179 MEMB     142      POPC     C28      CTL2    -0.180000       12.0110           0
     16180 MEMB     142      POPC     H8R      HAL2     0.900000E-01   1.00800           0
     16181 MEMB     142      POPC     H8S      HAL2     0.900000E-01   1.00800           0
     16182 MEMB     142      POPC     C29      CEL1    -0.150000       12.0110           0
     16183 MEMB     142      POPC     H91      HEL1     0.150000       1.00800           0
     16184 MEMB     142      POPC     C210     CEL1    -0.150000       12.0110           0
     16185 MEMB     142      POPC     H101     HEL1     0.150000       1.00800           0
     16186 MEMB     142      POPC     C211     CTL2    -0.180000       12.0110           0
     16187 MEMB     142      POPC     H11R     HAL2     0.900000E-01   1.00800           0
     16188 MEMB     142      POPC     H11S     HAL2     0.900000E-01   1.00800           0
     16189 MEMB     142      POPC     C212     CTL2    -0.180000       12.0110           0
     16190 MEMB     142      POPC     H12R     HAL2     0.900000E-01   1.00800           0
     16191 MEMB     142      POPC     H12S     HAL2     0.900000E-01   1.00800           0
     16192 MEMB     142      POPC     C213     CTL2    -0.180000       12.0110           0
     16193 MEMB     142      POPC     H13R     HAL2     0.900000E-01   1.00800           0
     16194 MEMB     142      POPC     H13S     HAL2     0.900000E-01   1.00800           0
     16195 MEMB     142      POPC     C214     CTL2    -0.180000       12.0110           0
     16196 MEMB     142      POPC     H14R     HAL2     0.900000E-01   1.00800           0
     16197 MEMB     142      POPC     H14S     HAL2     0.900000E-01   1.00800           0
     16198 MEMB     142      POPC     C215     CTL2    -0.180000       12.0110           0
     16199 MEMB     142      POPC     H15R     HAL2     0.900000E-01   1.00800           0
     16200 MEMB     142      POPC     H15S     HAL2     0.900000E-01   1.00800           0
     16201 MEMB     142      POPC     C216     CTL2    -0.180000       12.0110           0
     16202 MEMB     142      POPC     H16R     HAL2     0.900000E-01   1.00800           0
     16203 MEMB     142      POPC     H16S     HAL2     0.900000E-01   1.00800           0
     16204 MEMB     142      POPC     C217     CTL2    -0.180000       12.0110           0
     16205 MEMB     142      POPC     H17R     HAL2     0.900000E-01   1.00800           0
     16206 MEMB     142      POPC     H17S     HAL2     0.900000E-01   1.00800           0
     16207 MEMB     142      POPC     C218     CTL3    -0.270000       12.0110           0
     16208 MEMB     142      POPC     H18R     HAL3     0.900000E-01   1.00800           0
     16209 MEMB     142      POPC     H18S     HAL3     0.900000E-01   1.00800           0
     16210 MEMB     142      POPC     H18T     HAL3     0.900000E-01   1.00800           0
     16211 MEMB     142      POPC     C33      CTL2    -0.180000       12.0110           0
     16212 MEMB     142      POPC     H3X      HAL2     0.900000E-01   1.00800           0
     16213 MEMB     142      POPC     H3Y      HAL2     0.900000E-01   1.00800           0
     16214 MEMB     142      POPC     C34      CTL2    -0.180000       12.0110           0
     16215 MEMB     142      POPC     H4X      HAL2     0.900000E-01   1.00800           0
     16216 MEMB     142      POPC     H4Y      HAL2     0.900000E-01   1.00800           0
     16217 MEMB     142      POPC     C35      CTL2    -0.180000       12.0110           0
     16218 MEMB     142      POPC     H5X      HAL2     0.900000E-01   1.00800           0
     16219 MEMB     142      POPC     H5Y      HAL2     0.900000E-01   1.00800           0
     16220 MEMB     142      POPC     C36      CTL2    -0.180000       12.0110           0
     16221 MEMB     142      POPC     H6X      HAL2     0.900000E-01   1.00800           0
     16222 MEMB     142      POPC     H6Y      HAL2     0.900000E-01   1.00800           0
     16223 MEMB     142      POPC     C37      CTL2    -0.180000       12.0110           0
     16224 MEMB     142      POPC     H7X      HAL2     0.900000E-01   1.00800           0
     16225 MEMB     142      POPC     H7Y      HAL2     0.900000E-01   1.00800           0
     16226 MEMB     142      POPC     C38      CTL2    -0.180000       12.0110           0
     16227 MEMB     142      POPC     H8X      HAL2     0.900000E-01   1.00800           0
     16228 MEMB     142      POPC     H8Y      HAL2     0.900000E-01   1.00800           0
     16229 MEMB     142      POPC     C39      CTL2    -0.180000       12.0110           0
     16230 MEMB     142      POPC     H9X      HAL2     0.900000E-01   1.00800           0
     16231 MEMB     142      POPC     H9Y      HAL2     0.900000E-01   1.00800           0
     16232 MEMB     142      POPC     C310     CTL2    -0.180000       12.0110           0
     16233 MEMB     142      POPC     H10X     HAL2     0.900000E-01   1.00800           0
     16234 MEMB     142      POPC     H10Y     HAL2     0.900000E-01   1.00800           0
     16235 MEMB     142      POPC     C311     CTL2    -0.180000       12.0110           0
     16236 MEMB     142      POPC     H11X     HAL2     0.900000E-01   1.00800           0
     16237 MEMB     142      POPC     H11Y     HAL2     0.900000E-01   1.00800           0
     16238 MEMB     142      POPC     C312     CTL2    -0.180000       12.0110           0
     16239 MEMB     142      POPC     H12X     HAL2     0.900000E-01   1.00800           0
     16240 MEMB     142      POPC     H12Y     HAL2     0.900000E-01   1.00800           0
     16241 MEMB     142      POPC     C313     CTL2    -0.180000       12.0110           0
     16242 MEMB     142      POPC     H13X     HAL2     0.900000E-01   1.00800           0
     16243 MEMB     142      POPC     H13Y     HAL2     0.900000E-01   1.00800           0
     16244 MEMB     142      POPC     C314     CTL2    -0.180000       12.0110           0
     16245 MEMB     142      POPC     H14X     HAL2     0.900000E-01   1.00800           0
     16246 MEMB     142      POPC     H14Y     HAL2     0.900000E-01   1.00800           0
     16247 MEMB     142      POPC     C315     CTL2    -0.180000       12.0110           0
     16248 MEMB     142      POPC     H15X     HAL2     0.900000E-01   1.00800           0
     16249 MEMB     142      POPC     H15Y     HAL2     0.900000E-01   1.00800           0
     16250 MEMB     142      POPC     C316     CTL3    -0.270000       12.0110           0
     16251 MEMB     142      POPC     H16X     HAL3     0.900000E-01   1.00800           0
     16252 MEMB     142      POPC     H16Y     HAL3     0.900000E-01   1.00800           0
     16253 MEMB     142      POPC     H16Z     HAL3     0.900000E-01   1.00800           0
     16254 MEMB     143      POPC     N        NTL     -0.600000       14.0070           0
     16255 MEMB     143      POPC     C12      CTL2    -0.100000       12.0110           0
     16256 MEMB     143      POPC     H12A     HL       0.250000       1.00800           0
     16257 MEMB     143      POPC     H12B     HL       0.250000       1.00800           0
     16258 MEMB     143      POPC     C13      CTL5    -0.350000       12.0110           0
     16259 MEMB     143      POPC     H13A     HL       0.250000       1.00800           0
     16260 MEMB     143      POPC     H13B     HL       0.250000       1.00800           0
     16261 MEMB     143      POPC     H13C     HL       0.250000       1.00800           0
     16262 MEMB     143      POPC     C14      CTL5    -0.350000       12.0110           0
     16263 MEMB     143      POPC     H14A     HL       0.250000       1.00800           0
     16264 MEMB     143      POPC     H14B     HL       0.250000       1.00800           0
     16265 MEMB     143      POPC     H14C     HL       0.250000       1.00800           0
     16266 MEMB     143      POPC     C15      CTL5    -0.350000       12.0110           0
     16267 MEMB     143      POPC     H15A     HL       0.250000       1.00800           0
     16268 MEMB     143      POPC     H15B     HL       0.250000       1.00800           0
     16269 MEMB     143      POPC     H15C     HL       0.250000       1.00800           0
     16270 MEMB     143      POPC     C11      CTL2    -0.800000E-01   12.0110           0
     16271 MEMB     143      POPC     H11A     HAL2     0.900000E-01   1.00800           0
     16272 MEMB     143      POPC     H11B     HAL2     0.900000E-01   1.00800           0
     16273 MEMB     143      POPC     P        PL        1.50000       30.9740           0
     16274 MEMB     143      POPC     O13      O2L     -0.780000       15.9994           0
     16275 MEMB     143      POPC     O14      O2L     -0.780000       15.9994           0
     16276 MEMB     143      POPC     O12      OSLP    -0.570000       15.9994           0
     16277 MEMB     143      POPC     O11      OSLP    -0.570000       15.9994           0
     16278 MEMB     143      POPC     C1       CTL2    -0.800000E-01   12.0110           0
     16279 MEMB     143      POPC     HA       HAL2     0.900000E-01   1.00800           0
     16280 MEMB     143      POPC     HB       HAL2     0.900000E-01   1.00800           0
     16281 MEMB     143      POPC     C2       CTL1     0.170000       12.0110           0
     16282 MEMB     143      POPC     HS       HAL1     0.900000E-01   1.00800           0
     16283 MEMB     143      POPC     O21      OSL     -0.490000       15.9994           0
     16284 MEMB     143      POPC     C21      CL       0.900000       12.0110           0
     16285 MEMB     143      POPC     O22      OBL     -0.630000       15.9994           0
     16286 MEMB     143      POPC     C22      CTL2    -0.220000       12.0110           0
     16287 MEMB     143      POPC     H2R      HAL2     0.900000E-01   1.00800           0
     16288 MEMB     143      POPC     H2S      HAL2     0.900000E-01   1.00800           0
     16289 MEMB     143      POPC     C3       CTL2     0.800000E-01   12.0110           0
     16290 MEMB     143      POPC     HX       HAL2     0.900000E-01   1.00800           0
     16291 MEMB     143      POPC     HY       HAL2     0.900000E-01   1.00800           0
     16292 MEMB     143      POPC     O31      OSL     -0.490000       15.9994           0
     16293 MEMB     143      POPC     C31      CL       0.900000       12.0110           0
     16294 MEMB     143      POPC     O32      OBL     -0.630000       15.9994           0
     16295 MEMB     143      POPC     C32      CTL2    -0.220000       12.0110           0
     16296 MEMB     143      POPC     H2X      HAL2     0.900000E-01   1.00800           0
     16297 MEMB     143      POPC     H2Y      HAL2     0.900000E-01   1.00800           0
     16298 MEMB     143      POPC     C23      CTL2    -0.180000       12.0110           0
     16299 MEMB     143      POPC     H3R      HAL2     0.900000E-01   1.00800           0
     16300 MEMB     143      POPC     H3S      HAL2     0.900000E-01   1.00800           0
     16301 MEMB     143      POPC     C24      CTL2    -0.180000       12.0110           0
     16302 MEMB     143      POPC     H4R      HAL2     0.900000E-01   1.00800           0
     16303 MEMB     143      POPC     H4S      HAL2     0.900000E-01   1.00800           0
     16304 MEMB     143      POPC     C25      CTL2    -0.180000       12.0110           0
     16305 MEMB     143      POPC     H5R      HAL2     0.900000E-01   1.00800           0
     16306 MEMB     143      POPC     H5S      HAL2     0.900000E-01   1.00800           0
     16307 MEMB     143      POPC     C26      CTL2    -0.180000       12.0110           0
     16308 MEMB     143      POPC     H6R      HAL2     0.900000E-01   1.00800           0
     16309 MEMB     143      POPC     H6S      HAL2     0.900000E-01   1.00800           0
     16310 MEMB     143      POPC     C27      CTL2    -0.180000       12.0110           0
     16311 MEMB     143      POPC     H7R      HAL2     0.900000E-01   1.00800           0
     16312 MEMB     143      POPC     H7S      HAL2     0.900000E-01   1.00800           0
     16313 MEMB     143      POPC     C28      CTL2    -0.180000       12.0110           0
     16314 MEMB     143      POPC     H8R      HAL2     0.900000E-01   1.00800           0
     16315 MEMB     143      POPC     H8S      HAL2     0.900000E-01   1.00800           0
     16316 MEMB     143      POPC     C29      CEL1    -0.150000       12.0110           0
     16317 MEMB     143      POPC     H91      HEL1     0.150000       1.00800           0
     16318 MEMB     143      POPC     C210     CEL1    -0.150000       12.0110           0
     16319 MEMB     143      POPC     H101     HEL1     0.150000       1.00800           0
     16320 MEMB     143      POPC     C211     CTL2    -0.180000       12.0110           0
     16321 MEMB     143      POPC     H11R     HAL2     0.900000E-01   1.00800           0
     16322 MEMB     143      POPC     H11S     HAL2     0.900000E-01   1.00800           0
     16323 MEMB     143      POPC     C212     CTL2    -0.180000       12.0110           0
     16324 MEMB     143      POPC     H12R     HAL2     0.900000E-01   1.00800           0
     16325 MEMB     143      POPC     H12S     HAL2     0.900000E-01   1.00800           0
     16326 MEMB     143      POPC     C213     CTL2    -0.180000       12.0110           0
     16327 MEMB     143      POPC     H13R     HAL2     0.900000E-01   1.00800           0
     16328 MEMB     143      POPC     H13S     HAL2     0.900000E-01   1.00800           0
     16329 MEMB     143      POPC     C214     CTL2    -0.180000       12.0110           0
     16330 MEMB     143      POPC     H14R     HAL2     0.900000E-01   1.00800           0
     16331 MEMB     143      POPC     H14S     HAL2     0.900000E-01   1.00800           0
     16332 MEMB     143      POPC     C215     CTL2    -0.180000       12.0110           0
     16333 MEMB     143      POPC     H15R     HAL2     0.900000E-01   1.00800           0
     16334 MEMB     143      POPC     H15S     HAL2     0.900000E-01   1.00800           0
     16335 MEMB     143      POPC     C216     CTL2    -0.180000       12.0110           0
     16336 MEMB     143      POPC     H16R     HAL2     0.900000E-01   1.00800           0
     16337 MEMB     143      POPC     H16S     HAL2     0.900000E-01   1.00800           0
     16338 MEMB     143      POPC     C217     CTL2    -0.180000       12.0110           0
     16339 MEMB     143      POPC     H17R     HAL2     0.900000E-01   1.00800           0
     16340 MEMB     143      POPC     H17S     HAL2     0.900000E-01   1.00800           0
     16341 MEMB     143      POPC     C218     CTL3    -0.270000       12.0110           0
     16342 MEMB     143      POPC     H18R     HAL3     0.900000E-01   1.00800           0
     16343 MEMB     143      POPC     H18S     HAL3     0.900000E-01   1.00800           0
     16344 MEMB     143      POPC     H18T     HAL3     0.900000E-01   1.00800           0
     16345 MEMB     143      POPC     C33      CTL2    -0.180000       12.0110           0
     16346 MEMB     143      POPC     H3X      HAL2     0.900000E-01   1.00800           0
     16347 MEMB     143      POPC     H3Y      HAL2     0.900000E-01   1.00800           0
     16348 MEMB     143      POPC     C34      CTL2    -0.180000       12.0110           0
     16349 MEMB     143      POPC     H4X      HAL2     0.900000E-01   1.00800           0
     16350 MEMB     143      POPC     H4Y      HAL2     0.900000E-01   1.00800           0
     16351 MEMB     143      POPC     C35      CTL2    -0.180000       12.0110           0
     16352 MEMB     143      POPC     H5X      HAL2     0.900000E-01   1.00800           0
     16353 MEMB     143      POPC     H5Y      HAL2     0.900000E-01   1.00800           0
     16354 MEMB     143      POPC     C36      CTL2    -0.180000       12.0110           0
     16355 MEMB     143      POPC     H6X      HAL2     0.900000E-01   1.00800           0
     16356 MEMB     143      POPC     H6Y      HAL2     0.900000E-01   1.00800           0
     16357 MEMB     143      POPC     C37      CTL2    -0.180000       12.0110           0
     16358 MEMB     143      POPC     H7X      HAL2     0.900000E-01   1.00800           0
     16359 MEMB     143      POPC     H7Y      HAL2     0.900000E-01   1.00800           0
     16360 MEMB     143      POPC     C38      CTL2    -0.180000       12.0110           0
     16361 MEMB     143      POPC     H8X      HAL2     0.900000E-01   1.00800           0
     16362 MEMB     143      POPC     H8Y      HAL2     0.900000E-01   1.00800           0
     16363 MEMB     143      POPC     C39      CTL2    -0.180000       12.0110           0
     16364 MEMB     143      POPC     H9X      HAL2     0.900000E-01   1.00800           0
     16365 MEMB     143      POPC     H9Y      HAL2     0.900000E-01   1.00800           0
     16366 MEMB     143      POPC     C310     CTL2    -0.180000       12.0110           0
     16367 MEMB     143      POPC     H10X     HAL2     0.900000E-01   1.00800           0
     16368 MEMB     143      POPC     H10Y     HAL2     0.900000E-01   1.00800           0
     16369 MEMB     143      POPC     C311     CTL2    -0.180000       12.0110           0
     16370 MEMB     143      POPC     H11X     HAL2     0.900000E-01   1.00800           0
     16371 MEMB     143      POPC     H11Y     HAL2     0.900000E-01   1.00800           0
     16372 MEMB     143      POPC     C312     CTL2    -0.180000       12.0110           0
     16373 MEMB     143      POPC     H12X     HAL2     0.900000E-01   1.00800           0
     16374 MEMB     143      POPC     H12Y     HAL2     0.900000E-01   1.00800           0
     16375 MEMB     143      POPC     C313     CTL2    -0.180000       12.0110           0
     16376 MEMB     143      POPC     H13X     HAL2     0.900000E-01   1.00800           0
     16377 MEMB     143      POPC     H13Y     HAL2     0.900000E-01   1.00800           0
     16378 MEMB     143      POPC     C314     CTL2    -0.180000       12.0110           0
     16379 MEMB     143      POPC     H14X     HAL2     0.900000E-01   1.00800           0
     16380 MEMB     143      POPC     H14Y     HAL2     0.900000E-01   1.00800           0
     16381 MEMB     143      POPC     C315     CTL2    -0.180000       12.0110           0
     16382 MEMB     143      POPC     H15X     HAL2     0.900000E-01   1.00800           0
     16383 MEMB     143      POPC     H15Y     HAL2     0.900000E-01   1.00800           0
     16384 MEMB     143      POPC     C316     CTL3    -0.270000       12.0110           0
     16385 MEMB     143      POPC     H16X     HAL3     0.900000E-01   1.00800           0
     16386 MEMB     143      POPC     H16Y     HAL3     0.900000E-01   1.00800           0
     16387 MEMB     143      POPC     H16Z     HAL3     0.900000E-01   1.00800           0
     16388 MEMB     144      POPE     N        NH3L    -0.300000       14.0070           0
     16389 MEMB     144      POPE     HN1      HCL      0.330000       1.00800           0
     16390 MEMB     144      POPE     HN2      HCL      0.330000       1.00800           0
     16391 MEMB     144      POPE     HN3      HCL      0.330000       1.00800           0
     16392 MEMB     144      POPE     C12      CTL2     0.130000       12.0110           0
     16393 MEMB     144      POPE     H12A     HAL2     0.900000E-01   1.00800           0
     16394 MEMB     144      POPE     H12B     HAL2     0.900000E-01   1.00800           0
     16395 MEMB     144      POPE     C11      CTL2    -0.800000E-01   12.0110           0
     16396 MEMB     144      POPE     H11A     HAL2     0.900000E-01   1.00800           0
     16397 MEMB     144      POPE     H11B     HAL2     0.900000E-01   1.00800           0
     16398 MEMB     144      POPE     P        PL        1.50000       30.9740           0
     16399 MEMB     144      POPE     O13      O2L     -0.780000       15.9994           0
     16400 MEMB     144      POPE     O14      O2L     -0.780000       15.9994           0
     16401 MEMB     144      POPE     O11      OSLP    -0.570000       15.9994           0
     16402 MEMB     144      POPE     O12      OSLP    -0.570000       15.9994           0
     16403 MEMB     144      POPE     C1       CTL2    -0.800000E-01   12.0110           0
     16404 MEMB     144      POPE     HA       HAL2     0.900000E-01   1.00800           0
     16405 MEMB     144      POPE     HB       HAL2     0.900000E-01   1.00800           0
     16406 MEMB     144      POPE     C2       CTL1     0.170000       12.0110           0
     16407 MEMB     144      POPE     HS       HAL1     0.900000E-01   1.00800           0
     16408 MEMB     144      POPE     O21      OSL     -0.490000       15.9994           0
     16409 MEMB     144      POPE     C21      CL       0.900000       12.0110           0
     16410 MEMB     144      POPE     O22      OBL     -0.630000       15.9994           0
     16411 MEMB     144      POPE     C22      CTL2    -0.220000       12.0110           0
     16412 MEMB     144      POPE     H2R      HAL2     0.900000E-01   1.00800           0
     16413 MEMB     144      POPE     H2S      HAL2     0.900000E-01   1.00800           0
     16414 MEMB     144      POPE     C3       CTL2     0.800000E-01   12.0110           0
     16415 MEMB     144      POPE     HX       HAL2     0.900000E-01   1.00800           0
     16416 MEMB     144      POPE     HY       HAL2     0.900000E-01   1.00800           0
     16417 MEMB     144      POPE     O31      OSL     -0.490000       15.9994           0
     16418 MEMB     144      POPE     C31      CL       0.900000       12.0110           0
     16419 MEMB     144      POPE     O32      OBL     -0.630000       15.9994           0
     16420 MEMB     144      POPE     C32      CTL2    -0.220000       12.0110           0
     16421 MEMB     144      POPE     H2X      HAL2     0.900000E-01   1.00800           0
     16422 MEMB     144      POPE     H2Y      HAL2     0.900000E-01   1.00800           0
     16423 MEMB     144      POPE     C23      CTL2    -0.180000       12.0110           0
     16424 MEMB     144      POPE     H3R      HAL2     0.900000E-01   1.00800           0
     16425 MEMB     144      POPE     H3S      HAL2     0.900000E-01   1.00800           0
     16426 MEMB     144      POPE     C24      CTL2    -0.180000       12.0110           0
     16427 MEMB     144      POPE     H4R      HAL2     0.900000E-01   1.00800           0
     16428 MEMB     144      POPE     H4S      HAL2     0.900000E-01   1.00800           0
     16429 MEMB     144      POPE     C25      CTL2    -0.180000       12.0110           0
     16430 MEMB     144      POPE     H5R      HAL2     0.900000E-01   1.00800           0
     16431 MEMB     144      POPE     H5S      HAL2     0.900000E-01   1.00800           0
     16432 MEMB     144      POPE     C26      CTL2    -0.180000       12.0110           0
     16433 MEMB     144      POPE     H6R      HAL2     0.900000E-01   1.00800           0
     16434 MEMB     144      POPE     H6S      HAL2     0.900000E-01   1.00800           0
     16435 MEMB     144      POPE     C27      CTL2    -0.180000       12.0110           0
     16436 MEMB     144      POPE     H7R      HAL2     0.900000E-01   1.00800           0
     16437 MEMB     144      POPE     H7S      HAL2     0.900000E-01   1.00800           0
     16438 MEMB     144      POPE     C28      CTL2    -0.180000       12.0110           0
     16439 MEMB     144      POPE     H8R      HAL2     0.900000E-01   1.00800           0
     16440 MEMB     144      POPE     H8S      HAL2     0.900000E-01   1.00800           0
     16441 MEMB     144      POPE     C29      CEL1    -0.150000       12.0110           0
     16442 MEMB     144      POPE     H91      HEL1     0.150000       1.00800           0
     16443 MEMB     144      POPE     C210     CEL1    -0.150000       12.0110           0
     16444 MEMB     144      POPE     H101     HEL1     0.150000       1.00800           0
     16445 MEMB     144      POPE     C211     CTL2    -0.180000       12.0110           0
     16446 MEMB     144      POPE     H11R     HAL2     0.900000E-01   1.00800           0
     16447 MEMB     144      POPE     H11S     HAL2     0.900000E-01   1.00800           0
     16448 MEMB     144      POPE     C212     CTL2    -0.180000       12.0110           0
     16449 MEMB     144      POPE     H12R     HAL2     0.900000E-01   1.00800           0
     16450 MEMB     144      POPE     H12S     HAL2     0.900000E-01   1.00800           0
     16451 MEMB     144      POPE     C213     CTL2    -0.180000       12.0110           0
     16452 MEMB     144      POPE     H13R     HAL2     0.900000E-01   1.00800           0
     16453 MEMB     144      POPE     H13S     HAL2     0.900000E-01   1.00800           0
     16454 MEMB     144      POPE     C214     CTL2    -0.180000       12.0110           0
     16455 MEMB     144      POPE     H14R     HAL2     0.900000E-01   1.00800           0
     16456 MEMB     144      POPE     H14S     HAL2     0.900000E-01   1.00800           0
     16457 MEMB     144      POPE     C215     CTL2    -0.180000       12.0110           0
     16458 MEMB     144      POPE     H15R     HAL2     0.900000E-01   1.00800           0
     16459 MEMB     144      POPE     H15S     HAL2     0.900000E-01   1.00800           0
     16460 MEMB     144      POPE     C216     CTL2    -0.180000       12.0110           0
     16461 MEMB     144      POPE     H16R     HAL2     0.900000E-01   1.00800           0
     16462 MEMB     144      POPE     H16S     HAL2     0.900000E-01   1.00800           0
     16463 MEMB     144      POPE     C217     CTL2    -0.180000       12.0110           0
     16464 MEMB     144      POPE     H17R     HAL2     0.900000E-01   1.00800           0
     16465 MEMB     144      POPE     H17S     HAL2     0.900000E-01   1.00800           0
     16466 MEMB     144      POPE     C218     CTL3    -0.270000       12.0110           0
     16467 MEMB     144      POPE     H18R     HAL3     0.900000E-01   1.00800           0
     16468 MEMB     144      POPE     H18S     HAL3     0.900000E-01   1.00800           0
     16469 MEMB     144      POPE     H18T     HAL3     0.900000E-01   1.00800           0
     16470 MEMB     144      POPE     C33      CTL2    -0.180000       12.0110           0
     16471 MEMB     144      POPE     H3X      HAL2     0.900000E-01   1.00800           0
     16472 MEMB     144      POPE     H3Y      HAL2     0.900000E-01   1.00800           0
     16473 MEMB     144      POPE     C34      CTL2    -0.180000       12.0110           0
     16474 MEMB     144      POPE     H4X      HAL2     0.900000E-01   1.00800           0
     16475 MEMB     144      POPE     H4Y      HAL2     0.900000E-01   1.00800           0
     16476 MEMB     144      POPE     C35      CTL2    -0.180000       12.0110           0
     16477 MEMB     144      POPE     H5X      HAL2     0.900000E-01   1.00800           0
     16478 MEMB     144      POPE     H5Y      HAL2     0.900000E-01   1.00800           0
     16479 MEMB     144      POPE     C36      CTL2    -0.180000       12.0110           0
     16480 MEMB     144      POPE     H6X      HAL2     0.900000E-01   1.00800           0
     16481 MEMB     144      POPE     H6Y      HAL2     0.900000E-01   1.00800           0
     16482 MEMB     144      POPE     C37      CTL2    -0.180000       12.0110           0
     16483 MEMB     144      POPE     H7X      HAL2     0.900000E-01   1.00800           0
     16484 MEMB     144      POPE     H7Y      HAL2     0.900000E-01   1.00800           0
     16485 MEMB     144      POPE     C38      CTL2    -0.180000       12.0110           0
     16486 MEMB     144      POPE     H8X      HAL2     0.900000E-01   1.00800           0
     16487 MEMB     144      POPE     H8Y      HAL2     0.900000E-01   1.00800           0
     16488 MEMB     144      POPE     C39      CTL2    -0.180000       12.0110           0
     16489 MEMB     144      POPE     H9X      HAL2     0.900000E-01   1.00800           0
     16490 MEMB     144      POPE     H9Y      HAL2     0.900000E-01   1.00800           0
     16491 MEMB     144      POPE     C310     CTL2    -0.180000       12.0110           0
     16492 MEMB     144      POPE     H10X     HAL2     0.900000E-01   1.00800           0
     16493 MEMB     144      POPE     H10Y     HAL2     0.900000E-01   1.00800           0
     16494 MEMB     144      POPE     C311     CTL2    -0.180000       12.0110           0
     16495 MEMB     144      POPE     H11X     HAL2     0.900000E-01   1.00800           0
     16496 MEMB     144      POPE     H11Y     HAL2     0.900000E-01   1.00800           0
     16497 MEMB     144      POPE     C312     CTL2    -0.180000       12.0110           0
     16498 MEMB     144      POPE     H12X     HAL2     0.900000E-01   1.00800           0
     16499 MEMB     144      POPE     H12Y     HAL2     0.900000E-01   1.00800           0
     16500 MEMB     144      POPE     C313     CTL2    -0.180000       12.0110           0
     16501 MEMB     144      POPE     H13X     HAL2     0.900000E-01   1.00800           0
     16502 MEMB     144      POPE     H13Y     HAL2     0.900000E-01   1.00800           0
     16503 MEMB     144      POPE     C314     CTL2    -0.180000       12.0110           0
     16504 MEMB     144      POPE     H14X     HAL2     0.900000E-01   1.00800           0
     16505 MEMB     144      POPE     H14Y     HAL2     0.900000E-01   1.00800           0
     16506 MEMB     144      POPE     C315     CTL2    -0.180000       12.0110           0
     16507 MEMB     144      POPE     H15X     HAL2     0.900000E-01   1.00800           0
     16508 MEMB     144      POPE     H15Y     HAL2     0.900000E-01   1.00800           0
     16509 MEMB     144      POPE     C316     CTL3    -0.270000       12.0110           0
     16510 MEMB     144      POPE     H16X     HAL3     0.900000E-01   1.00800           0
     16511 MEMB     144      POPE     H16Y     HAL3     0.900000E-01   1.00800           0
     16512 MEMB     144      POPE     H16Z     HAL3     0.900000E-01   1.00800           0
     16513 MEMB     145      POPC     N        NTL     -0.600000       14.0070           0
     16514 MEMB     145      POPC     C12      CTL2    -0.100000       12.0110           0
     16515 MEMB     145      POPC     H12A     HL       0.250000       1.00800           0
     16516 MEMB     145      POPC     H12B     HL       0.250000       1.00800           0
     16517 MEMB     145      POPC     C13      CTL5    -0.350000       12.0110           0
     16518 MEMB     145      POPC     H13A     HL       0.250000       1.00800           0
     16519 MEMB     145      POPC     H13B     HL       0.250000       1.00800           0
     16520 MEMB     145      POPC     H13C     HL       0.250000       1.00800           0
     16521 MEMB     145      POPC     C14      CTL5    -0.350000       12.0110           0
     16522 MEMB     145      POPC     H14A     HL       0.250000       1.00800           0
     16523 MEMB     145      POPC     H14B     HL       0.250000       1.00800           0
     16524 MEMB     145      POPC     H14C     HL       0.250000       1.00800           0
     16525 MEMB     145      POPC     C15      CTL5    -0.350000       12.0110           0
     16526 MEMB     145      POPC     H15A     HL       0.250000       1.00800           0
     16527 MEMB     145      POPC     H15B     HL       0.250000       1.00800           0
     16528 MEMB     145      POPC     H15C     HL       0.250000       1.00800           0
     16529 MEMB     145      POPC     C11      CTL2    -0.800000E-01   12.0110           0
     16530 MEMB     145      POPC     H11A     HAL2     0.900000E-01   1.00800           0
     16531 MEMB     145      POPC     H11B     HAL2     0.900000E-01   1.00800           0
     16532 MEMB     145      POPC     P        PL        1.50000       30.9740           0
     16533 MEMB     145      POPC     O13      O2L     -0.780000       15.9994           0
     16534 MEMB     145      POPC     O14      O2L     -0.780000       15.9994           0
     16535 MEMB     145      POPC     O12      OSLP    -0.570000       15.9994           0
     16536 MEMB     145      POPC     O11      OSLP    -0.570000       15.9994           0
     16537 MEMB     145      POPC     C1       CTL2    -0.800000E-01   12.0110           0
     16538 MEMB     145      POPC     HA       HAL2     0.900000E-01   1.00800           0
     16539 MEMB     145      POPC     HB       HAL2     0.900000E-01   1.00800           0
     16540 MEMB     145      POPC     C2       CTL1     0.170000       12.0110           0
     16541 MEMB     145      POPC     HS       HAL1     0.900000E-01   1.00800           0
     16542 MEMB     145      POPC     O21      OSL     -0.490000       15.9994           0
     16543 MEMB     145      POPC     C21      CL       0.900000       12.0110           0
     16544 MEMB     145      POPC     O22      OBL     -0.630000       15.9994           0
     16545 MEMB     145      POPC     C22      CTL2    -0.220000       12.0110           0
     16546 MEMB     145      POPC     H2R      HAL2     0.900000E-01   1.00800           0
     16547 MEMB     145      POPC     H2S      HAL2     0.900000E-01   1.00800           0
     16548 MEMB     145      POPC     C3       CTL2     0.800000E-01   12.0110           0
     16549 MEMB     145      POPC     HX       HAL2     0.900000E-01   1.00800           0
     16550 MEMB     145      POPC     HY       HAL2     0.900000E-01   1.00800           0
     16551 MEMB     145      POPC     O31      OSL     -0.490000       15.9994           0
     16552 MEMB     145      POPC     C31      CL       0.900000       12.0110           0
     16553 MEMB     145      POPC     O32      OBL     -0.630000       15.9994           0
     16554 MEMB     145      POPC     C32      CTL2    -0.220000       12.0110           0
     16555 MEMB     145      POPC     H2X      HAL2     0.900000E-01   1.00800           0
     16556 MEMB     145      POPC     H2Y      HAL2     0.900000E-01   1.00800           0
     16557 MEMB     145      POPC     C23      CTL2    -0.180000       12.0110           0
     16558 MEMB     145      POPC     H3R      HAL2     0.900000E-01   1.00800           0
     16559 MEMB     145      POPC     H3S      HAL2     0.900000E-01   1.00800           0
     16560 MEMB     145      POPC     C24      CTL2    -0.180000       12.0110           0
     16561 MEMB     145      POPC     H4R      HAL2     0.900000E-01   1.00800           0
     16562 MEMB     145      POPC     H4S      HAL2     0.900000E-01   1.00800           0
     16563 MEMB     145      POPC     C25      CTL2    -0.180000       12.0110           0
     16564 MEMB     145      POPC     H5R      HAL2     0.900000E-01   1.00800           0
     16565 MEMB     145      POPC     H5S      HAL2     0.900000E-01   1.00800           0
     16566 MEMB     145      POPC     C26      CTL2    -0.180000       12.0110           0
     16567 MEMB     145      POPC     H6R      HAL2     0.900000E-01   1.00800           0
     16568 MEMB     145      POPC     H6S      HAL2     0.900000E-01   1.00800           0
     16569 MEMB     145      POPC     C27      CTL2    -0.180000       12.0110           0
     16570 MEMB     145      POPC     H7R      HAL2     0.900000E-01   1.00800           0
     16571 MEMB     145      POPC     H7S      HAL2     0.900000E-01   1.00800           0
     16572 MEMB     145      POPC     C28      CTL2    -0.180000       12.0110           0
     16573 MEMB     145      POPC     H8R      HAL2     0.900000E-01   1.00800           0
     16574 MEMB     145      POPC     H8S      HAL2     0.900000E-01   1.00800           0
     16575 MEMB     145      POPC     C29      CEL1    -0.150000       12.0110           0
     16576 MEMB     145      POPC     H91      HEL1     0.150000       1.00800           0
     16577 MEMB     145      POPC     C210     CEL1    -0.150000       12.0110           0
     16578 MEMB     145      POPC     H101     HEL1     0.150000       1.00800           0
     16579 MEMB     145      POPC     C211     CTL2    -0.180000       12.0110           0
     16580 MEMB     145      POPC     H11R     HAL2     0.900000E-01   1.00800           0
     16581 MEMB     145      POPC     H11S     HAL2     0.900000E-01   1.00800           0
     16582 MEMB     145      POPC     C212     CTL2    -0.180000       12.0110           0
     16583 MEMB     145      POPC     H12R     HAL2     0.900000E-01   1.00800           0
     16584 MEMB     145      POPC     H12S     HAL2     0.900000E-01   1.00800           0
     16585 MEMB     145      POPC     C213     CTL2    -0.180000       12.0110           0
     16586 MEMB     145      POPC     H13R     HAL2     0.900000E-01   1.00800           0
     16587 MEMB     145      POPC     H13S     HAL2     0.900000E-01   1.00800           0
     16588 MEMB     145      POPC     C214     CTL2    -0.180000       12.0110           0
     16589 MEMB     145      POPC     H14R     HAL2     0.900000E-01   1.00800           0
     16590 MEMB     145      POPC     H14S     HAL2     0.900000E-01   1.00800           0
     16591 MEMB     145      POPC     C215     CTL2    -0.180000       12.0110           0
     16592 MEMB     145      POPC     H15R     HAL2     0.900000E-01   1.00800           0
     16593 MEMB     145      POPC     H15S     HAL2     0.900000E-01   1.00800           0
     16594 MEMB     145      POPC     C216     CTL2    -0.180000       12.0110           0
     16595 MEMB     145      POPC     H16R     HAL2     0.900000E-01   1.00800           0
     16596 MEMB     145      POPC     H16S     HAL2     0.900000E-01   1.00800           0
     16597 MEMB     145      POPC     C217     CTL2    -0.180000       12.0110           0
     16598 MEMB     145      POPC     H17R     HAL2     0.900000E-01   1.00800           0
     16599 MEMB     145      POPC     H17S     HAL2     0.900000E-01   1.00800           0
     16600 MEMB     145      POPC     C218     CTL3    -0.270000       12.0110           0
     16601 MEMB     145      POPC     H18R     HAL3     0.900000E-01   1.00800           0
     16602 MEMB     145      POPC     H18S     HAL3     0.900000E-01   1.00800           0
     16603 MEMB     145      POPC     H18T     HAL3     0.900000E-01   1.00800           0
     16604 MEMB     145      POPC     C33      CTL2    -0.180000       12.0110           0
     16605 MEMB     145      POPC     H3X      HAL2     0.900000E-01   1.00800           0
     16606 MEMB     145      POPC     H3Y      HAL2     0.900000E-01   1.00800           0
     16607 MEMB     145      POPC     C34      CTL2    -0.180000       12.0110           0
     16608 MEMB     145      POPC     H4X      HAL2     0.900000E-01   1.00800           0
     16609 MEMB     145      POPC     H4Y      HAL2     0.900000E-01   1.00800           0
     16610 MEMB     145      POPC     C35      CTL2    -0.180000       12.0110           0
     16611 MEMB     145      POPC     H5X      HAL2     0.900000E-01   1.00800           0
     16612 MEMB     145      POPC     H5Y      HAL2     0.900000E-01   1.00800           0
     16613 MEMB     145      POPC     C36      CTL2    -0.180000       12.0110           0
     16614 MEMB     145      POPC     H6X      HAL2     0.900000E-01   1.00800           0
     16615 MEMB     145      POPC     H6Y      HAL2     0.900000E-01   1.00800           0
     16616 MEMB     145      POPC     C37      CTL2    -0.180000       12.0110           0
     16617 MEMB     145      POPC     H7X      HAL2     0.900000E-01   1.00800           0
     16618 MEMB     145      POPC     H7Y      HAL2     0.900000E-01   1.00800           0
     16619 MEMB     145      POPC     C38      CTL2    -0.180000       12.0110           0
     16620 MEMB     145      POPC     H8X      HAL2     0.900000E-01   1.00800           0
     16621 MEMB     145      POPC     H8Y      HAL2     0.900000E-01   1.00800           0
     16622 MEMB     145      POPC     C39      CTL2    -0.180000       12.0110           0
     16623 MEMB     145      POPC     H9X      HAL2     0.900000E-01   1.00800           0
     16624 MEMB     145      POPC     H9Y      HAL2     0.900000E-01   1.00800           0
     16625 MEMB     145      POPC     C310     CTL2    -0.180000       12.0110           0
     16626 MEMB     145      POPC     H10X     HAL2     0.900000E-01   1.00800           0
     16627 MEMB     145      POPC     H10Y     HAL2     0.900000E-01   1.00800           0
     16628 MEMB     145      POPC     C311     CTL2    -0.180000       12.0110           0
     16629 MEMB     145      POPC     H11X     HAL2     0.900000E-01   1.00800           0
     16630 MEMB     145      POPC     H11Y     HAL2     0.900000E-01   1.00800           0
     16631 MEMB     145      POPC     C312     CTL2    -0.180000       12.0110           0
     16632 MEMB     145      POPC     H12X     HAL2     0.900000E-01   1.00800           0
     16633 MEMB     145      POPC     H12Y     HAL2     0.900000E-01   1.00800           0
     16634 MEMB     145      POPC     C313     CTL2    -0.180000       12.0110           0
     16635 MEMB     145      POPC     H13X     HAL2     0.900000E-01   1.00800           0
     16636 MEMB     145      POPC     H13Y     HAL2     0.900000E-01   1.00800           0
     16637 MEMB     145      POPC     C314     CTL2    -0.180000       12.0110           0
     16638 MEMB     145      POPC     H14X     HAL2     0.900000E-01   1.00800           0
     16639 MEMB     145      POPC     H14Y     HAL2     0.900000E-01   1.00800           0
     16640 MEMB     145      POPC     C315     CTL2    -0.180000       12.0110           0
     16641 MEMB     145      POPC     H15X     HAL2     0.900000E-01   1.00800           0
     16642 MEMB     145      POPC     H15Y     HAL2     0.900000E-01   1.00800           0
     16643 MEMB     145      POPC     C316     CTL3    -0.270000       12.0110           0
     16644 MEMB     145      POPC     H16X     HAL3     0.900000E-01   1.00800           0
     16645 MEMB     145      POPC     H16Y     HAL3     0.900000E-01   1.00800           0
     16646 MEMB     145      POPC     H16Z     HAL3     0.900000E-01   1.00800           0
     16647 MEMB     146      POPC     N        NTL     -0.600000       14.0070           0
     16648 MEMB     146      POPC     C12      CTL2    -0.100000       12.0110           0
     16649 MEMB     146      POPC     H12A     HL       0.250000       1.00800           0
     16650 MEMB     146      POPC     H12B     HL       0.250000       1.00800           0
     16651 MEMB     146      POPC     C13      CTL5    -0.350000       12.0110           0
     16652 MEMB     146      POPC     H13A     HL       0.250000       1.00800           0
     16653 MEMB     146      POPC     H13B     HL       0.250000       1.00800           0
     16654 MEMB     146      POPC     H13C     HL       0.250000       1.00800           0
     16655 MEMB     146      POPC     C14      CTL5    -0.350000       12.0110           0
     16656 MEMB     146      POPC     H14A     HL       0.250000       1.00800           0
     16657 MEMB     146      POPC     H14B     HL       0.250000       1.00800           0
     16658 MEMB     146      POPC     H14C     HL       0.250000       1.00800           0
     16659 MEMB     146      POPC     C15      CTL5    -0.350000       12.0110           0
     16660 MEMB     146      POPC     H15A     HL       0.250000       1.00800           0
     16661 MEMB     146      POPC     H15B     HL       0.250000       1.00800           0
     16662 MEMB     146      POPC     H15C     HL       0.250000       1.00800           0
     16663 MEMB     146      POPC     C11      CTL2    -0.800000E-01   12.0110           0
     16664 MEMB     146      POPC     H11A     HAL2     0.900000E-01   1.00800           0
     16665 MEMB     146      POPC     H11B     HAL2     0.900000E-01   1.00800           0
     16666 MEMB     146      POPC     P        PL        1.50000       30.9740           0
     16667 MEMB     146      POPC     O13      O2L     -0.780000       15.9994           0
     16668 MEMB     146      POPC     O14      O2L     -0.780000       15.9994           0
     16669 MEMB     146      POPC     O12      OSLP    -0.570000       15.9994           0
     16670 MEMB     146      POPC     O11      OSLP    -0.570000       15.9994           0
     16671 MEMB     146      POPC     C1       CTL2    -0.800000E-01   12.0110           0
     16672 MEMB     146      POPC     HA       HAL2     0.900000E-01   1.00800           0
     16673 MEMB     146      POPC     HB       HAL2     0.900000E-01   1.00800           0
     16674 MEMB     146      POPC     C2       CTL1     0.170000       12.0110           0
     16675 MEMB     146      POPC     HS       HAL1     0.900000E-01   1.00800           0
     16676 MEMB     146      POPC     O21      OSL     -0.490000       15.9994           0
     16677 MEMB     146      POPC     C21      CL       0.900000       12.0110           0
     16678 MEMB     146      POPC     O22      OBL     -0.630000       15.9994           0
     16679 MEMB     146      POPC     C22      CTL2    -0.220000       12.0110           0
     16680 MEMB     146      POPC     H2R      HAL2     0.900000E-01   1.00800           0
     16681 MEMB     146      POPC     H2S      HAL2     0.900000E-01   1.00800           0
     16682 MEMB     146      POPC     C3       CTL2     0.800000E-01   12.0110           0
     16683 MEMB     146      POPC     HX       HAL2     0.900000E-01   1.00800           0
     16684 MEMB     146      POPC     HY       HAL2     0.900000E-01   1.00800           0
     16685 MEMB     146      POPC     O31      OSL     -0.490000       15.9994           0
     16686 MEMB     146      POPC     C31      CL       0.900000       12.0110           0
     16687 MEMB     146      POPC     O32      OBL     -0.630000       15.9994           0
     16688 MEMB     146      POPC     C32      CTL2    -0.220000       12.0110           0
     16689 MEMB     146      POPC     H2X      HAL2     0.900000E-01   1.00800           0
     16690 MEMB     146      POPC     H2Y      HAL2     0.900000E-01   1.00800           0
     16691 MEMB     146      POPC     C23      CTL2    -0.180000       12.0110           0
     16692 MEMB     146      POPC     H3R      HAL2     0.900000E-01   1.00800           0
     16693 MEMB     146      POPC     H3S      HAL2     0.900000E-01   1.00800           0
     16694 MEMB     146      POPC     C24      CTL2    -0.180000       12.0110           0
     16695 MEMB     146      POPC     H4R      HAL2     0.900000E-01   1.00800           0
     16696 MEMB     146      POPC     H4S      HAL2     0.900000E-01   1.00800           0
     16697 MEMB     146      POPC     C25      CTL2    -0.180000       12.0110           0
     16698 MEMB     146      POPC     H5R      HAL2     0.900000E-01   1.00800           0
     16699 MEMB     146      POPC     H5S      HAL2     0.900000E-01   1.00800           0
     16700 MEMB     146      POPC     C26      CTL2    -0.180000       12.0110           0
     16701 MEMB     146      POPC     H6R      HAL2     0.900000E-01   1.00800           0
     16702 MEMB     146      POPC     H6S      HAL2     0.900000E-01   1.00800           0
     16703 MEMB     146      POPC     C27      CTL2    -0.180000       12.0110           0
     16704 MEMB     146      POPC     H7R      HAL2     0.900000E-01   1.00800           0
     16705 MEMB     146      POPC     H7S      HAL2     0.900000E-01   1.00800           0
     16706 MEMB     146      POPC     C28      CTL2    -0.180000       12.0110           0
     16707 MEMB     146      POPC     H8R      HAL2     0.900000E-01   1.00800           0
     16708 MEMB     146      POPC     H8S      HAL2     0.900000E-01   1.00800           0
     16709 MEMB     146      POPC     C29      CEL1    -0.150000       12.0110           0
     16710 MEMB     146      POPC     H91      HEL1     0.150000       1.00800           0
     16711 MEMB     146      POPC     C210     CEL1    -0.150000       12.0110           0
     16712 MEMB     146      POPC     H101     HEL1     0.150000       1.00800           0
     16713 MEMB     146      POPC     C211     CTL2    -0.180000       12.0110           0
     16714 MEMB     146      POPC     H11R     HAL2     0.900000E-01   1.00800           0
     16715 MEMB     146      POPC     H11S     HAL2     0.900000E-01   1.00800           0
     16716 MEMB     146      POPC     C212     CTL2    -0.180000       12.0110           0
     16717 MEMB     146      POPC     H12R     HAL2     0.900000E-01   1.00800           0
     16718 MEMB     146      POPC     H12S     HAL2     0.900000E-01   1.00800           0
     16719 MEMB     146      POPC     C213     CTL2    -0.180000       12.0110           0
     16720 MEMB     146      POPC     H13R     HAL2     0.900000E-01   1.00800           0
     16721 MEMB     146      POPC     H13S     HAL2     0.900000E-01   1.00800           0
     16722 MEMB     146      POPC     C214     CTL2    -0.180000       12.0110           0
     16723 MEMB     146      POPC     H14R     HAL2     0.900000E-01   1.00800           0
     16724 MEMB     146      POPC     H14S     HAL2     0.900000E-01   1.00800           0
     16725 MEMB     146      POPC     C215     CTL2    -0.180000       12.0110           0
     16726 MEMB     146      POPC     H15R     HAL2     0.900000E-01   1.00800           0
     16727 MEMB     146      POPC     H15S     HAL2     0.900000E-01   1.00800           0
     16728 MEMB     146      POPC     C216     CTL2    -0.180000       12.0110           0
     16729 MEMB     146      POPC     H16R     HAL2     0.900000E-01   1.00800           0
     16730 MEMB     146      POPC     H16S     HAL2     0.900000E-01   1.00800           0
     16731 MEMB     146      POPC     C217     CTL2    -0.180000       12.0110           0
     16732 MEMB     146      POPC     H17R     HAL2     0.900000E-01   1.00800           0
     16733 MEMB     146      POPC     H17S     HAL2     0.900000E-01   1.00800           0
     16734 MEMB     146      POPC     C218     CTL3    -0.270000       12.0110           0
     16735 MEMB     146      POPC     H18R     HAL3     0.900000E-01   1.00800           0
     16736 MEMB     146      POPC     H18S     HAL3     0.900000E-01   1.00800           0
     16737 MEMB     146      POPC     H18T     HAL3     0.900000E-01   1.00800           0
     16738 MEMB     146      POPC     C33      CTL2    -0.180000       12.0110           0
     16739 MEMB     146      POPC     H3X      HAL2     0.900000E-01   1.00800           0
     16740 MEMB     146      POPC     H3Y      HAL2     0.900000E-01   1.00800           0
     16741 MEMB     146      POPC     C34      CTL2    -0.180000       12.0110           0
     16742 MEMB     146      POPC     H4X      HAL2     0.900000E-01   1.00800           0
     16743 MEMB     146      POPC     H4Y      HAL2     0.900000E-01   1.00800           0
     16744 MEMB     146      POPC     C35      CTL2    -0.180000       12.0110           0
     16745 MEMB     146      POPC     H5X      HAL2     0.900000E-01   1.00800           0
     16746 MEMB     146      POPC     H5Y      HAL2     0.900000E-01   1.00800           0
     16747 MEMB     146      POPC     C36      CTL2    -0.180000       12.0110           0
     16748 MEMB     146      POPC     H6X      HAL2     0.900000E-01   1.00800           0
     16749 MEMB     146      POPC     H6Y      HAL2     0.900000E-01   1.00800           0
     16750 MEMB     146      POPC     C37      CTL2    -0.180000       12.0110           0
     16751 MEMB     146      POPC     H7X      HAL2     0.900000E-01   1.00800           0
     16752 MEMB     146      POPC     H7Y      HAL2     0.900000E-01   1.00800           0
     16753 MEMB     146      POPC     C38      CTL2    -0.180000       12.0110           0
     16754 MEMB     146      POPC     H8X      HAL2     0.900000E-01   1.00800           0
     16755 MEMB     146      POPC     H8Y      HAL2     0.900000E-01   1.00800           0
     16756 MEMB     146      POPC     C39      CTL2    -0.180000       12.0110           0
     16757 MEMB     146      POPC     H9X      HAL2     0.900000E-01   1.00800           0
     16758 MEMB     146      POPC     H9Y      HAL2     0.900000E-01   1.00800           0
     16759 MEMB     146      POPC     C310     CTL2    -0.180000       12.0110           0
     16760 MEMB     146      POPC     H10X     HAL2     0.900000E-01   1.00800           0
     16761 MEMB     146      POPC     H10Y     HAL2     0.900000E-01   1.00800           0
     16762 MEMB     146      POPC     C311     CTL2    -0.180000       12.0110           0
     16763 MEMB     146      POPC     H11X     HAL2     0.900000E-01   1.00800           0
     16764 MEMB     146      POPC     H11Y     HAL2     0.900000E-01   1.00800           0
     16765 MEMB     146      POPC     C312     CTL2    -0.180000       12.0110           0
     16766 MEMB     146      POPC     H12X     HAL2     0.900000E-01   1.00800           0
     16767 MEMB     146      POPC     H12Y     HAL2     0.900000E-01   1.00800           0
     16768 MEMB     146      POPC     C313     CTL2    -0.180000       12.0110           0
     16769 MEMB     146      POPC     H13X     HAL2     0.900000E-01   1.00800           0
     16770 MEMB     146      POPC     H13Y     HAL2     0.900000E-01   1.00800           0
     16771 MEMB     146      POPC     C314     CTL2    -0.180000       12.0110           0
     16772 MEMB     146      POPC     H14X     HAL2     0.900000E-01   1.00800           0
     16773 MEMB     146      POPC     H14Y     HAL2     0.900000E-01   1.00800           0
     16774 MEMB     146      POPC     C315     CTL2    -0.180000       12.0110           0
     16775 MEMB     146      POPC     H15X     HAL2     0.900000E-01   1.00800           0
     16776 MEMB     146      POPC     H15Y     HAL2     0.900000E-01   1.00800           0
     16777 MEMB     146      POPC     C316     CTL3    -0.270000       12.0110           0
     16778 MEMB     146      POPC     H16X     HAL3     0.900000E-01   1.00800           0
     16779 MEMB     146      POPC     H16Y     HAL3     0.900000E-01   1.00800           0
     16780 MEMB     146      POPC     H16Z     HAL3     0.900000E-01   1.00800           0
     16781 MEMB     147      POPC     N        NTL     -0.600000       14.0070           0
     16782 MEMB     147      POPC     C12      CTL2    -0.100000       12.0110           0
     16783 MEMB     147      POPC     H12A     HL       0.250000       1.00800           0
     16784 MEMB     147      POPC     H12B     HL       0.250000       1.00800           0
     16785 MEMB     147      POPC     C13      CTL5    -0.350000       12.0110           0
     16786 MEMB     147      POPC     H13A     HL       0.250000       1.00800           0
     16787 MEMB     147      POPC     H13B     HL       0.250000       1.00800           0
     16788 MEMB     147      POPC     H13C     HL       0.250000       1.00800           0
     16789 MEMB     147      POPC     C14      CTL5    -0.350000       12.0110           0
     16790 MEMB     147      POPC     H14A     HL       0.250000       1.00800           0
     16791 MEMB     147      POPC     H14B     HL       0.250000       1.00800           0
     16792 MEMB     147      POPC     H14C     HL       0.250000       1.00800           0
     16793 MEMB     147      POPC     C15      CTL5    -0.350000       12.0110           0
     16794 MEMB     147      POPC     H15A     HL       0.250000       1.00800           0
     16795 MEMB     147      POPC     H15B     HL       0.250000       1.00800           0
     16796 MEMB     147      POPC     H15C     HL       0.250000       1.00800           0
     16797 MEMB     147      POPC     C11      CTL2    -0.800000E-01   12.0110           0
     16798 MEMB     147      POPC     H11A     HAL2     0.900000E-01   1.00800           0
     16799 MEMB     147      POPC     H11B     HAL2     0.900000E-01   1.00800           0
     16800 MEMB     147      POPC     P        PL        1.50000       30.9740           0
     16801 MEMB     147      POPC     O13      O2L     -0.780000       15.9994           0
     16802 MEMB     147      POPC     O14      O2L     -0.780000       15.9994           0
     16803 MEMB     147      POPC     O12      OSLP    -0.570000       15.9994           0
     16804 MEMB     147      POPC     O11      OSLP    -0.570000       15.9994           0
     16805 MEMB     147      POPC     C1       CTL2    -0.800000E-01   12.0110           0
     16806 MEMB     147      POPC     HA       HAL2     0.900000E-01   1.00800           0
     16807 MEMB     147      POPC     HB       HAL2     0.900000E-01   1.00800           0
     16808 MEMB     147      POPC     C2       CTL1     0.170000       12.0110           0
     16809 MEMB     147      POPC     HS       HAL1     0.900000E-01   1.00800           0
     16810 MEMB     147      POPC     O21      OSL     -0.490000       15.9994           0
     16811 MEMB     147      POPC     C21      CL       0.900000       12.0110           0
     16812 MEMB     147      POPC     O22      OBL     -0.630000       15.9994           0
     16813 MEMB     147      POPC     C22      CTL2    -0.220000       12.0110           0
     16814 MEMB     147      POPC     H2R      HAL2     0.900000E-01   1.00800           0
     16815 MEMB     147      POPC     H2S      HAL2     0.900000E-01   1.00800           0
     16816 MEMB     147      POPC     C3       CTL2     0.800000E-01   12.0110           0
     16817 MEMB     147      POPC     HX       HAL2     0.900000E-01   1.00800           0
     16818 MEMB     147      POPC     HY       HAL2     0.900000E-01   1.00800           0
     16819 MEMB     147      POPC     O31      OSL     -0.490000       15.9994           0
     16820 MEMB     147      POPC     C31      CL       0.900000       12.0110           0
     16821 MEMB     147      POPC     O32      OBL     -0.630000       15.9994           0
     16822 MEMB     147      POPC     C32      CTL2    -0.220000       12.0110           0
     16823 MEMB     147      POPC     H2X      HAL2     0.900000E-01   1.00800           0
     16824 MEMB     147      POPC     H2Y      HAL2     0.900000E-01   1.00800           0
     16825 MEMB     147      POPC     C23      CTL2    -0.180000       12.0110           0
     16826 MEMB     147      POPC     H3R      HAL2     0.900000E-01   1.00800           0
     16827 MEMB     147      POPC     H3S      HAL2     0.900000E-01   1.00800           0
     16828 MEMB     147      POPC     C24      CTL2    -0.180000       12.0110           0
     16829 MEMB     147      POPC     H4R      HAL2     0.900000E-01   1.00800           0
     16830 MEMB     147      POPC     H4S      HAL2     0.900000E-01   1.00800           0
     16831 MEMB     147      POPC     C25      CTL2    -0.180000       12.0110           0
     16832 MEMB     147      POPC     H5R      HAL2     0.900000E-01   1.00800           0
     16833 MEMB     147      POPC     H5S      HAL2     0.900000E-01   1.00800           0
     16834 MEMB     147      POPC     C26      CTL2    -0.180000       12.0110           0
     16835 MEMB     147      POPC     H6R      HAL2     0.900000E-01   1.00800           0
     16836 MEMB     147      POPC     H6S      HAL2     0.900000E-01   1.00800           0
     16837 MEMB     147      POPC     C27      CTL2    -0.180000       12.0110           0
     16838 MEMB     147      POPC     H7R      HAL2     0.900000E-01   1.00800           0
     16839 MEMB     147      POPC     H7S      HAL2     0.900000E-01   1.00800           0
     16840 MEMB     147      POPC     C28      CTL2    -0.180000       12.0110           0
     16841 MEMB     147      POPC     H8R      HAL2     0.900000E-01   1.00800           0
     16842 MEMB     147      POPC     H8S      HAL2     0.900000E-01   1.00800           0
     16843 MEMB     147      POPC     C29      CEL1    -0.150000       12.0110           0
     16844 MEMB     147      POPC     H91      HEL1     0.150000       1.00800           0
     16845 MEMB     147      POPC     C210     CEL1    -0.150000       12.0110           0
     16846 MEMB     147      POPC     H101     HEL1     0.150000       1.00800           0
     16847 MEMB     147      POPC     C211     CTL2    -0.180000       12.0110           0
     16848 MEMB     147      POPC     H11R     HAL2     0.900000E-01   1.00800           0
     16849 MEMB     147      POPC     H11S     HAL2     0.900000E-01   1.00800           0
     16850 MEMB     147      POPC     C212     CTL2    -0.180000       12.0110           0
     16851 MEMB     147      POPC     H12R     HAL2     0.900000E-01   1.00800           0
     16852 MEMB     147      POPC     H12S     HAL2     0.900000E-01   1.00800           0
     16853 MEMB     147      POPC     C213     CTL2    -0.180000       12.0110           0
     16854 MEMB     147      POPC     H13R     HAL2     0.900000E-01   1.00800           0
     16855 MEMB     147      POPC     H13S     HAL2     0.900000E-01   1.00800           0
     16856 MEMB     147      POPC     C214     CTL2    -0.180000       12.0110           0
     16857 MEMB     147      POPC     H14R     HAL2     0.900000E-01   1.00800           0
     16858 MEMB     147      POPC     H14S     HAL2     0.900000E-01   1.00800           0
     16859 MEMB     147      POPC     C215     CTL2    -0.180000       12.0110           0
     16860 MEMB     147      POPC     H15R     HAL2     0.900000E-01   1.00800           0
     16861 MEMB     147      POPC     H15S     HAL2     0.900000E-01   1.00800           0
     16862 MEMB     147      POPC     C216     CTL2    -0.180000       12.0110           0
     16863 MEMB     147      POPC     H16R     HAL2     0.900000E-01   1.00800           0
     16864 MEMB     147      POPC     H16S     HAL2     0.900000E-01   1.00800           0
     16865 MEMB     147      POPC     C217     CTL2    -0.180000       12.0110           0
     16866 MEMB     147      POPC     H17R     HAL2     0.900000E-01   1.00800           0
     16867 MEMB     147      POPC     H17S     HAL2     0.900000E-01   1.00800           0
     16868 MEMB     147      POPC     C218     CTL3    -0.270000       12.0110           0
     16869 MEMB     147      POPC     H18R     HAL3     0.900000E-01   1.00800           0
     16870 MEMB     147      POPC     H18S     HAL3     0.900000E-01   1.00800           0
     16871 MEMB     147      POPC     H18T     HAL3     0.900000E-01   1.00800           0
     16872 MEMB     147      POPC     C33      CTL2    -0.180000       12.0110           0
     16873 MEMB     147      POPC     H3X      HAL2     0.900000E-01   1.00800           0
     16874 MEMB     147      POPC     H3Y      HAL2     0.900000E-01   1.00800           0
     16875 MEMB     147      POPC     C34      CTL2    -0.180000       12.0110           0
     16876 MEMB     147      POPC     H4X      HAL2     0.900000E-01   1.00800           0
     16877 MEMB     147      POPC     H4Y      HAL2     0.900000E-01   1.00800           0
     16878 MEMB     147      POPC     C35      CTL2    -0.180000       12.0110           0
     16879 MEMB     147      POPC     H5X      HAL2     0.900000E-01   1.00800           0
     16880 MEMB     147      POPC     H5Y      HAL2     0.900000E-01   1.00800           0
     16881 MEMB     147      POPC     C36      CTL2    -0.180000       12.0110           0
     16882 MEMB     147      POPC     H6X      HAL2     0.900000E-01   1.00800           0
     16883 MEMB     147      POPC     H6Y      HAL2     0.900000E-01   1.00800           0
     16884 MEMB     147      POPC     C37      CTL2    -0.180000       12.0110           0
     16885 MEMB     147      POPC     H7X      HAL2     0.900000E-01   1.00800           0
     16886 MEMB     147      POPC     H7Y      HAL2     0.900000E-01   1.00800           0
     16887 MEMB     147      POPC     C38      CTL2    -0.180000       12.0110           0
     16888 MEMB     147      POPC     H8X      HAL2     0.900000E-01   1.00800           0
     16889 MEMB     147      POPC     H8Y      HAL2     0.900000E-01   1.00800           0
     16890 MEMB     147      POPC     C39      CTL2    -0.180000       12.0110           0
     16891 MEMB     147      POPC     H9X      HAL2     0.900000E-01   1.00800           0
     16892 MEMB     147      POPC     H9Y      HAL2     0.900000E-01   1.00800           0
     16893 MEMB     147      POPC     C310     CTL2    -0.180000       12.0110           0
     16894 MEMB     147      POPC     H10X     HAL2     0.900000E-01   1.00800           0
     16895 MEMB     147      POPC     H10Y     HAL2     0.900000E-01   1.00800           0
     16896 MEMB     147      POPC     C311     CTL2    -0.180000       12.0110           0
     16897 MEMB     147      POPC     H11X     HAL2     0.900000E-01   1.00800           0
     16898 MEMB     147      POPC     H11Y     HAL2     0.900000E-01   1.00800           0
     16899 MEMB     147      POPC     C312     CTL2    -0.180000       12.0110           0
     16900 MEMB     147      POPC     H12X     HAL2     0.900000E-01   1.00800           0
     16901 MEMB     147      POPC     H12Y     HAL2     0.900000E-01   1.00800           0
     16902 MEMB     147      POPC     C313     CTL2    -0.180000       12.0110           0
     16903 MEMB     147      POPC     H13X     HAL2     0.900000E-01   1.00800           0
     16904 MEMB     147      POPC     H13Y     HAL2     0.900000E-01   1.00800           0
     16905 MEMB     147      POPC     C314     CTL2    -0.180000       12.0110           0
     16906 MEMB     147      POPC     H14X     HAL2     0.900000E-01   1.00800           0
     16907 MEMB     147      POPC     H14Y     HAL2     0.900000E-01   1.00800           0
     16908 MEMB     147      POPC     C315     CTL2    -0.180000       12.0110           0
     16909 MEMB     147      POPC     H15X     HAL2     0.900000E-01   1.00800           0
     16910 MEMB     147      POPC     H15Y     HAL2     0.900000E-01   1.00800           0
     16911 MEMB     147      POPC     C316     CTL3    -0.270000       12.0110           0
     16912 MEMB     147      POPC     H16X     HAL3     0.900000E-01   1.00800           0
     16913 MEMB     147      POPC     H16Y     HAL3     0.900000E-01   1.00800           0
     16914 MEMB     147      POPC     H16Z     HAL3     0.900000E-01   1.00800           0
     16915 MEMB     148      POPC     N        NTL     -0.600000       14.0070           0
     16916 MEMB     148      POPC     C12      CTL2    -0.100000       12.0110           0
     16917 MEMB     148      POPC     H12A     HL       0.250000       1.00800           0
     16918 MEMB     148      POPC     H12B     HL       0.250000       1.00800           0
     16919 MEMB     148      POPC     C13      CTL5    -0.350000       12.0110           0
     16920 MEMB     148      POPC     H13A     HL       0.250000       1.00800           0
     16921 MEMB     148      POPC     H13B     HL       0.250000       1.00800           0
     16922 MEMB     148      POPC     H13C     HL       0.250000       1.00800           0
     16923 MEMB     148      POPC     C14      CTL5    -0.350000       12.0110           0
     16924 MEMB     148      POPC     H14A     HL       0.250000       1.00800           0
     16925 MEMB     148      POPC     H14B     HL       0.250000       1.00800           0
     16926 MEMB     148      POPC     H14C     HL       0.250000       1.00800           0
     16927 MEMB     148      POPC     C15      CTL5    -0.350000       12.0110           0
     16928 MEMB     148      POPC     H15A     HL       0.250000       1.00800           0
     16929 MEMB     148      POPC     H15B     HL       0.250000       1.00800           0
     16930 MEMB     148      POPC     H15C     HL       0.250000       1.00800           0
     16931 MEMB     148      POPC     C11      CTL2    -0.800000E-01   12.0110           0
     16932 MEMB     148      POPC     H11A     HAL2     0.900000E-01   1.00800           0
     16933 MEMB     148      POPC     H11B     HAL2     0.900000E-01   1.00800           0
     16934 MEMB     148      POPC     P        PL        1.50000       30.9740           0
     16935 MEMB     148      POPC     O13      O2L     -0.780000       15.9994           0
     16936 MEMB     148      POPC     O14      O2L     -0.780000       15.9994           0
     16937 MEMB     148      POPC     O12      OSLP    -0.570000       15.9994           0
     16938 MEMB     148      POPC     O11      OSLP    -0.570000       15.9994           0
     16939 MEMB     148      POPC     C1       CTL2    -0.800000E-01   12.0110           0
     16940 MEMB     148      POPC     HA       HAL2     0.900000E-01   1.00800           0
     16941 MEMB     148      POPC     HB       HAL2     0.900000E-01   1.00800           0
     16942 MEMB     148      POPC     C2       CTL1     0.170000       12.0110           0
     16943 MEMB     148      POPC     HS       HAL1     0.900000E-01   1.00800           0
     16944 MEMB     148      POPC     O21      OSL     -0.490000       15.9994           0
     16945 MEMB     148      POPC     C21      CL       0.900000       12.0110           0
     16946 MEMB     148      POPC     O22      OBL     -0.630000       15.9994           0
     16947 MEMB     148      POPC     C22      CTL2    -0.220000       12.0110           0
     16948 MEMB     148      POPC     H2R      HAL2     0.900000E-01   1.00800           0
     16949 MEMB     148      POPC     H2S      HAL2     0.900000E-01   1.00800           0
     16950 MEMB     148      POPC     C3       CTL2     0.800000E-01   12.0110           0
     16951 MEMB     148      POPC     HX       HAL2     0.900000E-01   1.00800           0
     16952 MEMB     148      POPC     HY       HAL2     0.900000E-01   1.00800           0
     16953 MEMB     148      POPC     O31      OSL     -0.490000       15.9994           0
     16954 MEMB     148      POPC     C31      CL       0.900000       12.0110           0
     16955 MEMB     148      POPC     O32      OBL     -0.630000       15.9994           0
     16956 MEMB     148      POPC     C32      CTL2    -0.220000       12.0110           0
     16957 MEMB     148      POPC     H2X      HAL2     0.900000E-01   1.00800           0
     16958 MEMB     148      POPC     H2Y      HAL2     0.900000E-01   1.00800           0
     16959 MEMB     148      POPC     C23      CTL2    -0.180000       12.0110           0
     16960 MEMB     148      POPC     H3R      HAL2     0.900000E-01   1.00800           0
     16961 MEMB     148      POPC     H3S      HAL2     0.900000E-01   1.00800           0
     16962 MEMB     148      POPC     C24      CTL2    -0.180000       12.0110           0
     16963 MEMB     148      POPC     H4R      HAL2     0.900000E-01   1.00800           0
     16964 MEMB     148      POPC     H4S      HAL2     0.900000E-01   1.00800           0
     16965 MEMB     148      POPC     C25      CTL2    -0.180000       12.0110           0
     16966 MEMB     148      POPC     H5R      HAL2     0.900000E-01   1.00800           0
     16967 MEMB     148      POPC     H5S      HAL2     0.900000E-01   1.00800           0
     16968 MEMB     148      POPC     C26      CTL2    -0.180000       12.0110           0
     16969 MEMB     148      POPC     H6R      HAL2     0.900000E-01   1.00800           0
     16970 MEMB     148      POPC     H6S      HAL2     0.900000E-01   1.00800           0
     16971 MEMB     148      POPC     C27      CTL2    -0.180000       12.0110           0
     16972 MEMB     148      POPC     H7R      HAL2     0.900000E-01   1.00800           0
     16973 MEMB     148      POPC     H7S      HAL2     0.900000E-01   1.00800           0
     16974 MEMB     148      POPC     C28      CTL2    -0.180000       12.0110           0
     16975 MEMB     148      POPC     H8R      HAL2     0.900000E-01   1.00800           0
     16976 MEMB     148      POPC     H8S      HAL2     0.900000E-01   1.00800           0
     16977 MEMB     148      POPC     C29      CEL1    -0.150000       12.0110           0
     16978 MEMB     148      POPC     H91      HEL1     0.150000       1.00800           0
     16979 MEMB     148      POPC     C210     CEL1    -0.150000       12.0110           0
     16980 MEMB     148      POPC     H101     HEL1     0.150000       1.00800           0
     16981 MEMB     148      POPC     C211     CTL2    -0.180000       12.0110           0
     16982 MEMB     148      POPC     H11R     HAL2     0.900000E-01   1.00800           0
     16983 MEMB     148      POPC     H11S     HAL2     0.900000E-01   1.00800           0
     16984 MEMB     148      POPC     C212     CTL2    -0.180000       12.0110           0
     16985 MEMB     148      POPC     H12R     HAL2     0.900000E-01   1.00800           0
     16986 MEMB     148      POPC     H12S     HAL2     0.900000E-01   1.00800           0
     16987 MEMB     148      POPC     C213     CTL2    -0.180000       12.0110           0
     16988 MEMB     148      POPC     H13R     HAL2     0.900000E-01   1.00800           0
     16989 MEMB     148      POPC     H13S     HAL2     0.900000E-01   1.00800           0
     16990 MEMB     148      POPC     C214     CTL2    -0.180000       12.0110           0
     16991 MEMB     148      POPC     H14R     HAL2     0.900000E-01   1.00800           0
     16992 MEMB     148      POPC     H14S     HAL2     0.900000E-01   1.00800           0
     16993 MEMB     148      POPC     C215     CTL2    -0.180000       12.0110           0
     16994 MEMB     148      POPC     H15R     HAL2     0.900000E-01   1.00800           0
     16995 MEMB     148      POPC     H15S     HAL2     0.900000E-01   1.00800           0
     16996 MEMB     148      POPC     C216     CTL2    -0.180000       12.0110           0
     16997 MEMB     148      POPC     H16R     HAL2     0.900000E-01   1.00800           0
     16998 MEMB     148      POPC     H16S     HAL2     0.900000E-01   1.00800           0
     16999 MEMB     148      POPC     C217     CTL2    -0.180000       12.0110           0
     17000 MEMB     148      POPC     H17R     HAL2     0.900000E-01   1.00800           0
     17001 MEMB     148      POPC     H17S     HAL2     0.900000E-01   1.00800           0
     17002 MEMB     148      POPC     C218     CTL3    -0.270000       12.0110           0
     17003 MEMB     148      POPC     H18R     HAL3     0.900000E-01   1.00800           0
     17004 MEMB     148      POPC     H18S     HAL3     0.900000E-01   1.00800           0
     17005 MEMB     148      POPC     H18T     HAL3     0.900000E-01   1.00800           0
     17006 MEMB     148      POPC     C33      CTL2    -0.180000       12.0110           0
     17007 MEMB     148      POPC     H3X      HAL2     0.900000E-01   1.00800           0
     17008 MEMB     148      POPC     H3Y      HAL2     0.900000E-01   1.00800           0
     17009 MEMB     148      POPC     C34      CTL2    -0.180000       12.0110           0
     17010 MEMB     148      POPC     H4X      HAL2     0.900000E-01   1.00800           0
     17011 MEMB     148      POPC     H4Y      HAL2     0.900000E-01   1.00800           0
     17012 MEMB     148      POPC     C35      CTL2    -0.180000       12.0110           0
     17013 MEMB     148      POPC     H5X      HAL2     0.900000E-01   1.00800           0
     17014 MEMB     148      POPC     H5Y      HAL2     0.900000E-01   1.00800           0
     17015 MEMB     148      POPC     C36      CTL2    -0.180000       12.0110           0
     17016 MEMB     148      POPC     H6X      HAL2     0.900000E-01   1.00800           0
     17017 MEMB     148      POPC     H6Y      HAL2     0.900000E-01   1.00800           0
     17018 MEMB     148      POPC     C37      CTL2    -0.180000       12.0110           0
     17019 MEMB     148      POPC     H7X      HAL2     0.900000E-01   1.00800           0
     17020 MEMB     148      POPC     H7Y      HAL2     0.900000E-01   1.00800           0
     17021 MEMB     148      POPC     C38      CTL2    -0.180000       12.0110           0
     17022 MEMB     148      POPC     H8X      HAL2     0.900000E-01   1.00800           0
     17023 MEMB     148      POPC     H8Y      HAL2     0.900000E-01   1.00800           0
     17024 MEMB     148      POPC     C39      CTL2    -0.180000       12.0110           0
     17025 MEMB     148      POPC     H9X      HAL2     0.900000E-01   1.00800           0
     17026 MEMB     148      POPC     H9Y      HAL2     0.900000E-01   1.00800           0
     17027 MEMB     148      POPC     C310     CTL2    -0.180000       12.0110           0
     17028 MEMB     148      POPC     H10X     HAL2     0.900000E-01   1.00800           0
     17029 MEMB     148      POPC     H10Y     HAL2     0.900000E-01   1.00800           0
     17030 MEMB     148      POPC     C311     CTL2    -0.180000       12.0110           0
     17031 MEMB     148      POPC     H11X     HAL2     0.900000E-01   1.00800           0
     17032 MEMB     148      POPC     H11Y     HAL2     0.900000E-01   1.00800           0
     17033 MEMB     148      POPC     C312     CTL2    -0.180000       12.0110           0
     17034 MEMB     148      POPC     H12X     HAL2     0.900000E-01   1.00800           0
     17035 MEMB     148      POPC     H12Y     HAL2     0.900000E-01   1.00800           0
     17036 MEMB     148      POPC     C313     CTL2    -0.180000       12.0110           0
     17037 MEMB     148      POPC     H13X     HAL2     0.900000E-01   1.00800           0
     17038 MEMB     148      POPC     H13Y     HAL2     0.900000E-01   1.00800           0
     17039 MEMB     148      POPC     C314     CTL2    -0.180000       12.0110           0
     17040 MEMB     148      POPC     H14X     HAL2     0.900000E-01   1.00800           0
     17041 MEMB     148      POPC     H14Y     HAL2     0.900000E-01   1.00800           0
     17042 MEMB     148      POPC     C315     CTL2    -0.180000       12.0110           0
     17043 MEMB     148      POPC     H15X     HAL2     0.900000E-01   1.00800           0
     17044 MEMB     148      POPC     H15Y     HAL2     0.900000E-01   1.00800           0
     17045 MEMB     148      POPC     C316     CTL3    -0.270000       12.0110           0
     17046 MEMB     148      POPC     H16X     HAL3     0.900000E-01   1.00800           0
     17047 MEMB     148      POPC     H16Y     HAL3     0.900000E-01   1.00800           0
     17048 MEMB     148      POPC     H16Z     HAL3     0.900000E-01   1.00800           0
     17049 MEMB     149      POPE     N        NH3L    -0.300000       14.0070           0
     17050 MEMB     149      POPE     HN1      HCL      0.330000       1.00800           0
     17051 MEMB     149      POPE     HN2      HCL      0.330000       1.00800           0
     17052 MEMB     149      POPE     HN3      HCL      0.330000       1.00800           0
     17053 MEMB     149      POPE     C12      CTL2     0.130000       12.0110           0
     17054 MEMB     149      POPE     H12A     HAL2     0.900000E-01   1.00800           0
     17055 MEMB     149      POPE     H12B     HAL2     0.900000E-01   1.00800           0
     17056 MEMB     149      POPE     C11      CTL2    -0.800000E-01   12.0110           0
     17057 MEMB     149      POPE     H11A     HAL2     0.900000E-01   1.00800           0
     17058 MEMB     149      POPE     H11B     HAL2     0.900000E-01   1.00800           0
     17059 MEMB     149      POPE     P        PL        1.50000       30.9740           0
     17060 MEMB     149      POPE     O13      O2L     -0.780000       15.9994           0
     17061 MEMB     149      POPE     O14      O2L     -0.780000       15.9994           0
     17062 MEMB     149      POPE     O11      OSLP    -0.570000       15.9994           0
     17063 MEMB     149      POPE     O12      OSLP    -0.570000       15.9994           0
     17064 MEMB     149      POPE     C1       CTL2    -0.800000E-01   12.0110           0
     17065 MEMB     149      POPE     HA       HAL2     0.900000E-01   1.00800           0
     17066 MEMB     149      POPE     HB       HAL2     0.900000E-01   1.00800           0
     17067 MEMB     149      POPE     C2       CTL1     0.170000       12.0110           0
     17068 MEMB     149      POPE     HS       HAL1     0.900000E-01   1.00800           0
     17069 MEMB     149      POPE     O21      OSL     -0.490000       15.9994           0
     17070 MEMB     149      POPE     C21      CL       0.900000       12.0110           0
     17071 MEMB     149      POPE     O22      OBL     -0.630000       15.9994           0
     17072 MEMB     149      POPE     C22      CTL2    -0.220000       12.0110           0
     17073 MEMB     149      POPE     H2R      HAL2     0.900000E-01   1.00800           0
     17074 MEMB     149      POPE     H2S      HAL2     0.900000E-01   1.00800           0
     17075 MEMB     149      POPE     C3       CTL2     0.800000E-01   12.0110           0
     17076 MEMB     149      POPE     HX       HAL2     0.900000E-01   1.00800           0
     17077 MEMB     149      POPE     HY       HAL2     0.900000E-01   1.00800           0
     17078 MEMB     149      POPE     O31      OSL     -0.490000       15.9994           0
     17079 MEMB     149      POPE     C31      CL       0.900000       12.0110           0
     17080 MEMB     149      POPE     O32      OBL     -0.630000       15.9994           0
     17081 MEMB     149      POPE     C32      CTL2    -0.220000       12.0110           0
     17082 MEMB     149      POPE     H2X      HAL2     0.900000E-01   1.00800           0
     17083 MEMB     149      POPE     H2Y      HAL2     0.900000E-01   1.00800           0
     17084 MEMB     149      POPE     C23      CTL2    -0.180000       12.0110           0
     17085 MEMB     149      POPE     H3R      HAL2     0.900000E-01   1.00800           0
     17086 MEMB     149      POPE     H3S      HAL2     0.900000E-01   1.00800           0
     17087 MEMB     149      POPE     C24      CTL2    -0.180000       12.0110           0
     17088 MEMB     149      POPE     H4R      HAL2     0.900000E-01   1.00800           0
     17089 MEMB     149      POPE     H4S      HAL2     0.900000E-01   1.00800           0
     17090 MEMB     149      POPE     C25      CTL2    -0.180000       12.0110           0
     17091 MEMB     149      POPE     H5R      HAL2     0.900000E-01   1.00800           0
     17092 MEMB     149      POPE     H5S      HAL2     0.900000E-01   1.00800           0
     17093 MEMB     149      POPE     C26      CTL2    -0.180000       12.0110           0
     17094 MEMB     149      POPE     H6R      HAL2     0.900000E-01   1.00800           0
     17095 MEMB     149      POPE     H6S      HAL2     0.900000E-01   1.00800           0
     17096 MEMB     149      POPE     C27      CTL2    -0.180000       12.0110           0
     17097 MEMB     149      POPE     H7R      HAL2     0.900000E-01   1.00800           0
     17098 MEMB     149      POPE     H7S      HAL2     0.900000E-01   1.00800           0
     17099 MEMB     149      POPE     C28      CTL2    -0.180000       12.0110           0
     17100 MEMB     149      POPE     H8R      HAL2     0.900000E-01   1.00800           0
     17101 MEMB     149      POPE     H8S      HAL2     0.900000E-01   1.00800           0
     17102 MEMB     149      POPE     C29      CEL1    -0.150000       12.0110           0
     17103 MEMB     149      POPE     H91      HEL1     0.150000       1.00800           0
     17104 MEMB     149      POPE     C210     CEL1    -0.150000       12.0110           0
     17105 MEMB     149      POPE     H101     HEL1     0.150000       1.00800           0
     17106 MEMB     149      POPE     C211     CTL2    -0.180000       12.0110           0
     17107 MEMB     149      POPE     H11R     HAL2     0.900000E-01   1.00800           0
     17108 MEMB     149      POPE     H11S     HAL2     0.900000E-01   1.00800           0
     17109 MEMB     149      POPE     C212     CTL2    -0.180000       12.0110           0
     17110 MEMB     149      POPE     H12R     HAL2     0.900000E-01   1.00800           0
     17111 MEMB     149      POPE     H12S     HAL2     0.900000E-01   1.00800           0
     17112 MEMB     149      POPE     C213     CTL2    -0.180000       12.0110           0
     17113 MEMB     149      POPE     H13R     HAL2     0.900000E-01   1.00800           0
     17114 MEMB     149      POPE     H13S     HAL2     0.900000E-01   1.00800           0
     17115 MEMB     149      POPE     C214     CTL2    -0.180000       12.0110           0
     17116 MEMB     149      POPE     H14R     HAL2     0.900000E-01   1.00800           0
     17117 MEMB     149      POPE     H14S     HAL2     0.900000E-01   1.00800           0
     17118 MEMB     149      POPE     C215     CTL2    -0.180000       12.0110           0
     17119 MEMB     149      POPE     H15R     HAL2     0.900000E-01   1.00800           0
     17120 MEMB     149      POPE     H15S     HAL2     0.900000E-01   1.00800           0
     17121 MEMB     149      POPE     C216     CTL2    -0.180000       12.0110           0
     17122 MEMB     149      POPE     H16R     HAL2     0.900000E-01   1.00800           0
     17123 MEMB     149      POPE     H16S     HAL2     0.900000E-01   1.00800           0
     17124 MEMB     149      POPE     C217     CTL2    -0.180000       12.0110           0
     17125 MEMB     149      POPE     H17R     HAL2     0.900000E-01   1.00800           0
     17126 MEMB     149      POPE     H17S     HAL2     0.900000E-01   1.00800           0
     17127 MEMB     149      POPE     C218     CTL3    -0.270000       12.0110           0
     17128 MEMB     149      POPE     H18R     HAL3     0.900000E-01   1.00800           0
     17129 MEMB     149      POPE     H18S     HAL3     0.900000E-01   1.00800           0
     17130 MEMB     149      POPE     H18T     HAL3     0.900000E-01   1.00800           0
     17131 MEMB     149      POPE     C33      CTL2    -0.180000       12.0110           0
     17132 MEMB     149      POPE     H3X      HAL2     0.900000E-01   1.00800           0
     17133 MEMB     149      POPE     H3Y      HAL2     0.900000E-01   1.00800           0
     17134 MEMB     149      POPE     C34      CTL2    -0.180000       12.0110           0
     17135 MEMB     149      POPE     H4X      HAL2     0.900000E-01   1.00800           0
     17136 MEMB     149      POPE     H4Y      HAL2     0.900000E-01   1.00800           0
     17137 MEMB     149      POPE     C35      CTL2    -0.180000       12.0110           0
     17138 MEMB     149      POPE     H5X      HAL2     0.900000E-01   1.00800           0
     17139 MEMB     149      POPE     H5Y      HAL2     0.900000E-01   1.00800           0
     17140 MEMB     149      POPE     C36      CTL2    -0.180000       12.0110           0
     17141 MEMB     149      POPE     H6X      HAL2     0.900000E-01   1.00800           0
     17142 MEMB     149      POPE     H6Y      HAL2     0.900000E-01   1.00800           0
     17143 MEMB     149      POPE     C37      CTL2    -0.180000       12.0110           0
     17144 MEMB     149      POPE     H7X      HAL2     0.900000E-01   1.00800           0
     17145 MEMB     149      POPE     H7Y      HAL2     0.900000E-01   1.00800           0
     17146 MEMB     149      POPE     C38      CTL2    -0.180000       12.0110           0
     17147 MEMB     149      POPE     H8X      HAL2     0.900000E-01   1.00800           0
     17148 MEMB     149      POPE     H8Y      HAL2     0.900000E-01   1.00800           0
     17149 MEMB     149      POPE     C39      CTL2    -0.180000       12.0110           0
     17150 MEMB     149      POPE     H9X      HAL2     0.900000E-01   1.00800           0
     17151 MEMB     149      POPE     H9Y      HAL2     0.900000E-01   1.00800           0
     17152 MEMB     149      POPE     C310     CTL2    -0.180000       12.0110           0
     17153 MEMB     149      POPE     H10X     HAL2     0.900000E-01   1.00800           0
     17154 MEMB     149      POPE     H10Y     HAL2     0.900000E-01   1.00800           0
     17155 MEMB     149      POPE     C311     CTL2    -0.180000       12.0110           0
     17156 MEMB     149      POPE     H11X     HAL2     0.900000E-01   1.00800           0
     17157 MEMB     149      POPE     H11Y     HAL2     0.900000E-01   1.00800           0
     17158 MEMB     149      POPE     C312     CTL2    -0.180000       12.0110           0
     17159 MEMB     149      POPE     H12X     HAL2     0.900000E-01   1.00800           0
     17160 MEMB     149      POPE     H12Y     HAL2     0.900000E-01   1.00800           0
     17161 MEMB     149      POPE     C313     CTL2    -0.180000       12.0110           0
     17162 MEMB     149      POPE     H13X     HAL2     0.900000E-01   1.00800           0
     17163 MEMB     149      POPE     H13Y     HAL2     0.900000E-01   1.00800           0
     17164 MEMB     149      POPE     C314     CTL2    -0.180000       12.0110           0
     17165 MEMB     149      POPE     H14X     HAL2     0.900000E-01   1.00800           0
     17166 MEMB     149      POPE     H14Y     HAL2     0.900000E-01   1.00800           0
     17167 MEMB     149      POPE     C315     CTL2    -0.180000       12.0110           0
     17168 MEMB     149      POPE     H15X     HAL2     0.900000E-01   1.00800           0
     17169 MEMB     149      POPE     H15Y     HAL2     0.900000E-01   1.00800           0
     17170 MEMB     149      POPE     C316     CTL3    -0.270000       12.0110           0
     17171 MEMB     149      POPE     H16X     HAL3     0.900000E-01   1.00800           0
     17172 MEMB     149      POPE     H16Y     HAL3     0.900000E-01   1.00800           0
     17173 MEMB     149      POPE     H16Z     HAL3     0.900000E-01   1.00800           0
     17174 MEMB     150      POPC     N        NTL     -0.600000       14.0070           0
     17175 MEMB     150      POPC     C12      CTL2    -0.100000       12.0110           0
     17176 MEMB     150      POPC     H12A     HL       0.250000       1.00800           0
     17177 MEMB     150      POPC     H12B     HL       0.250000       1.00800           0
     17178 MEMB     150      POPC     C13      CTL5    -0.350000       12.0110           0
     17179 MEMB     150      POPC     H13A     HL       0.250000       1.00800           0
     17180 MEMB     150      POPC     H13B     HL       0.250000       1.00800           0
     17181 MEMB     150      POPC     H13C     HL       0.250000       1.00800           0
     17182 MEMB     150      POPC     C14      CTL5    -0.350000       12.0110           0
     17183 MEMB     150      POPC     H14A     HL       0.250000       1.00800           0
     17184 MEMB     150      POPC     H14B     HL       0.250000       1.00800           0
     17185 MEMB     150      POPC     H14C     HL       0.250000       1.00800           0
     17186 MEMB     150      POPC     C15      CTL5    -0.350000       12.0110           0
     17187 MEMB     150      POPC     H15A     HL       0.250000       1.00800           0
     17188 MEMB     150      POPC     H15B     HL       0.250000       1.00800           0
     17189 MEMB     150      POPC     H15C     HL       0.250000       1.00800           0
     17190 MEMB     150      POPC     C11      CTL2    -0.800000E-01   12.0110           0
     17191 MEMB     150      POPC     H11A     HAL2     0.900000E-01   1.00800           0
     17192 MEMB     150      POPC     H11B     HAL2     0.900000E-01   1.00800           0
     17193 MEMB     150      POPC     P        PL        1.50000       30.9740           0
     17194 MEMB     150      POPC     O13      O2L     -0.780000       15.9994           0
     17195 MEMB     150      POPC     O14      O2L     -0.780000       15.9994           0
     17196 MEMB     150      POPC     O12      OSLP    -0.570000       15.9994           0
     17197 MEMB     150      POPC     O11      OSLP    -0.570000       15.9994           0
     17198 MEMB     150      POPC     C1       CTL2    -0.800000E-01   12.0110           0
     17199 MEMB     150      POPC     HA       HAL2     0.900000E-01   1.00800           0
     17200 MEMB     150      POPC     HB       HAL2     0.900000E-01   1.00800           0
     17201 MEMB     150      POPC     C2       CTL1     0.170000       12.0110           0
     17202 MEMB     150      POPC     HS       HAL1     0.900000E-01   1.00800           0
     17203 MEMB     150      POPC     O21      OSL     -0.490000       15.9994           0
     17204 MEMB     150      POPC     C21      CL       0.900000       12.0110           0
     17205 MEMB     150      POPC     O22      OBL     -0.630000       15.9994           0
     17206 MEMB     150      POPC     C22      CTL2    -0.220000       12.0110           0
     17207 MEMB     150      POPC     H2R      HAL2     0.900000E-01   1.00800           0
     17208 MEMB     150      POPC     H2S      HAL2     0.900000E-01   1.00800           0
     17209 MEMB     150      POPC     C3       CTL2     0.800000E-01   12.0110           0
     17210 MEMB     150      POPC     HX       HAL2     0.900000E-01   1.00800           0
     17211 MEMB     150      POPC     HY       HAL2     0.900000E-01   1.00800           0
     17212 MEMB     150      POPC     O31      OSL     -0.490000       15.9994           0
     17213 MEMB     150      POPC     C31      CL       0.900000       12.0110           0
     17214 MEMB     150      POPC     O32      OBL     -0.630000       15.9994           0
     17215 MEMB     150      POPC     C32      CTL2    -0.220000       12.0110           0
     17216 MEMB     150      POPC     H2X      HAL2     0.900000E-01   1.00800           0
     17217 MEMB     150      POPC     H2Y      HAL2     0.900000E-01   1.00800           0
     17218 MEMB     150      POPC     C23      CTL2    -0.180000       12.0110           0
     17219 MEMB     150      POPC     H3R      HAL2     0.900000E-01   1.00800           0
     17220 MEMB     150      POPC     H3S      HAL2     0.900000E-01   1.00800           0
     17221 MEMB     150      POPC     C24      CTL2    -0.180000       12.0110           0
     17222 MEMB     150      POPC     H4R      HAL2     0.900000E-01   1.00800           0
     17223 MEMB     150      POPC     H4S      HAL2     0.900000E-01   1.00800           0
     17224 MEMB     150      POPC     C25      CTL2    -0.180000       12.0110           0
     17225 MEMB     150      POPC     H5R      HAL2     0.900000E-01   1.00800           0
     17226 MEMB     150      POPC     H5S      HAL2     0.900000E-01   1.00800           0
     17227 MEMB     150      POPC     C26      CTL2    -0.180000       12.0110           0
     17228 MEMB     150      POPC     H6R      HAL2     0.900000E-01   1.00800           0
     17229 MEMB     150      POPC     H6S      HAL2     0.900000E-01   1.00800           0
     17230 MEMB     150      POPC     C27      CTL2    -0.180000       12.0110           0
     17231 MEMB     150      POPC     H7R      HAL2     0.900000E-01   1.00800           0
     17232 MEMB     150      POPC     H7S      HAL2     0.900000E-01   1.00800           0
     17233 MEMB     150      POPC     C28      CTL2    -0.180000       12.0110           0
     17234 MEMB     150      POPC     H8R      HAL2     0.900000E-01   1.00800           0
     17235 MEMB     150      POPC     H8S      HAL2     0.900000E-01   1.00800           0
     17236 MEMB     150      POPC     C29      CEL1    -0.150000       12.0110           0
     17237 MEMB     150      POPC     H91      HEL1     0.150000       1.00800           0
     17238 MEMB     150      POPC     C210     CEL1    -0.150000       12.0110           0
     17239 MEMB     150      POPC     H101     HEL1     0.150000       1.00800           0
     17240 MEMB     150      POPC     C211     CTL2    -0.180000       12.0110           0
     17241 MEMB     150      POPC     H11R     HAL2     0.900000E-01   1.00800           0
     17242 MEMB     150      POPC     H11S     HAL2     0.900000E-01   1.00800           0
     17243 MEMB     150      POPC     C212     CTL2    -0.180000       12.0110           0
     17244 MEMB     150      POPC     H12R     HAL2     0.900000E-01   1.00800           0
     17245 MEMB     150      POPC     H12S     HAL2     0.900000E-01   1.00800           0
     17246 MEMB     150      POPC     C213     CTL2    -0.180000       12.0110           0
     17247 MEMB     150      POPC     H13R     HAL2     0.900000E-01   1.00800           0
     17248 MEMB     150      POPC     H13S     HAL2     0.900000E-01   1.00800           0
     17249 MEMB     150      POPC     C214     CTL2    -0.180000       12.0110           0
     17250 MEMB     150      POPC     H14R     HAL2     0.900000E-01   1.00800           0
     17251 MEMB     150      POPC     H14S     HAL2     0.900000E-01   1.00800           0
     17252 MEMB     150      POPC     C215     CTL2    -0.180000       12.0110           0
     17253 MEMB     150      POPC     H15R     HAL2     0.900000E-01   1.00800           0
     17254 MEMB     150      POPC     H15S     HAL2     0.900000E-01   1.00800           0
     17255 MEMB     150      POPC     C216     CTL2    -0.180000       12.0110           0
     17256 MEMB     150      POPC     H16R     HAL2     0.900000E-01   1.00800           0
     17257 MEMB     150      POPC     H16S     HAL2     0.900000E-01   1.00800           0
     17258 MEMB     150      POPC     C217     CTL2    -0.180000       12.0110           0
     17259 MEMB     150      POPC     H17R     HAL2     0.900000E-01   1.00800           0
     17260 MEMB     150      POPC     H17S     HAL2     0.900000E-01   1.00800           0
     17261 MEMB     150      POPC     C218     CTL3    -0.270000       12.0110           0
     17262 MEMB     150      POPC     H18R     HAL3     0.900000E-01   1.00800           0
     17263 MEMB     150      POPC     H18S     HAL3     0.900000E-01   1.00800           0
     17264 MEMB     150      POPC     H18T     HAL3     0.900000E-01   1.00800           0
     17265 MEMB     150      POPC     C33      CTL2    -0.180000       12.0110           0
     17266 MEMB     150      POPC     H3X      HAL2     0.900000E-01   1.00800           0
     17267 MEMB     150      POPC     H3Y      HAL2     0.900000E-01   1.00800           0
     17268 MEMB     150      POPC     C34      CTL2    -0.180000       12.0110           0
     17269 MEMB     150      POPC     H4X      HAL2     0.900000E-01   1.00800           0
     17270 MEMB     150      POPC     H4Y      HAL2     0.900000E-01   1.00800           0
     17271 MEMB     150      POPC     C35      CTL2    -0.180000       12.0110           0
     17272 MEMB     150      POPC     H5X      HAL2     0.900000E-01   1.00800           0
     17273 MEMB     150      POPC     H5Y      HAL2     0.900000E-01   1.00800           0
     17274 MEMB     150      POPC     C36      CTL2    -0.180000       12.0110           0
     17275 MEMB     150      POPC     H6X      HAL2     0.900000E-01   1.00800           0
     17276 MEMB     150      POPC     H6Y      HAL2     0.900000E-01   1.00800           0
     17277 MEMB     150      POPC     C37      CTL2    -0.180000       12.0110           0
     17278 MEMB     150      POPC     H7X      HAL2     0.900000E-01   1.00800           0
     17279 MEMB     150      POPC     H7Y      HAL2     0.900000E-01   1.00800           0
     17280 MEMB     150      POPC     C38      CTL2    -0.180000       12.0110           0
     17281 MEMB     150      POPC     H8X      HAL2     0.900000E-01   1.00800           0
     17282 MEMB     150      POPC     H8Y      HAL2     0.900000E-01   1.00800           0
     17283 MEMB     150      POPC     C39      CTL2    -0.180000       12.0110           0
     17284 MEMB     150      POPC     H9X      HAL2     0.900000E-01   1.00800           0
     17285 MEMB     150      POPC     H9Y      HAL2     0.900000E-01   1.00800           0
     17286 MEMB     150      POPC     C310     CTL2    -0.180000       12.0110           0
     17287 MEMB     150      POPC     H10X     HAL2     0.900000E-01   1.00800           0
     17288 MEMB     150      POPC     H10Y     HAL2     0.900000E-01   1.00800           0
     17289 MEMB     150      POPC     C311     CTL2    -0.180000       12.0110           0
     17290 MEMB     150      POPC     H11X     HAL2     0.900000E-01   1.00800           0
     17291 MEMB     150      POPC     H11Y     HAL2     0.900000E-01   1.00800           0
     17292 MEMB     150      POPC     C312     CTL2    -0.180000       12.0110           0
     17293 MEMB     150      POPC     H12X     HAL2     0.900000E-01   1.00800           0
     17294 MEMB     150      POPC     H12Y     HAL2     0.900000E-01   1.00800           0
     17295 MEMB     150      POPC     C313     CTL2    -0.180000       12.0110           0
     17296 MEMB     150      POPC     H13X     HAL2     0.900000E-01   1.00800           0
     17297 MEMB     150      POPC     H13Y     HAL2     0.900000E-01   1.00800           0
     17298 MEMB     150      POPC     C314     CTL2    -0.180000       12.0110           0
     17299 MEMB     150      POPC     H14X     HAL2     0.900000E-01   1.00800           0
     17300 MEMB     150      POPC     H14Y     HAL2     0.900000E-01   1.00800           0
     17301 MEMB     150      POPC     C315     CTL2    -0.180000       12.0110           0
     17302 MEMB     150      POPC     H15X     HAL2     0.900000E-01   1.00800           0
     17303 MEMB     150      POPC     H15Y     HAL2     0.900000E-01   1.00800           0
     17304 MEMB     150      POPC     C316     CTL3    -0.270000       12.0110           0
     17305 MEMB     150      POPC     H16X     HAL3     0.900000E-01   1.00800           0
     17306 MEMB     150      POPC     H16Y     HAL3     0.900000E-01   1.00800           0
     17307 MEMB     150      POPC     H16Z     HAL3     0.900000E-01   1.00800           0
     17308 MEMB     151      POPE     N        NH3L    -0.300000       14.0070           0
     17309 MEMB     151      POPE     HN1      HCL      0.330000       1.00800           0
     17310 MEMB     151      POPE     HN2      HCL      0.330000       1.00800           0
     17311 MEMB     151      POPE     HN3      HCL      0.330000       1.00800           0
     17312 MEMB     151      POPE     C12      CTL2     0.130000       12.0110           0
     17313 MEMB     151      POPE     H12A     HAL2     0.900000E-01   1.00800           0
     17314 MEMB     151      POPE     H12B     HAL2     0.900000E-01   1.00800           0
     17315 MEMB     151      POPE     C11      CTL2    -0.800000E-01   12.0110           0
     17316 MEMB     151      POPE     H11A     HAL2     0.900000E-01   1.00800           0
     17317 MEMB     151      POPE     H11B     HAL2     0.900000E-01   1.00800           0
     17318 MEMB     151      POPE     P        PL        1.50000       30.9740           0
     17319 MEMB     151      POPE     O13      O2L     -0.780000       15.9994           0
     17320 MEMB     151      POPE     O14      O2L     -0.780000       15.9994           0
     17321 MEMB     151      POPE     O11      OSLP    -0.570000       15.9994           0
     17322 MEMB     151      POPE     O12      OSLP    -0.570000       15.9994           0
     17323 MEMB     151      POPE     C1       CTL2    -0.800000E-01   12.0110           0
     17324 MEMB     151      POPE     HA       HAL2     0.900000E-01   1.00800           0
     17325 MEMB     151      POPE     HB       HAL2     0.900000E-01   1.00800           0
     17326 MEMB     151      POPE     C2       CTL1     0.170000       12.0110           0
     17327 MEMB     151      POPE     HS       HAL1     0.900000E-01   1.00800           0
     17328 MEMB     151      POPE     O21      OSL     -0.490000       15.9994           0
     17329 MEMB     151      POPE     C21      CL       0.900000       12.0110           0
     17330 MEMB     151      POPE     O22      OBL     -0.630000       15.9994           0
     17331 MEMB     151      POPE     C22      CTL2    -0.220000       12.0110           0
     17332 MEMB     151      POPE     H2R      HAL2     0.900000E-01   1.00800           0
     17333 MEMB     151      POPE     H2S      HAL2     0.900000E-01   1.00800           0
     17334 MEMB     151      POPE     C3       CTL2     0.800000E-01   12.0110           0
     17335 MEMB     151      POPE     HX       HAL2     0.900000E-01   1.00800           0
     17336 MEMB     151      POPE     HY       HAL2     0.900000E-01   1.00800           0
     17337 MEMB     151      POPE     O31      OSL     -0.490000       15.9994           0
     17338 MEMB     151      POPE     C31      CL       0.900000       12.0110           0
     17339 MEMB     151      POPE     O32      OBL     -0.630000       15.9994           0
     17340 MEMB     151      POPE     C32      CTL2    -0.220000       12.0110           0
     17341 MEMB     151      POPE     H2X      HAL2     0.900000E-01   1.00800           0
     17342 MEMB     151      POPE     H2Y      HAL2     0.900000E-01   1.00800           0
     17343 MEMB     151      POPE     C23      CTL2    -0.180000       12.0110           0
     17344 MEMB     151      POPE     H3R      HAL2     0.900000E-01   1.00800           0
     17345 MEMB     151      POPE     H3S      HAL2     0.900000E-01   1.00800           0
     17346 MEMB     151      POPE     C24      CTL2    -0.180000       12.0110           0
     17347 MEMB     151      POPE     H4R      HAL2     0.900000E-01   1.00800           0
     17348 MEMB     151      POPE     H4S      HAL2     0.900000E-01   1.00800           0
     17349 MEMB     151      POPE     C25      CTL2    -0.180000       12.0110           0
     17350 MEMB     151      POPE     H5R      HAL2     0.900000E-01   1.00800           0
     17351 MEMB     151      POPE     H5S      HAL2     0.900000E-01   1.00800           0
     17352 MEMB     151      POPE     C26      CTL2    -0.180000       12.0110           0
     17353 MEMB     151      POPE     H6R      HAL2     0.900000E-01   1.00800           0
     17354 MEMB     151      POPE     H6S      HAL2     0.900000E-01   1.00800           0
     17355 MEMB     151      POPE     C27      CTL2    -0.180000       12.0110           0
     17356 MEMB     151      POPE     H7R      HAL2     0.900000E-01   1.00800           0
     17357 MEMB     151      POPE     H7S      HAL2     0.900000E-01   1.00800           0
     17358 MEMB     151      POPE     C28      CTL2    -0.180000       12.0110           0
     17359 MEMB     151      POPE     H8R      HAL2     0.900000E-01   1.00800           0
     17360 MEMB     151      POPE     H8S      HAL2     0.900000E-01   1.00800           0
     17361 MEMB     151      POPE     C29      CEL1    -0.150000       12.0110           0
     17362 MEMB     151      POPE     H91      HEL1     0.150000       1.00800           0
     17363 MEMB     151      POPE     C210     CEL1    -0.150000       12.0110           0
     17364 MEMB     151      POPE     H101     HEL1     0.150000       1.00800           0
     17365 MEMB     151      POPE     C211     CTL2    -0.180000       12.0110           0
     17366 MEMB     151      POPE     H11R     HAL2     0.900000E-01   1.00800           0
     17367 MEMB     151      POPE     H11S     HAL2     0.900000E-01   1.00800           0
     17368 MEMB     151      POPE     C212     CTL2    -0.180000       12.0110           0
     17369 MEMB     151      POPE     H12R     HAL2     0.900000E-01   1.00800           0
     17370 MEMB     151      POPE     H12S     HAL2     0.900000E-01   1.00800           0
     17371 MEMB     151      POPE     C213     CTL2    -0.180000       12.0110           0
     17372 MEMB     151      POPE     H13R     HAL2     0.900000E-01   1.00800           0
     17373 MEMB     151      POPE     H13S     HAL2     0.900000E-01   1.00800           0
     17374 MEMB     151      POPE     C214     CTL2    -0.180000       12.0110           0
     17375 MEMB     151      POPE     H14R     HAL2     0.900000E-01   1.00800           0
     17376 MEMB     151      POPE     H14S     HAL2     0.900000E-01   1.00800           0
     17377 MEMB     151      POPE     C215     CTL2    -0.180000       12.0110           0
     17378 MEMB     151      POPE     H15R     HAL2     0.900000E-01   1.00800           0
     17379 MEMB     151      POPE     H15S     HAL2     0.900000E-01   1.00800           0
     17380 MEMB     151      POPE     C216     CTL2    -0.180000       12.0110           0
     17381 MEMB     151      POPE     H16R     HAL2     0.900000E-01   1.00800           0
     17382 MEMB     151      POPE     H16S     HAL2     0.900000E-01   1.00800           0
     17383 MEMB     151      POPE     C217     CTL2    -0.180000       12.0110           0
     17384 MEMB     151      POPE     H17R     HAL2     0.900000E-01   1.00800           0
     17385 MEMB     151      POPE     H17S     HAL2     0.900000E-01   1.00800           0
     17386 MEMB     151      POPE     C218     CTL3    -0.270000       12.0110           0
     17387 MEMB     151      POPE     H18R     HAL3     0.900000E-01   1.00800           0
     17388 MEMB     151      POPE     H18S     HAL3     0.900000E-01   1.00800           0
     17389 MEMB     151      POPE     H18T     HAL3     0.900000E-01   1.00800           0
     17390 MEMB     151      POPE     C33      CTL2    -0.180000       12.0110           0
     17391 MEMB     151      POPE     H3X      HAL2     0.900000E-01   1.00800           0
     17392 MEMB     151      POPE     H3Y      HAL2     0.900000E-01   1.00800           0
     17393 MEMB     151      POPE     C34      CTL2    -0.180000       12.0110           0
     17394 MEMB     151      POPE     H4X      HAL2     0.900000E-01   1.00800           0
     17395 MEMB     151      POPE     H4Y      HAL2     0.900000E-01   1.00800           0
     17396 MEMB     151      POPE     C35      CTL2    -0.180000       12.0110           0
     17397 MEMB     151      POPE     H5X      HAL2     0.900000E-01   1.00800           0
     17398 MEMB     151      POPE     H5Y      HAL2     0.900000E-01   1.00800           0
     17399 MEMB     151      POPE     C36      CTL2    -0.180000       12.0110           0
     17400 MEMB     151      POPE     H6X      HAL2     0.900000E-01   1.00800           0
     17401 MEMB     151      POPE     H6Y      HAL2     0.900000E-01   1.00800           0
     17402 MEMB     151      POPE     C37      CTL2    -0.180000       12.0110           0
     17403 MEMB     151      POPE     H7X      HAL2     0.900000E-01   1.00800           0
     17404 MEMB     151      POPE     H7Y      HAL2     0.900000E-01   1.00800           0
     17405 MEMB     151      POPE     C38      CTL2    -0.180000       12.0110           0
     17406 MEMB     151      POPE     H8X      HAL2     0.900000E-01   1.00800           0
     17407 MEMB     151      POPE     H8Y      HAL2     0.900000E-01   1.00800           0
     17408 MEMB     151      POPE     C39      CTL2    -0.180000       12.0110           0
     17409 MEMB     151      POPE     H9X      HAL2     0.900000E-01   1.00800           0
     17410 MEMB     151      POPE     H9Y      HAL2     0.900000E-01   1.00800           0
     17411 MEMB     151      POPE     C310     CTL2    -0.180000       12.0110           0
     17412 MEMB     151      POPE     H10X     HAL2     0.900000E-01   1.00800           0
     17413 MEMB     151      POPE     H10Y     HAL2     0.900000E-01   1.00800           0
     17414 MEMB     151      POPE     C311     CTL2    -0.180000       12.0110           0
     17415 MEMB     151      POPE     H11X     HAL2     0.900000E-01   1.00800           0
     17416 MEMB     151      POPE     H11Y     HAL2     0.900000E-01   1.00800           0
     17417 MEMB     151      POPE     C312     CTL2    -0.180000       12.0110           0
     17418 MEMB     151      POPE     H12X     HAL2     0.900000E-01   1.00800           0
     17419 MEMB     151      POPE     H12Y     HAL2     0.900000E-01   1.00800           0
     17420 MEMB     151      POPE     C313     CTL2    -0.180000       12.0110           0
     17421 MEMB     151      POPE     H13X     HAL2     0.900000E-01   1.00800           0
     17422 MEMB     151      POPE     H13Y     HAL2     0.900000E-01   1.00800           0
     17423 MEMB     151      POPE     C314     CTL2    -0.180000       12.0110           0
     17424 MEMB     151      POPE     H14X     HAL2     0.900000E-01   1.00800           0
     17425 MEMB     151      POPE     H14Y     HAL2     0.900000E-01   1.00800           0
     17426 MEMB     151      POPE     C315     CTL2    -0.180000       12.0110           0
     17427 MEMB     151      POPE     H15X     HAL2     0.900000E-01   1.00800           0
     17428 MEMB     151      POPE     H15Y     HAL2     0.900000E-01   1.00800           0
     17429 MEMB     151      POPE     C316     CTL3    -0.270000       12.0110           0
     17430 MEMB     151      POPE     H16X     HAL3     0.900000E-01   1.00800           0
     17431 MEMB     151      POPE     H16Y     HAL3     0.900000E-01   1.00800           0
     17432 MEMB     151      POPE     H16Z     HAL3     0.900000E-01   1.00800           0
     17433 MEMB     152      POPE     N        NH3L    -0.300000       14.0070           0
     17434 MEMB     152      POPE     HN1      HCL      0.330000       1.00800           0
     17435 MEMB     152      POPE     HN2      HCL      0.330000       1.00800           0
     17436 MEMB     152      POPE     HN3      HCL      0.330000       1.00800           0
     17437 MEMB     152      POPE     C12      CTL2     0.130000       12.0110           0
     17438 MEMB     152      POPE     H12A     HAL2     0.900000E-01   1.00800           0
     17439 MEMB     152      POPE     H12B     HAL2     0.900000E-01   1.00800           0
     17440 MEMB     152      POPE     C11      CTL2    -0.800000E-01   12.0110           0
     17441 MEMB     152      POPE     H11A     HAL2     0.900000E-01   1.00800           0
     17442 MEMB     152      POPE     H11B     HAL2     0.900000E-01   1.00800           0
     17443 MEMB     152      POPE     P        PL        1.50000       30.9740           0
     17444 MEMB     152      POPE     O13      O2L     -0.780000       15.9994           0
     17445 MEMB     152      POPE     O14      O2L     -0.780000       15.9994           0
     17446 MEMB     152      POPE     O11      OSLP    -0.570000       15.9994           0
     17447 MEMB     152      POPE     O12      OSLP    -0.570000       15.9994           0
     17448 MEMB     152      POPE     C1       CTL2    -0.800000E-01   12.0110           0
     17449 MEMB     152      POPE     HA       HAL2     0.900000E-01   1.00800           0
     17450 MEMB     152      POPE     HB       HAL2     0.900000E-01   1.00800           0
     17451 MEMB     152      POPE     C2       CTL1     0.170000       12.0110           0
     17452 MEMB     152      POPE     HS       HAL1     0.900000E-01   1.00800           0
     17453 MEMB     152      POPE     O21      OSL     -0.490000       15.9994           0
     17454 MEMB     152      POPE     C21      CL       0.900000       12.0110           0
     17455 MEMB     152      POPE     O22      OBL     -0.630000       15.9994           0
     17456 MEMB     152      POPE     C22      CTL2    -0.220000       12.0110           0
     17457 MEMB     152      POPE     H2R      HAL2     0.900000E-01   1.00800           0
     17458 MEMB     152      POPE     H2S      HAL2     0.900000E-01   1.00800           0
     17459 MEMB     152      POPE     C3       CTL2     0.800000E-01   12.0110           0
     17460 MEMB     152      POPE     HX       HAL2     0.900000E-01   1.00800           0
     17461 MEMB     152      POPE     HY       HAL2     0.900000E-01   1.00800           0
     17462 MEMB     152      POPE     O31      OSL     -0.490000       15.9994           0
     17463 MEMB     152      POPE     C31      CL       0.900000       12.0110           0
     17464 MEMB     152      POPE     O32      OBL     -0.630000       15.9994           0
     17465 MEMB     152      POPE     C32      CTL2    -0.220000       12.0110           0
     17466 MEMB     152      POPE     H2X      HAL2     0.900000E-01   1.00800           0
     17467 MEMB     152      POPE     H2Y      HAL2     0.900000E-01   1.00800           0
     17468 MEMB     152      POPE     C23      CTL2    -0.180000       12.0110           0
     17469 MEMB     152      POPE     H3R      HAL2     0.900000E-01   1.00800           0
     17470 MEMB     152      POPE     H3S      HAL2     0.900000E-01   1.00800           0
     17471 MEMB     152      POPE     C24      CTL2    -0.180000       12.0110           0
     17472 MEMB     152      POPE     H4R      HAL2     0.900000E-01   1.00800           0
     17473 MEMB     152      POPE     H4S      HAL2     0.900000E-01   1.00800           0
     17474 MEMB     152      POPE     C25      CTL2    -0.180000       12.0110           0
     17475 MEMB     152      POPE     H5R      HAL2     0.900000E-01   1.00800           0
     17476 MEMB     152      POPE     H5S      HAL2     0.900000E-01   1.00800           0
     17477 MEMB     152      POPE     C26      CTL2    -0.180000       12.0110           0
     17478 MEMB     152      POPE     H6R      HAL2     0.900000E-01   1.00800           0
     17479 MEMB     152      POPE     H6S      HAL2     0.900000E-01   1.00800           0
     17480 MEMB     152      POPE     C27      CTL2    -0.180000       12.0110           0
     17481 MEMB     152      POPE     H7R      HAL2     0.900000E-01   1.00800           0
     17482 MEMB     152      POPE     H7S      HAL2     0.900000E-01   1.00800           0
     17483 MEMB     152      POPE     C28      CTL2    -0.180000       12.0110           0
     17484 MEMB     152      POPE     H8R      HAL2     0.900000E-01   1.00800           0
     17485 MEMB     152      POPE     H8S      HAL2     0.900000E-01   1.00800           0
     17486 MEMB     152      POPE     C29      CEL1    -0.150000       12.0110           0
     17487 MEMB     152      POPE     H91      HEL1     0.150000       1.00800           0
     17488 MEMB     152      POPE     C210     CEL1    -0.150000       12.0110           0
     17489 MEMB     152      POPE     H101     HEL1     0.150000       1.00800           0
     17490 MEMB     152      POPE     C211     CTL2    -0.180000       12.0110           0
     17491 MEMB     152      POPE     H11R     HAL2     0.900000E-01   1.00800           0
     17492 MEMB     152      POPE     H11S     HAL2     0.900000E-01   1.00800           0
     17493 MEMB     152      POPE     C212     CTL2    -0.180000       12.0110           0
     17494 MEMB     152      POPE     H12R     HAL2     0.900000E-01   1.00800           0
     17495 MEMB     152      POPE     H12S     HAL2     0.900000E-01   1.00800           0
     17496 MEMB     152      POPE     C213     CTL2    -0.180000       12.0110           0
     17497 MEMB     152      POPE     H13R     HAL2     0.900000E-01   1.00800           0
     17498 MEMB     152      POPE     H13S     HAL2     0.900000E-01   1.00800           0
     17499 MEMB     152      POPE     C214     CTL2    -0.180000       12.0110           0
     17500 MEMB     152      POPE     H14R     HAL2     0.900000E-01   1.00800           0
     17501 MEMB     152      POPE     H14S     HAL2     0.900000E-01   1.00800           0
     17502 MEMB     152      POPE     C215     CTL2    -0.180000       12.0110           0
     17503 MEMB     152      POPE     H15R     HAL2     0.900000E-01   1.00800           0
     17504 MEMB     152      POPE     H15S     HAL2     0.900000E-01   1.00800           0
     17505 MEMB     152      POPE     C216     CTL2    -0.180000       12.0110           0
     17506 MEMB     152      POPE     H16R     HAL2     0.900000E-01   1.00800           0
     17507 MEMB     152      POPE     H16S     HAL2     0.900000E-01   1.00800           0
     17508 MEMB     152      POPE     C217     CTL2    -0.180000       12.0110           0
     17509 MEMB     152      POPE     H17R     HAL2     0.900000E-01   1.00800           0
     17510 MEMB     152      POPE     H17S     HAL2     0.900000E-01   1.00800           0
     17511 MEMB     152      POPE     C218     CTL3    -0.270000       12.0110           0
     17512 MEMB     152      POPE     H18R     HAL3     0.900000E-01   1.00800           0
     17513 MEMB     152      POPE     H18S     HAL3     0.900000E-01   1.00800           0
     17514 MEMB     152      POPE     H18T     HAL3     0.900000E-01   1.00800           0
     17515 MEMB     152      POPE     C33      CTL2    -0.180000       12.0110           0
     17516 MEMB     152      POPE     H3X      HAL2     0.900000E-01   1.00800           0
     17517 MEMB     152      POPE     H3Y      HAL2     0.900000E-01   1.00800           0
     17518 MEMB     152      POPE     C34      CTL2    -0.180000       12.0110           0
     17519 MEMB     152      POPE     H4X      HAL2     0.900000E-01   1.00800           0
     17520 MEMB     152      POPE     H4Y      HAL2     0.900000E-01   1.00800           0
     17521 MEMB     152      POPE     C35      CTL2    -0.180000       12.0110           0
     17522 MEMB     152      POPE     H5X      HAL2     0.900000E-01   1.00800           0
     17523 MEMB     152      POPE     H5Y      HAL2     0.900000E-01   1.00800           0
     17524 MEMB     152      POPE     C36      CTL2    -0.180000       12.0110           0
     17525 MEMB     152      POPE     H6X      HAL2     0.900000E-01   1.00800           0
     17526 MEMB     152      POPE     H6Y      HAL2     0.900000E-01   1.00800           0
     17527 MEMB     152      POPE     C37      CTL2    -0.180000       12.0110           0
     17528 MEMB     152      POPE     H7X      HAL2     0.900000E-01   1.00800           0
     17529 MEMB     152      POPE     H7Y      HAL2     0.900000E-01   1.00800           0
     17530 MEMB     152      POPE     C38      CTL2    -0.180000       12.0110           0
     17531 MEMB     152      POPE     H8X      HAL2     0.900000E-01   1.00800           0
     17532 MEMB     152      POPE     H8Y      HAL2     0.900000E-01   1.00800           0
     17533 MEMB     152      POPE     C39      CTL2    -0.180000       12.0110           0
     17534 MEMB     152      POPE     H9X      HAL2     0.900000E-01   1.00800           0
     17535 MEMB     152      POPE     H9Y      HAL2     0.900000E-01   1.00800           0
     17536 MEMB     152      POPE     C310     CTL2    -0.180000       12.0110           0
     17537 MEMB     152      POPE     H10X     HAL2     0.900000E-01   1.00800           0
     17538 MEMB     152      POPE     H10Y     HAL2     0.900000E-01   1.00800           0
     17539 MEMB     152      POPE     C311     CTL2    -0.180000       12.0110           0
     17540 MEMB     152      POPE     H11X     HAL2     0.900000E-01   1.00800           0
     17541 MEMB     152      POPE     H11Y     HAL2     0.900000E-01   1.00800           0
     17542 MEMB     152      POPE     C312     CTL2    -0.180000       12.0110           0
     17543 MEMB     152      POPE     H12X     HAL2     0.900000E-01   1.00800           0
     17544 MEMB     152      POPE     H12Y     HAL2     0.900000E-01   1.00800           0
     17545 MEMB     152      POPE     C313     CTL2    -0.180000       12.0110           0
     17546 MEMB     152      POPE     H13X     HAL2     0.900000E-01   1.00800           0
     17547 MEMB     152      POPE     H13Y     HAL2     0.900000E-01   1.00800           0
     17548 MEMB     152      POPE     C314     CTL2    -0.180000       12.0110           0
     17549 MEMB     152      POPE     H14X     HAL2     0.900000E-01   1.00800           0
     17550 MEMB     152      POPE     H14Y     HAL2     0.900000E-01   1.00800           0
     17551 MEMB     152      POPE     C315     CTL2    -0.180000       12.0110           0
     17552 MEMB     152      POPE     H15X     HAL2     0.900000E-01   1.00800           0
     17553 MEMB     152      POPE     H15Y     HAL2     0.900000E-01   1.00800           0
     17554 MEMB     152      POPE     C316     CTL3    -0.270000       12.0110           0
     17555 MEMB     152      POPE     H16X     HAL3     0.900000E-01   1.00800           0
     17556 MEMB     152      POPE     H16Y     HAL3     0.900000E-01   1.00800           0
     17557 MEMB     152      POPE     H16Z     HAL3     0.900000E-01   1.00800           0
     17558 MEMB     153      POPC     N        NTL     -0.600000       14.0070           0
     17559 MEMB     153      POPC     C12      CTL2    -0.100000       12.0110           0
     17560 MEMB     153      POPC     H12A     HL       0.250000       1.00800           0
     17561 MEMB     153      POPC     H12B     HL       0.250000       1.00800           0
     17562 MEMB     153      POPC     C13      CTL5    -0.350000       12.0110           0
     17563 MEMB     153      POPC     H13A     HL       0.250000       1.00800           0
     17564 MEMB     153      POPC     H13B     HL       0.250000       1.00800           0
     17565 MEMB     153      POPC     H13C     HL       0.250000       1.00800           0
     17566 MEMB     153      POPC     C14      CTL5    -0.350000       12.0110           0
     17567 MEMB     153      POPC     H14A     HL       0.250000       1.00800           0
     17568 MEMB     153      POPC     H14B     HL       0.250000       1.00800           0
     17569 MEMB     153      POPC     H14C     HL       0.250000       1.00800           0
     17570 MEMB     153      POPC     C15      CTL5    -0.350000       12.0110           0
     17571 MEMB     153      POPC     H15A     HL       0.250000       1.00800           0
     17572 MEMB     153      POPC     H15B     HL       0.250000       1.00800           0
     17573 MEMB     153      POPC     H15C     HL       0.250000       1.00800           0
     17574 MEMB     153      POPC     C11      CTL2    -0.800000E-01   12.0110           0
     17575 MEMB     153      POPC     H11A     HAL2     0.900000E-01   1.00800           0
     17576 MEMB     153      POPC     H11B     HAL2     0.900000E-01   1.00800           0
     17577 MEMB     153      POPC     P        PL        1.50000       30.9740           0
     17578 MEMB     153      POPC     O13      O2L     -0.780000       15.9994           0
     17579 MEMB     153      POPC     O14      O2L     -0.780000       15.9994           0
     17580 MEMB     153      POPC     O12      OSLP    -0.570000       15.9994           0
     17581 MEMB     153      POPC     O11      OSLP    -0.570000       15.9994           0
     17582 MEMB     153      POPC     C1       CTL2    -0.800000E-01   12.0110           0
     17583 MEMB     153      POPC     HA       HAL2     0.900000E-01   1.00800           0
     17584 MEMB     153      POPC     HB       HAL2     0.900000E-01   1.00800           0
     17585 MEMB     153      POPC     C2       CTL1     0.170000       12.0110           0
     17586 MEMB     153      POPC     HS       HAL1     0.900000E-01   1.00800           0
     17587 MEMB     153      POPC     O21      OSL     -0.490000       15.9994           0
     17588 MEMB     153      POPC     C21      CL       0.900000       12.0110           0
     17589 MEMB     153      POPC     O22      OBL     -0.630000       15.9994           0
     17590 MEMB     153      POPC     C22      CTL2    -0.220000       12.0110           0
     17591 MEMB     153      POPC     H2R      HAL2     0.900000E-01   1.00800           0
     17592 MEMB     153      POPC     H2S      HAL2     0.900000E-01   1.00800           0
     17593 MEMB     153      POPC     C3       CTL2     0.800000E-01   12.0110           0
     17594 MEMB     153      POPC     HX       HAL2     0.900000E-01   1.00800           0
     17595 MEMB     153      POPC     HY       HAL2     0.900000E-01   1.00800           0
     17596 MEMB     153      POPC     O31      OSL     -0.490000       15.9994           0
     17597 MEMB     153      POPC     C31      CL       0.900000       12.0110           0
     17598 MEMB     153      POPC     O32      OBL     -0.630000       15.9994           0
     17599 MEMB     153      POPC     C32      CTL2    -0.220000       12.0110           0
     17600 MEMB     153      POPC     H2X      HAL2     0.900000E-01   1.00800           0
     17601 MEMB     153      POPC     H2Y      HAL2     0.900000E-01   1.00800           0
     17602 MEMB     153      POPC     C23      CTL2    -0.180000       12.0110           0
     17603 MEMB     153      POPC     H3R      HAL2     0.900000E-01   1.00800           0
     17604 MEMB     153      POPC     H3S      HAL2     0.900000E-01   1.00800           0
     17605 MEMB     153      POPC     C24      CTL2    -0.180000       12.0110           0
     17606 MEMB     153      POPC     H4R      HAL2     0.900000E-01   1.00800           0
     17607 MEMB     153      POPC     H4S      HAL2     0.900000E-01   1.00800           0
     17608 MEMB     153      POPC     C25      CTL2    -0.180000       12.0110           0
     17609 MEMB     153      POPC     H5R      HAL2     0.900000E-01   1.00800           0
     17610 MEMB     153      POPC     H5S      HAL2     0.900000E-01   1.00800           0
     17611 MEMB     153      POPC     C26      CTL2    -0.180000       12.0110           0
     17612 MEMB     153      POPC     H6R      HAL2     0.900000E-01   1.00800           0
     17613 MEMB     153      POPC     H6S      HAL2     0.900000E-01   1.00800           0
     17614 MEMB     153      POPC     C27      CTL2    -0.180000       12.0110           0
     17615 MEMB     153      POPC     H7R      HAL2     0.900000E-01   1.00800           0
     17616 MEMB     153      POPC     H7S      HAL2     0.900000E-01   1.00800           0
     17617 MEMB     153      POPC     C28      CTL2    -0.180000       12.0110           0
     17618 MEMB     153      POPC     H8R      HAL2     0.900000E-01   1.00800           0
     17619 MEMB     153      POPC     H8S      HAL2     0.900000E-01   1.00800           0
     17620 MEMB     153      POPC     C29      CEL1    -0.150000       12.0110           0
     17621 MEMB     153      POPC     H91      HEL1     0.150000       1.00800           0
     17622 MEMB     153      POPC     C210     CEL1    -0.150000       12.0110           0
     17623 MEMB     153      POPC     H101     HEL1     0.150000       1.00800           0
     17624 MEMB     153      POPC     C211     CTL2    -0.180000       12.0110           0
     17625 MEMB     153      POPC     H11R     HAL2     0.900000E-01   1.00800           0
     17626 MEMB     153      POPC     H11S     HAL2     0.900000E-01   1.00800           0
     17627 MEMB     153      POPC     C212     CTL2    -0.180000       12.0110           0
     17628 MEMB     153      POPC     H12R     HAL2     0.900000E-01   1.00800           0
     17629 MEMB     153      POPC     H12S     HAL2     0.900000E-01   1.00800           0
     17630 MEMB     153      POPC     C213     CTL2    -0.180000       12.0110           0
     17631 MEMB     153      POPC     H13R     HAL2     0.900000E-01   1.00800           0
     17632 MEMB     153      POPC     H13S     HAL2     0.900000E-01   1.00800           0
     17633 MEMB     153      POPC     C214     CTL2    -0.180000       12.0110           0
     17634 MEMB     153      POPC     H14R     HAL2     0.900000E-01   1.00800           0
     17635 MEMB     153      POPC     H14S     HAL2     0.900000E-01   1.00800           0
     17636 MEMB     153      POPC     C215     CTL2    -0.180000       12.0110           0
     17637 MEMB     153      POPC     H15R     HAL2     0.900000E-01   1.00800           0
     17638 MEMB     153      POPC     H15S     HAL2     0.900000E-01   1.00800           0
     17639 MEMB     153      POPC     C216     CTL2    -0.180000       12.0110           0
     17640 MEMB     153      POPC     H16R     HAL2     0.900000E-01   1.00800           0
     17641 MEMB     153      POPC     H16S     HAL2     0.900000E-01   1.00800           0
     17642 MEMB     153      POPC     C217     CTL2    -0.180000       12.0110           0
     17643 MEMB     153      POPC     H17R     HAL2     0.900000E-01   1.00800           0
     17644 MEMB     153      POPC     H17S     HAL2     0.900000E-01   1.00800           0
     17645 MEMB     153      POPC     C218     CTL3    -0.270000       12.0110           0
     17646 MEMB     153      POPC     H18R     HAL3     0.900000E-01   1.00800           0
     17647 MEMB     153      POPC     H18S     HAL3     0.900000E-01   1.00800           0
     17648 MEMB     153      POPC     H18T     HAL3     0.900000E-01   1.00800           0
     17649 MEMB     153      POPC     C33      CTL2    -0.180000       12.0110           0
     17650 MEMB     153      POPC     H3X      HAL2     0.900000E-01   1.00800           0
     17651 MEMB     153      POPC     H3Y      HAL2     0.900000E-01   1.00800           0
     17652 MEMB     153      POPC     C34      CTL2    -0.180000       12.0110           0
     17653 MEMB     153      POPC     H4X      HAL2     0.900000E-01   1.00800           0
     17654 MEMB     153      POPC     H4Y      HAL2     0.900000E-01   1.00800           0
     17655 MEMB     153      POPC     C35      CTL2    -0.180000       12.0110           0
     17656 MEMB     153      POPC     H5X      HAL2     0.900000E-01   1.00800           0
     17657 MEMB     153      POPC     H5Y      HAL2     0.900000E-01   1.00800           0
     17658 MEMB     153      POPC     C36      CTL2    -0.180000       12.0110           0
     17659 MEMB     153      POPC     H6X      HAL2     0.900000E-01   1.00800           0
     17660 MEMB     153      POPC     H6Y      HAL2     0.900000E-01   1.00800           0
     17661 MEMB     153      POPC     C37      CTL2    -0.180000       12.0110           0
     17662 MEMB     153      POPC     H7X      HAL2     0.900000E-01   1.00800           0
     17663 MEMB     153      POPC     H7Y      HAL2     0.900000E-01   1.00800           0
     17664 MEMB     153      POPC     C38      CTL2    -0.180000       12.0110           0
     17665 MEMB     153      POPC     H8X      HAL2     0.900000E-01   1.00800           0
     17666 MEMB     153      POPC     H8Y      HAL2     0.900000E-01   1.00800           0
     17667 MEMB     153      POPC     C39      CTL2    -0.180000       12.0110           0
     17668 MEMB     153      POPC     H9X      HAL2     0.900000E-01   1.00800           0
     17669 MEMB     153      POPC     H9Y      HAL2     0.900000E-01   1.00800           0
     17670 MEMB     153      POPC     C310     CTL2    -0.180000       12.0110           0
     17671 MEMB     153      POPC     H10X     HAL2     0.900000E-01   1.00800           0
     17672 MEMB     153      POPC     H10Y     HAL2     0.900000E-01   1.00800           0
     17673 MEMB     153      POPC     C311     CTL2    -0.180000       12.0110           0
     17674 MEMB     153      POPC     H11X     HAL2     0.900000E-01   1.00800           0
     17675 MEMB     153      POPC     H11Y     HAL2     0.900000E-01   1.00800           0
     17676 MEMB     153      POPC     C312     CTL2    -0.180000       12.0110           0
     17677 MEMB     153      POPC     H12X     HAL2     0.900000E-01   1.00800           0
     17678 MEMB     153      POPC     H12Y     HAL2     0.900000E-01   1.00800           0
     17679 MEMB     153      POPC     C313     CTL2    -0.180000       12.0110           0
     17680 MEMB     153      POPC     H13X     HAL2     0.900000E-01   1.00800           0
     17681 MEMB     153      POPC     H13Y     HAL2     0.900000E-01   1.00800           0
     17682 MEMB     153      POPC     C314     CTL2    -0.180000       12.0110           0
     17683 MEMB     153      POPC     H14X     HAL2     0.900000E-01   1.00800           0
     17684 MEMB     153      POPC     H14Y     HAL2     0.900000E-01   1.00800           0
     17685 MEMB     153      POPC     C315     CTL2    -0.180000       12.0110           0
     17686 MEMB     153      POPC     H15X     HAL2     0.900000E-01   1.00800           0
     17687 MEMB     153      POPC     H15Y     HAL2     0.900000E-01   1.00800           0
     17688 MEMB     153      POPC     C316     CTL3    -0.270000       12.0110           0
     17689 MEMB     153      POPC     H16X     HAL3     0.900000E-01   1.00800           0
     17690 MEMB     153      POPC     H16Y     HAL3     0.900000E-01   1.00800           0
     17691 MEMB     153      POPC     H16Z     HAL3     0.900000E-01   1.00800           0
     17692 MEMB     154      POPC     N        NTL     -0.600000       14.0070           0
     17693 MEMB     154      POPC     C12      CTL2    -0.100000       12.0110           0
     17694 MEMB     154      POPC     H12A     HL       0.250000       1.00800           0
     17695 MEMB     154      POPC     H12B     HL       0.250000       1.00800           0
     17696 MEMB     154      POPC     C13      CTL5    -0.350000       12.0110           0
     17697 MEMB     154      POPC     H13A     HL       0.250000       1.00800           0
     17698 MEMB     154      POPC     H13B     HL       0.250000       1.00800           0
     17699 MEMB     154      POPC     H13C     HL       0.250000       1.00800           0
     17700 MEMB     154      POPC     C14      CTL5    -0.350000       12.0110           0
     17701 MEMB     154      POPC     H14A     HL       0.250000       1.00800           0
     17702 MEMB     154      POPC     H14B     HL       0.250000       1.00800           0
     17703 MEMB     154      POPC     H14C     HL       0.250000       1.00800           0
     17704 MEMB     154      POPC     C15      CTL5    -0.350000       12.0110           0
     17705 MEMB     154      POPC     H15A     HL       0.250000       1.00800           0
     17706 MEMB     154      POPC     H15B     HL       0.250000       1.00800           0
     17707 MEMB     154      POPC     H15C     HL       0.250000       1.00800           0
     17708 MEMB     154      POPC     C11      CTL2    -0.800000E-01   12.0110           0
     17709 MEMB     154      POPC     H11A     HAL2     0.900000E-01   1.00800           0
     17710 MEMB     154      POPC     H11B     HAL2     0.900000E-01   1.00800           0
     17711 MEMB     154      POPC     P        PL        1.50000       30.9740           0
     17712 MEMB     154      POPC     O13      O2L     -0.780000       15.9994           0
     17713 MEMB     154      POPC     O14      O2L     -0.780000       15.9994           0
     17714 MEMB     154      POPC     O12      OSLP    -0.570000       15.9994           0
     17715 MEMB     154      POPC     O11      OSLP    -0.570000       15.9994           0
     17716 MEMB     154      POPC     C1       CTL2    -0.800000E-01   12.0110           0
     17717 MEMB     154      POPC     HA       HAL2     0.900000E-01   1.00800           0
     17718 MEMB     154      POPC     HB       HAL2     0.900000E-01   1.00800           0
     17719 MEMB     154      POPC     C2       CTL1     0.170000       12.0110           0
     17720 MEMB     154      POPC     HS       HAL1     0.900000E-01   1.00800           0
     17721 MEMB     154      POPC     O21      OSL     -0.490000       15.9994           0
     17722 MEMB     154      POPC     C21      CL       0.900000       12.0110           0
     17723 MEMB     154      POPC     O22      OBL     -0.630000       15.9994           0
     17724 MEMB     154      POPC     C22      CTL2    -0.220000       12.0110           0
     17725 MEMB     154      POPC     H2R      HAL2     0.900000E-01   1.00800           0
     17726 MEMB     154      POPC     H2S      HAL2     0.900000E-01   1.00800           0
     17727 MEMB     154      POPC     C3       CTL2     0.800000E-01   12.0110           0
     17728 MEMB     154      POPC     HX       HAL2     0.900000E-01   1.00800           0
     17729 MEMB     154      POPC     HY       HAL2     0.900000E-01   1.00800           0
     17730 MEMB     154      POPC     O31      OSL     -0.490000       15.9994           0
     17731 MEMB     154      POPC     C31      CL       0.900000       12.0110           0
     17732 MEMB     154      POPC     O32      OBL     -0.630000       15.9994           0
     17733 MEMB     154      POPC     C32      CTL2    -0.220000       12.0110           0
     17734 MEMB     154      POPC     H2X      HAL2     0.900000E-01   1.00800           0
     17735 MEMB     154      POPC     H2Y      HAL2     0.900000E-01   1.00800           0
     17736 MEMB     154      POPC     C23      CTL2    -0.180000       12.0110           0
     17737 MEMB     154      POPC     H3R      HAL2     0.900000E-01   1.00800           0
     17738 MEMB     154      POPC     H3S      HAL2     0.900000E-01   1.00800           0
     17739 MEMB     154      POPC     C24      CTL2    -0.180000       12.0110           0
     17740 MEMB     154      POPC     H4R      HAL2     0.900000E-01   1.00800           0
     17741 MEMB     154      POPC     H4S      HAL2     0.900000E-01   1.00800           0
     17742 MEMB     154      POPC     C25      CTL2    -0.180000       12.0110           0
     17743 MEMB     154      POPC     H5R      HAL2     0.900000E-01   1.00800           0
     17744 MEMB     154      POPC     H5S      HAL2     0.900000E-01   1.00800           0
     17745 MEMB     154      POPC     C26      CTL2    -0.180000       12.0110           0
     17746 MEMB     154      POPC     H6R      HAL2     0.900000E-01   1.00800           0
     17747 MEMB     154      POPC     H6S      HAL2     0.900000E-01   1.00800           0
     17748 MEMB     154      POPC     C27      CTL2    -0.180000       12.0110           0
     17749 MEMB     154      POPC     H7R      HAL2     0.900000E-01   1.00800           0
     17750 MEMB     154      POPC     H7S      HAL2     0.900000E-01   1.00800           0
     17751 MEMB     154      POPC     C28      CTL2    -0.180000       12.0110           0
     17752 MEMB     154      POPC     H8R      HAL2     0.900000E-01   1.00800           0
     17753 MEMB     154      POPC     H8S      HAL2     0.900000E-01   1.00800           0
     17754 MEMB     154      POPC     C29      CEL1    -0.150000       12.0110           0
     17755 MEMB     154      POPC     H91      HEL1     0.150000       1.00800           0
     17756 MEMB     154      POPC     C210     CEL1    -0.150000       12.0110           0
     17757 MEMB     154      POPC     H101     HEL1     0.150000       1.00800           0
     17758 MEMB     154      POPC     C211     CTL2    -0.180000       12.0110           0
     17759 MEMB     154      POPC     H11R     HAL2     0.900000E-01   1.00800           0
     17760 MEMB     154      POPC     H11S     HAL2     0.900000E-01   1.00800           0
     17761 MEMB     154      POPC     C212     CTL2    -0.180000       12.0110           0
     17762 MEMB     154      POPC     H12R     HAL2     0.900000E-01   1.00800           0
     17763 MEMB     154      POPC     H12S     HAL2     0.900000E-01   1.00800           0
     17764 MEMB     154      POPC     C213     CTL2    -0.180000       12.0110           0
     17765 MEMB     154      POPC     H13R     HAL2     0.900000E-01   1.00800           0
     17766 MEMB     154      POPC     H13S     HAL2     0.900000E-01   1.00800           0
     17767 MEMB     154      POPC     C214     CTL2    -0.180000       12.0110           0
     17768 MEMB     154      POPC     H14R     HAL2     0.900000E-01   1.00800           0
     17769 MEMB     154      POPC     H14S     HAL2     0.900000E-01   1.00800           0
     17770 MEMB     154      POPC     C215     CTL2    -0.180000       12.0110           0
     17771 MEMB     154      POPC     H15R     HAL2     0.900000E-01   1.00800           0
     17772 MEMB     154      POPC     H15S     HAL2     0.900000E-01   1.00800           0
     17773 MEMB     154      POPC     C216     CTL2    -0.180000       12.0110           0
     17774 MEMB     154      POPC     H16R     HAL2     0.900000E-01   1.00800           0
     17775 MEMB     154      POPC     H16S     HAL2     0.900000E-01   1.00800           0
     17776 MEMB     154      POPC     C217     CTL2    -0.180000       12.0110           0
     17777 MEMB     154      POPC     H17R     HAL2     0.900000E-01   1.00800           0
     17778 MEMB     154      POPC     H17S     HAL2     0.900000E-01   1.00800           0
     17779 MEMB     154      POPC     C218     CTL3    -0.270000       12.0110           0
     17780 MEMB     154      POPC     H18R     HAL3     0.900000E-01   1.00800           0
     17781 MEMB     154      POPC     H18S     HAL3     0.900000E-01   1.00800           0
     17782 MEMB     154      POPC     H18T     HAL3     0.900000E-01   1.00800           0
     17783 MEMB     154      POPC     C33      CTL2    -0.180000       12.0110           0
     17784 MEMB     154      POPC     H3X      HAL2     0.900000E-01   1.00800           0
     17785 MEMB     154      POPC     H3Y      HAL2     0.900000E-01   1.00800           0
     17786 MEMB     154      POPC     C34      CTL2    -0.180000       12.0110           0
     17787 MEMB     154      POPC     H4X      HAL2     0.900000E-01   1.00800           0
     17788 MEMB     154      POPC     H4Y      HAL2     0.900000E-01   1.00800           0
     17789 MEMB     154      POPC     C35      CTL2    -0.180000       12.0110           0
     17790 MEMB     154      POPC     H5X      HAL2     0.900000E-01   1.00800           0
     17791 MEMB     154      POPC     H5Y      HAL2     0.900000E-01   1.00800           0
     17792 MEMB     154      POPC     C36      CTL2    -0.180000       12.0110           0
     17793 MEMB     154      POPC     H6X      HAL2     0.900000E-01   1.00800           0
     17794 MEMB     154      POPC     H6Y      HAL2     0.900000E-01   1.00800           0
     17795 MEMB     154      POPC     C37      CTL2    -0.180000       12.0110           0
     17796 MEMB     154      POPC     H7X      HAL2     0.900000E-01   1.00800           0
     17797 MEMB     154      POPC     H7Y      HAL2     0.900000E-01   1.00800           0
     17798 MEMB     154      POPC     C38      CTL2    -0.180000       12.0110           0
     17799 MEMB     154      POPC     H8X      HAL2     0.900000E-01   1.00800           0
     17800 MEMB     154      POPC     H8Y      HAL2     0.900000E-01   1.00800           0
     17801 MEMB     154      POPC     C39      CTL2    -0.180000       12.0110           0
     17802 MEMB     154      POPC     H9X      HAL2     0.900000E-01   1.00800           0
     17803 MEMB     154      POPC     H9Y      HAL2     0.900000E-01   1.00800           0
     17804 MEMB     154      POPC     C310     CTL2    -0.180000       12.0110           0
     17805 MEMB     154      POPC     H10X     HAL2     0.900000E-01   1.00800           0
     17806 MEMB     154      POPC     H10Y     HAL2     0.900000E-01   1.00800           0
     17807 MEMB     154      POPC     C311     CTL2    -0.180000       12.0110           0
     17808 MEMB     154      POPC     H11X     HAL2     0.900000E-01   1.00800           0
     17809 MEMB     154      POPC     H11Y     HAL2     0.900000E-01   1.00800           0
     17810 MEMB     154      POPC     C312     CTL2    -0.180000       12.0110           0
     17811 MEMB     154      POPC     H12X     HAL2     0.900000E-01   1.00800           0
     17812 MEMB     154      POPC     H12Y     HAL2     0.900000E-01   1.00800           0
     17813 MEMB     154      POPC     C313     CTL2    -0.180000       12.0110           0
     17814 MEMB     154      POPC     H13X     HAL2     0.900000E-01   1.00800           0
     17815 MEMB     154      POPC     H13Y     HAL2     0.900000E-01   1.00800           0
     17816 MEMB     154      POPC     C314     CTL2    -0.180000       12.0110           0
     17817 MEMB     154      POPC     H14X     HAL2     0.900000E-01   1.00800           0
     17818 MEMB     154      POPC     H14Y     HAL2     0.900000E-01   1.00800           0
     17819 MEMB     154      POPC     C315     CTL2    -0.180000       12.0110           0
     17820 MEMB     154      POPC     H15X     HAL2     0.900000E-01   1.00800           0
     17821 MEMB     154      POPC     H15Y     HAL2     0.900000E-01   1.00800           0
     17822 MEMB     154      POPC     C316     CTL3    -0.270000       12.0110           0
     17823 MEMB     154      POPC     H16X     HAL3     0.900000E-01   1.00800           0
     17824 MEMB     154      POPC     H16Y     HAL3     0.900000E-01   1.00800           0
     17825 MEMB     154      POPC     H16Z     HAL3     0.900000E-01   1.00800           0
     17826 MEMB     155      POPE     N        NH3L    -0.300000       14.0070           0
     17827 MEMB     155      POPE     HN1      HCL      0.330000       1.00800           0
     17828 MEMB     155      POPE     HN2      HCL      0.330000       1.00800           0
     17829 MEMB     155      POPE     HN3      HCL      0.330000       1.00800           0
     17830 MEMB     155      POPE     C12      CTL2     0.130000       12.0110           0
     17831 MEMB     155      POPE     H12A     HAL2     0.900000E-01   1.00800           0
     17832 MEMB     155      POPE     H12B     HAL2     0.900000E-01   1.00800           0
     17833 MEMB     155      POPE     C11      CTL2    -0.800000E-01   12.0110           0
     17834 MEMB     155      POPE     H11A     HAL2     0.900000E-01   1.00800           0
     17835 MEMB     155      POPE     H11B     HAL2     0.900000E-01   1.00800           0
     17836 MEMB     155      POPE     P        PL        1.50000       30.9740           0
     17837 MEMB     155      POPE     O13      O2L     -0.780000       15.9994           0
     17838 MEMB     155      POPE     O14      O2L     -0.780000       15.9994           0
     17839 MEMB     155      POPE     O11      OSLP    -0.570000       15.9994           0
     17840 MEMB     155      POPE     O12      OSLP    -0.570000       15.9994           0
     17841 MEMB     155      POPE     C1       CTL2    -0.800000E-01   12.0110           0
     17842 MEMB     155      POPE     HA       HAL2     0.900000E-01   1.00800           0
     17843 MEMB     155      POPE     HB       HAL2     0.900000E-01   1.00800           0
     17844 MEMB     155      POPE     C2       CTL1     0.170000       12.0110           0
     17845 MEMB     155      POPE     HS       HAL1     0.900000E-01   1.00800           0
     17846 MEMB     155      POPE     O21      OSL     -0.490000       15.9994           0
     17847 MEMB     155      POPE     C21      CL       0.900000       12.0110           0
     17848 MEMB     155      POPE     O22      OBL     -0.630000       15.9994           0
     17849 MEMB     155      POPE     C22      CTL2    -0.220000       12.0110           0
     17850 MEMB     155      POPE     H2R      HAL2     0.900000E-01   1.00800           0
     17851 MEMB     155      POPE     H2S      HAL2     0.900000E-01   1.00800           0
     17852 MEMB     155      POPE     C3       CTL2     0.800000E-01   12.0110           0
     17853 MEMB     155      POPE     HX       HAL2     0.900000E-01   1.00800           0
     17854 MEMB     155      POPE     HY       HAL2     0.900000E-01   1.00800           0
     17855 MEMB     155      POPE     O31      OSL     -0.490000       15.9994           0
     17856 MEMB     155      POPE     C31      CL       0.900000       12.0110           0
     17857 MEMB     155      POPE     O32      OBL     -0.630000       15.9994           0
     17858 MEMB     155      POPE     C32      CTL2    -0.220000       12.0110           0
     17859 MEMB     155      POPE     H2X      HAL2     0.900000E-01   1.00800           0
     17860 MEMB     155      POPE     H2Y      HAL2     0.900000E-01   1.00800           0
     17861 MEMB     155      POPE     C23      CTL2    -0.180000       12.0110           0
     17862 MEMB     155      POPE     H3R      HAL2     0.900000E-01   1.00800           0
     17863 MEMB     155      POPE     H3S      HAL2     0.900000E-01   1.00800           0
     17864 MEMB     155      POPE     C24      CTL2    -0.180000       12.0110           0
     17865 MEMB     155      POPE     H4R      HAL2     0.900000E-01   1.00800           0
     17866 MEMB     155      POPE     H4S      HAL2     0.900000E-01   1.00800           0
     17867 MEMB     155      POPE     C25      CTL2    -0.180000       12.0110           0
     17868 MEMB     155      POPE     H5R      HAL2     0.900000E-01   1.00800           0
     17869 MEMB     155      POPE     H5S      HAL2     0.900000E-01   1.00800           0
     17870 MEMB     155      POPE     C26      CTL2    -0.180000       12.0110           0
     17871 MEMB     155      POPE     H6R      HAL2     0.900000E-01   1.00800           0
     17872 MEMB     155      POPE     H6S      HAL2     0.900000E-01   1.00800           0
     17873 MEMB     155      POPE     C27      CTL2    -0.180000       12.0110           0
     17874 MEMB     155      POPE     H7R      HAL2     0.900000E-01   1.00800           0
     17875 MEMB     155      POPE     H7S      HAL2     0.900000E-01   1.00800           0
     17876 MEMB     155      POPE     C28      CTL2    -0.180000       12.0110           0
     17877 MEMB     155      POPE     H8R      HAL2     0.900000E-01   1.00800           0
     17878 MEMB     155      POPE     H8S      HAL2     0.900000E-01   1.00800           0
     17879 MEMB     155      POPE     C29      CEL1    -0.150000       12.0110           0
     17880 MEMB     155      POPE     H91      HEL1     0.150000       1.00800           0
     17881 MEMB     155      POPE     C210     CEL1    -0.150000       12.0110           0
     17882 MEMB     155      POPE     H101     HEL1     0.150000       1.00800           0
     17883 MEMB     155      POPE     C211     CTL2    -0.180000       12.0110           0
     17884 MEMB     155      POPE     H11R     HAL2     0.900000E-01   1.00800           0
     17885 MEMB     155      POPE     H11S     HAL2     0.900000E-01   1.00800           0
     17886 MEMB     155      POPE     C212     CTL2    -0.180000       12.0110           0
     17887 MEMB     155      POPE     H12R     HAL2     0.900000E-01   1.00800           0
     17888 MEMB     155      POPE     H12S     HAL2     0.900000E-01   1.00800           0
     17889 MEMB     155      POPE     C213     CTL2    -0.180000       12.0110           0
     17890 MEMB     155      POPE     H13R     HAL2     0.900000E-01   1.00800           0
     17891 MEMB     155      POPE     H13S     HAL2     0.900000E-01   1.00800           0
     17892 MEMB     155      POPE     C214     CTL2    -0.180000       12.0110           0
     17893 MEMB     155      POPE     H14R     HAL2     0.900000E-01   1.00800           0
     17894 MEMB     155      POPE     H14S     HAL2     0.900000E-01   1.00800           0
     17895 MEMB     155      POPE     C215     CTL2    -0.180000       12.0110           0
     17896 MEMB     155      POPE     H15R     HAL2     0.900000E-01   1.00800           0
     17897 MEMB     155      POPE     H15S     HAL2     0.900000E-01   1.00800           0
     17898 MEMB     155      POPE     C216     CTL2    -0.180000       12.0110           0
     17899 MEMB     155      POPE     H16R     HAL2     0.900000E-01   1.00800           0
     17900 MEMB     155      POPE     H16S     HAL2     0.900000E-01   1.00800           0
     17901 MEMB     155      POPE     C217     CTL2    -0.180000       12.0110           0
     17902 MEMB     155      POPE     H17R     HAL2     0.900000E-01   1.00800           0
     17903 MEMB     155      POPE     H17S     HAL2     0.900000E-01   1.00800           0
     17904 MEMB     155      POPE     C218     CTL3    -0.270000       12.0110           0
     17905 MEMB     155      POPE     H18R     HAL3     0.900000E-01   1.00800           0
     17906 MEMB     155      POPE     H18S     HAL3     0.900000E-01   1.00800           0
     17907 MEMB     155      POPE     H18T     HAL3     0.900000E-01   1.00800           0
     17908 MEMB     155      POPE     C33      CTL2    -0.180000       12.0110           0
     17909 MEMB     155      POPE     H3X      HAL2     0.900000E-01   1.00800           0
     17910 MEMB     155      POPE     H3Y      HAL2     0.900000E-01   1.00800           0
     17911 MEMB     155      POPE     C34      CTL2    -0.180000       12.0110           0
     17912 MEMB     155      POPE     H4X      HAL2     0.900000E-01   1.00800           0
     17913 MEMB     155      POPE     H4Y      HAL2     0.900000E-01   1.00800           0
     17914 MEMB     155      POPE     C35      CTL2    -0.180000       12.0110           0
     17915 MEMB     155      POPE     H5X      HAL2     0.900000E-01   1.00800           0
     17916 MEMB     155      POPE     H5Y      HAL2     0.900000E-01   1.00800           0
     17917 MEMB     155      POPE     C36      CTL2    -0.180000       12.0110           0
     17918 MEMB     155      POPE     H6X      HAL2     0.900000E-01   1.00800           0
     17919 MEMB     155      POPE     H6Y      HAL2     0.900000E-01   1.00800           0
     17920 MEMB     155      POPE     C37      CTL2    -0.180000       12.0110           0
     17921 MEMB     155      POPE     H7X      HAL2     0.900000E-01   1.00800           0
     17922 MEMB     155      POPE     H7Y      HAL2     0.900000E-01   1.00800           0
     17923 MEMB     155      POPE     C38      CTL2    -0.180000       12.0110           0
     17924 MEMB     155      POPE     H8X      HAL2     0.900000E-01   1.00800           0
     17925 MEMB     155      POPE     H8Y      HAL2     0.900000E-01   1.00800           0
     17926 MEMB     155      POPE     C39      CTL2    -0.180000       12.0110           0
     17927 MEMB     155      POPE     H9X      HAL2     0.900000E-01   1.00800           0
     17928 MEMB     155      POPE     H9Y      HAL2     0.900000E-01   1.00800           0
     17929 MEMB     155      POPE     C310     CTL2    -0.180000       12.0110           0
     17930 MEMB     155      POPE     H10X     HAL2     0.900000E-01   1.00800           0
     17931 MEMB     155      POPE     H10Y     HAL2     0.900000E-01   1.00800           0
     17932 MEMB     155      POPE     C311     CTL2    -0.180000       12.0110           0
     17933 MEMB     155      POPE     H11X     HAL2     0.900000E-01   1.00800           0
     17934 MEMB     155      POPE     H11Y     HAL2     0.900000E-01   1.00800           0
     17935 MEMB     155      POPE     C312     CTL2    -0.180000       12.0110           0
     17936 MEMB     155      POPE     H12X     HAL2     0.900000E-01   1.00800           0
     17937 MEMB     155      POPE     H12Y     HAL2     0.900000E-01   1.00800           0
     17938 MEMB     155      POPE     C313     CTL2    -0.180000       12.0110           0
     17939 MEMB     155      POPE     H13X     HAL2     0.900000E-01   1.00800           0
     17940 MEMB     155      POPE     H13Y     HAL2     0.900000E-01   1.00800           0
     17941 MEMB     155      POPE     C314     CTL2    -0.180000       12.0110           0
     17942 MEMB     155      POPE     H14X     HAL2     0.900000E-01   1.00800           0
     17943 MEMB     155      POPE     H14Y     HAL2     0.900000E-01   1.00800           0
     17944 MEMB     155      POPE     C315     CTL2    -0.180000       12.0110           0
     17945 MEMB     155      POPE     H15X     HAL2     0.900000E-01   1.00800           0
     17946 MEMB     155      POPE     H15Y     HAL2     0.900000E-01   1.00800           0
     17947 MEMB     155      POPE     C316     CTL3    -0.270000       12.0110           0
     17948 MEMB     155      POPE     H16X     HAL3     0.900000E-01   1.00800           0
     17949 MEMB     155      POPE     H16Y     HAL3     0.900000E-01   1.00800           0
     17950 MEMB     155      POPE     H16Z     HAL3     0.900000E-01   1.00800           0
     17951 MEMB     156      POPE     N        NH3L    -0.300000       14.0070           0
     17952 MEMB     156      POPE     HN1      HCL      0.330000       1.00800           0
     17953 MEMB     156      POPE     HN2      HCL      0.330000       1.00800           0
     17954 MEMB     156      POPE     HN3      HCL      0.330000       1.00800           0
     17955 MEMB     156      POPE     C12      CTL2     0.130000       12.0110           0
     17956 MEMB     156      POPE     H12A     HAL2     0.900000E-01   1.00800           0
     17957 MEMB     156      POPE     H12B     HAL2     0.900000E-01   1.00800           0
     17958 MEMB     156      POPE     C11      CTL2    -0.800000E-01   12.0110           0
     17959 MEMB     156      POPE     H11A     HAL2     0.900000E-01   1.00800           0
     17960 MEMB     156      POPE     H11B     HAL2     0.900000E-01   1.00800           0
     17961 MEMB     156      POPE     P        PL        1.50000       30.9740           0
     17962 MEMB     156      POPE     O13      O2L     -0.780000       15.9994           0
     17963 MEMB     156      POPE     O14      O2L     -0.780000       15.9994           0
     17964 MEMB     156      POPE     O11      OSLP    -0.570000       15.9994           0
     17965 MEMB     156      POPE     O12      OSLP    -0.570000       15.9994           0
     17966 MEMB     156      POPE     C1       CTL2    -0.800000E-01   12.0110           0
     17967 MEMB     156      POPE     HA       HAL2     0.900000E-01   1.00800           0
     17968 MEMB     156      POPE     HB       HAL2     0.900000E-01   1.00800           0
     17969 MEMB     156      POPE     C2       CTL1     0.170000       12.0110           0
     17970 MEMB     156      POPE     HS       HAL1     0.900000E-01   1.00800           0
     17971 MEMB     156      POPE     O21      OSL     -0.490000       15.9994           0
     17972 MEMB     156      POPE     C21      CL       0.900000       12.0110           0
     17973 MEMB     156      POPE     O22      OBL     -0.630000       15.9994           0
     17974 MEMB     156      POPE     C22      CTL2    -0.220000       12.0110           0
     17975 MEMB     156      POPE     H2R      HAL2     0.900000E-01   1.00800           0
     17976 MEMB     156      POPE     H2S      HAL2     0.900000E-01   1.00800           0
     17977 MEMB     156      POPE     C3       CTL2     0.800000E-01   12.0110           0
     17978 MEMB     156      POPE     HX       HAL2     0.900000E-01   1.00800           0
     17979 MEMB     156      POPE     HY       HAL2     0.900000E-01   1.00800           0
     17980 MEMB     156      POPE     O31      OSL     -0.490000       15.9994           0
     17981 MEMB     156      POPE     C31      CL       0.900000       12.0110           0
     17982 MEMB     156      POPE     O32      OBL     -0.630000       15.9994           0
     17983 MEMB     156      POPE     C32      CTL2    -0.220000       12.0110           0
     17984 MEMB     156      POPE     H2X      HAL2     0.900000E-01   1.00800           0
     17985 MEMB     156      POPE     H2Y      HAL2     0.900000E-01   1.00800           0
     17986 MEMB     156      POPE     C23      CTL2    -0.180000       12.0110           0
     17987 MEMB     156      POPE     H3R      HAL2     0.900000E-01   1.00800           0
     17988 MEMB     156      POPE     H3S      HAL2     0.900000E-01   1.00800           0
     17989 MEMB     156      POPE     C24      CTL2    -0.180000       12.0110           0
     17990 MEMB     156      POPE     H4R      HAL2     0.900000E-01   1.00800           0
     17991 MEMB     156      POPE     H4S      HAL2     0.900000E-01   1.00800           0
     17992 MEMB     156      POPE     C25      CTL2    -0.180000       12.0110           0
     17993 MEMB     156      POPE     H5R      HAL2     0.900000E-01   1.00800           0
     17994 MEMB     156      POPE     H5S      HAL2     0.900000E-01   1.00800           0
     17995 MEMB     156      POPE     C26      CTL2    -0.180000       12.0110           0
     17996 MEMB     156      POPE     H6R      HAL2     0.900000E-01   1.00800           0
     17997 MEMB     156      POPE     H6S      HAL2     0.900000E-01   1.00800           0
     17998 MEMB     156      POPE     C27      CTL2    -0.180000       12.0110           0
     17999 MEMB     156      POPE     H7R      HAL2     0.900000E-01   1.00800           0
     18000 MEMB     156      POPE     H7S      HAL2     0.900000E-01   1.00800           0
     18001 MEMB     156      POPE     C28      CTL2    -0.180000       12.0110           0
     18002 MEMB     156      POPE     H8R      HAL2     0.900000E-01   1.00800           0
     18003 MEMB     156      POPE     H8S      HAL2     0.900000E-01   1.00800           0
     18004 MEMB     156      POPE     C29      CEL1    -0.150000       12.0110           0
     18005 MEMB     156      POPE     H91      HEL1     0.150000       1.00800           0
     18006 MEMB     156      POPE     C210     CEL1    -0.150000       12.0110           0
     18007 MEMB     156      POPE     H101     HEL1     0.150000       1.00800           0
     18008 MEMB     156      POPE     C211     CTL2    -0.180000       12.0110           0
     18009 MEMB     156      POPE     H11R     HAL2     0.900000E-01   1.00800           0
     18010 MEMB     156      POPE     H11S     HAL2     0.900000E-01   1.00800           0
     18011 MEMB     156      POPE     C212     CTL2    -0.180000       12.0110           0
     18012 MEMB     156      POPE     H12R     HAL2     0.900000E-01   1.00800           0
     18013 MEMB     156      POPE     H12S     HAL2     0.900000E-01   1.00800           0
     18014 MEMB     156      POPE     C213     CTL2    -0.180000       12.0110           0
     18015 MEMB     156      POPE     H13R     HAL2     0.900000E-01   1.00800           0
     18016 MEMB     156      POPE     H13S     HAL2     0.900000E-01   1.00800           0
     18017 MEMB     156      POPE     C214     CTL2    -0.180000       12.0110           0
     18018 MEMB     156      POPE     H14R     HAL2     0.900000E-01   1.00800           0
     18019 MEMB     156      POPE     H14S     HAL2     0.900000E-01   1.00800           0
     18020 MEMB     156      POPE     C215     CTL2    -0.180000       12.0110           0
     18021 MEMB     156      POPE     H15R     HAL2     0.900000E-01   1.00800           0
     18022 MEMB     156      POPE     H15S     HAL2     0.900000E-01   1.00800           0
     18023 MEMB     156      POPE     C216     CTL2    -0.180000       12.0110           0
     18024 MEMB     156      POPE     H16R     HAL2     0.900000E-01   1.00800           0
     18025 MEMB     156      POPE     H16S     HAL2     0.900000E-01   1.00800           0
     18026 MEMB     156      POPE     C217     CTL2    -0.180000       12.0110           0
     18027 MEMB     156      POPE     H17R     HAL2     0.900000E-01   1.00800           0
     18028 MEMB     156      POPE     H17S     HAL2     0.900000E-01   1.00800           0
     18029 MEMB     156      POPE     C218     CTL3    -0.270000       12.0110           0
     18030 MEMB     156      POPE     H18R     HAL3     0.900000E-01   1.00800           0
     18031 MEMB     156      POPE     H18S     HAL3     0.900000E-01   1.00800           0
     18032 MEMB     156      POPE     H18T     HAL3     0.900000E-01   1.00800           0
     18033 MEMB     156      POPE     C33      CTL2    -0.180000       12.0110           0
     18034 MEMB     156      POPE     H3X      HAL2     0.900000E-01   1.00800           0
     18035 MEMB     156      POPE     H3Y      HAL2     0.900000E-01   1.00800           0
     18036 MEMB     156      POPE     C34      CTL2    -0.180000       12.0110           0
     18037 MEMB     156      POPE     H4X      HAL2     0.900000E-01   1.00800           0
     18038 MEMB     156      POPE     H4Y      HAL2     0.900000E-01   1.00800           0
     18039 MEMB     156      POPE     C35      CTL2    -0.180000       12.0110           0
     18040 MEMB     156      POPE     H5X      HAL2     0.900000E-01   1.00800           0
     18041 MEMB     156      POPE     H5Y      HAL2     0.900000E-01   1.00800           0
     18042 MEMB     156      POPE     C36      CTL2    -0.180000       12.0110           0
     18043 MEMB     156      POPE     H6X      HAL2     0.900000E-01   1.00800           0
     18044 MEMB     156      POPE     H6Y      HAL2     0.900000E-01   1.00800           0
     18045 MEMB     156      POPE     C37      CTL2    -0.180000       12.0110           0
     18046 MEMB     156      POPE     H7X      HAL2     0.900000E-01   1.00800           0
     18047 MEMB     156      POPE     H7Y      HAL2     0.900000E-01   1.00800           0
     18048 MEMB     156      POPE     C38      CTL2    -0.180000       12.0110           0
     18049 MEMB     156      POPE     H8X      HAL2     0.900000E-01   1.00800           0
     18050 MEMB     156      POPE     H8Y      HAL2     0.900000E-01   1.00800           0
     18051 MEMB     156      POPE     C39      CTL2    -0.180000       12.0110           0
     18052 MEMB     156      POPE     H9X      HAL2     0.900000E-01   1.00800           0
     18053 MEMB     156      POPE     H9Y      HAL2     0.900000E-01   1.00800           0
     18054 MEMB     156      POPE     C310     CTL2    -0.180000       12.0110           0
     18055 MEMB     156      POPE     H10X     HAL2     0.900000E-01   1.00800           0
     18056 MEMB     156      POPE     H10Y     HAL2     0.900000E-01   1.00800           0
     18057 MEMB     156      POPE     C311     CTL2    -0.180000       12.0110           0
     18058 MEMB     156      POPE     H11X     HAL2     0.900000E-01   1.00800           0
     18059 MEMB     156      POPE     H11Y     HAL2     0.900000E-01   1.00800           0
     18060 MEMB     156      POPE     C312     CTL2    -0.180000       12.0110           0
     18061 MEMB     156      POPE     H12X     HAL2     0.900000E-01   1.00800           0
     18062 MEMB     156      POPE     H12Y     HAL2     0.900000E-01   1.00800           0
     18063 MEMB     156      POPE     C313     CTL2    -0.180000       12.0110           0
     18064 MEMB     156      POPE     H13X     HAL2     0.900000E-01   1.00800           0
     18065 MEMB     156      POPE     H13Y     HAL2     0.900000E-01   1.00800           0
     18066 MEMB     156      POPE     C314     CTL2    -0.180000       12.0110           0
     18067 MEMB     156      POPE     H14X     HAL2     0.900000E-01   1.00800           0
     18068 MEMB     156      POPE     H14Y     HAL2     0.900000E-01   1.00800           0
     18069 MEMB     156      POPE     C315     CTL2    -0.180000       12.0110           0
     18070 MEMB     156      POPE     H15X     HAL2     0.900000E-01   1.00800           0
     18071 MEMB     156      POPE     H15Y     HAL2     0.900000E-01   1.00800           0
     18072 MEMB     156      POPE     C316     CTL3    -0.270000       12.0110           0
     18073 MEMB     156      POPE     H16X     HAL3     0.900000E-01   1.00800           0
     18074 MEMB     156      POPE     H16Y     HAL3     0.900000E-01   1.00800           0
     18075 MEMB     156      POPE     H16Z     HAL3     0.900000E-01   1.00800           0
     18076 MEMB     157      POPC     N        NTL     -0.600000       14.0070           0
     18077 MEMB     157      POPC     C12      CTL2    -0.100000       12.0110           0
     18078 MEMB     157      POPC     H12A     HL       0.250000       1.00800           0
     18079 MEMB     157      POPC     H12B     HL       0.250000       1.00800           0
     18080 MEMB     157      POPC     C13      CTL5    -0.350000       12.0110           0
     18081 MEMB     157      POPC     H13A     HL       0.250000       1.00800           0
     18082 MEMB     157      POPC     H13B     HL       0.250000       1.00800           0
     18083 MEMB     157      POPC     H13C     HL       0.250000       1.00800           0
     18084 MEMB     157      POPC     C14      CTL5    -0.350000       12.0110           0
     18085 MEMB     157      POPC     H14A     HL       0.250000       1.00800           0
     18086 MEMB     157      POPC     H14B     HL       0.250000       1.00800           0
     18087 MEMB     157      POPC     H14C     HL       0.250000       1.00800           0
     18088 MEMB     157      POPC     C15      CTL5    -0.350000       12.0110           0
     18089 MEMB     157      POPC     H15A     HL       0.250000       1.00800           0
     18090 MEMB     157      POPC     H15B     HL       0.250000       1.00800           0
     18091 MEMB     157      POPC     H15C     HL       0.250000       1.00800           0
     18092 MEMB     157      POPC     C11      CTL2    -0.800000E-01   12.0110           0
     18093 MEMB     157      POPC     H11A     HAL2     0.900000E-01   1.00800           0
     18094 MEMB     157      POPC     H11B     HAL2     0.900000E-01   1.00800           0
     18095 MEMB     157      POPC     P        PL        1.50000       30.9740           0
     18096 MEMB     157      POPC     O13      O2L     -0.780000       15.9994           0
     18097 MEMB     157      POPC     O14      O2L     -0.780000       15.9994           0
     18098 MEMB     157      POPC     O12      OSLP    -0.570000       15.9994           0
     18099 MEMB     157      POPC     O11      OSLP    -0.570000       15.9994           0
     18100 MEMB     157      POPC     C1       CTL2    -0.800000E-01   12.0110           0
     18101 MEMB     157      POPC     HA       HAL2     0.900000E-01   1.00800           0
     18102 MEMB     157      POPC     HB       HAL2     0.900000E-01   1.00800           0
     18103 MEMB     157      POPC     C2       CTL1     0.170000       12.0110           0
     18104 MEMB     157      POPC     HS       HAL1     0.900000E-01   1.00800           0
     18105 MEMB     157      POPC     O21      OSL     -0.490000       15.9994           0
     18106 MEMB     157      POPC     C21      CL       0.900000       12.0110           0
     18107 MEMB     157      POPC     O22      OBL     -0.630000       15.9994           0
     18108 MEMB     157      POPC     C22      CTL2    -0.220000       12.0110           0
     18109 MEMB     157      POPC     H2R      HAL2     0.900000E-01   1.00800           0
     18110 MEMB     157      POPC     H2S      HAL2     0.900000E-01   1.00800           0
     18111 MEMB     157      POPC     C3       CTL2     0.800000E-01   12.0110           0
     18112 MEMB     157      POPC     HX       HAL2     0.900000E-01   1.00800           0
     18113 MEMB     157      POPC     HY       HAL2     0.900000E-01   1.00800           0
     18114 MEMB     157      POPC     O31      OSL     -0.490000       15.9994           0
     18115 MEMB     157      POPC     C31      CL       0.900000       12.0110           0
     18116 MEMB     157      POPC     O32      OBL     -0.630000       15.9994           0
     18117 MEMB     157      POPC     C32      CTL2    -0.220000       12.0110           0
     18118 MEMB     157      POPC     H2X      HAL2     0.900000E-01   1.00800           0
     18119 MEMB     157      POPC     H2Y      HAL2     0.900000E-01   1.00800           0
     18120 MEMB     157      POPC     C23      CTL2    -0.180000       12.0110           0
     18121 MEMB     157      POPC     H3R      HAL2     0.900000E-01   1.00800           0
     18122 MEMB     157      POPC     H3S      HAL2     0.900000E-01   1.00800           0
     18123 MEMB     157      POPC     C24      CTL2    -0.180000       12.0110           0
     18124 MEMB     157      POPC     H4R      HAL2     0.900000E-01   1.00800           0
     18125 MEMB     157      POPC     H4S      HAL2     0.900000E-01   1.00800           0
     18126 MEMB     157      POPC     C25      CTL2    -0.180000       12.0110           0
     18127 MEMB     157      POPC     H5R      HAL2     0.900000E-01   1.00800           0
     18128 MEMB     157      POPC     H5S      HAL2     0.900000E-01   1.00800           0
     18129 MEMB     157      POPC     C26      CTL2    -0.180000       12.0110           0
     18130 MEMB     157      POPC     H6R      HAL2     0.900000E-01   1.00800           0
     18131 MEMB     157      POPC     H6S      HAL2     0.900000E-01   1.00800           0
     18132 MEMB     157      POPC     C27      CTL2    -0.180000       12.0110           0
     18133 MEMB     157      POPC     H7R      HAL2     0.900000E-01   1.00800           0
     18134 MEMB     157      POPC     H7S      HAL2     0.900000E-01   1.00800           0
     18135 MEMB     157      POPC     C28      CTL2    -0.180000       12.0110           0
     18136 MEMB     157      POPC     H8R      HAL2     0.900000E-01   1.00800           0
     18137 MEMB     157      POPC     H8S      HAL2     0.900000E-01   1.00800           0
     18138 MEMB     157      POPC     C29      CEL1    -0.150000       12.0110           0
     18139 MEMB     157      POPC     H91      HEL1     0.150000       1.00800           0
     18140 MEMB     157      POPC     C210     CEL1    -0.150000       12.0110           0
     18141 MEMB     157      POPC     H101     HEL1     0.150000       1.00800           0
     18142 MEMB     157      POPC     C211     CTL2    -0.180000       12.0110           0
     18143 MEMB     157      POPC     H11R     HAL2     0.900000E-01   1.00800           0
     18144 MEMB     157      POPC     H11S     HAL2     0.900000E-01   1.00800           0
     18145 MEMB     157      POPC     C212     CTL2    -0.180000       12.0110           0
     18146 MEMB     157      POPC     H12R     HAL2     0.900000E-01   1.00800           0
     18147 MEMB     157      POPC     H12S     HAL2     0.900000E-01   1.00800           0
     18148 MEMB     157      POPC     C213     CTL2    -0.180000       12.0110           0
     18149 MEMB     157      POPC     H13R     HAL2     0.900000E-01   1.00800           0
     18150 MEMB     157      POPC     H13S     HAL2     0.900000E-01   1.00800           0
     18151 MEMB     157      POPC     C214     CTL2    -0.180000       12.0110           0
     18152 MEMB     157      POPC     H14R     HAL2     0.900000E-01   1.00800           0
     18153 MEMB     157      POPC     H14S     HAL2     0.900000E-01   1.00800           0
     18154 MEMB     157      POPC     C215     CTL2    -0.180000       12.0110           0
     18155 MEMB     157      POPC     H15R     HAL2     0.900000E-01   1.00800           0
     18156 MEMB     157      POPC     H15S     HAL2     0.900000E-01   1.00800           0
     18157 MEMB     157      POPC     C216     CTL2    -0.180000       12.0110           0
     18158 MEMB     157      POPC     H16R     HAL2     0.900000E-01   1.00800           0
     18159 MEMB     157      POPC     H16S     HAL2     0.900000E-01   1.00800           0
     18160 MEMB     157      POPC     C217     CTL2    -0.180000       12.0110           0
     18161 MEMB     157      POPC     H17R     HAL2     0.900000E-01   1.00800           0
     18162 MEMB     157      POPC     H17S     HAL2     0.900000E-01   1.00800           0
     18163 MEMB     157      POPC     C218     CTL3    -0.270000       12.0110           0
     18164 MEMB     157      POPC     H18R     HAL3     0.900000E-01   1.00800           0
     18165 MEMB     157      POPC     H18S     HAL3     0.900000E-01   1.00800           0
     18166 MEMB     157      POPC     H18T     HAL3     0.900000E-01   1.00800           0
     18167 MEMB     157      POPC     C33      CTL2    -0.180000       12.0110           0
     18168 MEMB     157      POPC     H3X      HAL2     0.900000E-01   1.00800           0
     18169 MEMB     157      POPC     H3Y      HAL2     0.900000E-01   1.00800           0
     18170 MEMB     157      POPC     C34      CTL2    -0.180000       12.0110           0
     18171 MEMB     157      POPC     H4X      HAL2     0.900000E-01   1.00800           0
     18172 MEMB     157      POPC     H4Y      HAL2     0.900000E-01   1.00800           0
     18173 MEMB     157      POPC     C35      CTL2    -0.180000       12.0110           0
     18174 MEMB     157      POPC     H5X      HAL2     0.900000E-01   1.00800           0
     18175 MEMB     157      POPC     H5Y      HAL2     0.900000E-01   1.00800           0
     18176 MEMB     157      POPC     C36      CTL2    -0.180000       12.0110           0
     18177 MEMB     157      POPC     H6X      HAL2     0.900000E-01   1.00800           0
     18178 MEMB     157      POPC     H6Y      HAL2     0.900000E-01   1.00800           0
     18179 MEMB     157      POPC     C37      CTL2    -0.180000       12.0110           0
     18180 MEMB     157      POPC     H7X      HAL2     0.900000E-01   1.00800           0
     18181 MEMB     157      POPC     H7Y      HAL2     0.900000E-01   1.00800           0
     18182 MEMB     157      POPC     C38      CTL2    -0.180000       12.0110           0
     18183 MEMB     157      POPC     H8X      HAL2     0.900000E-01   1.00800           0
     18184 MEMB     157      POPC     H8Y      HAL2     0.900000E-01   1.00800           0
     18185 MEMB     157      POPC     C39      CTL2    -0.180000       12.0110           0
     18186 MEMB     157      POPC     H9X      HAL2     0.900000E-01   1.00800           0
     18187 MEMB     157      POPC     H9Y      HAL2     0.900000E-01   1.00800           0
     18188 MEMB     157      POPC     C310     CTL2    -0.180000       12.0110           0
     18189 MEMB     157      POPC     H10X     HAL2     0.900000E-01   1.00800           0
     18190 MEMB     157      POPC     H10Y     HAL2     0.900000E-01   1.00800           0
     18191 MEMB     157      POPC     C311     CTL2    -0.180000       12.0110           0
     18192 MEMB     157      POPC     H11X     HAL2     0.900000E-01   1.00800           0
     18193 MEMB     157      POPC     H11Y     HAL2     0.900000E-01   1.00800           0
     18194 MEMB     157      POPC     C312     CTL2    -0.180000       12.0110           0
     18195 MEMB     157      POPC     H12X     HAL2     0.900000E-01   1.00800           0
     18196 MEMB     157      POPC     H12Y     HAL2     0.900000E-01   1.00800           0
     18197 MEMB     157      POPC     C313     CTL2    -0.180000       12.0110           0
     18198 MEMB     157      POPC     H13X     HAL2     0.900000E-01   1.00800           0
     18199 MEMB     157      POPC     H13Y     HAL2     0.900000E-01   1.00800           0
     18200 MEMB     157      POPC     C314     CTL2    -0.180000       12.0110           0
     18201 MEMB     157      POPC     H14X     HAL2     0.900000E-01   1.00800           0
     18202 MEMB     157      POPC     H14Y     HAL2     0.900000E-01   1.00800           0
     18203 MEMB     157      POPC     C315     CTL2    -0.180000       12.0110           0
     18204 MEMB     157      POPC     H15X     HAL2     0.900000E-01   1.00800           0
     18205 MEMB     157      POPC     H15Y     HAL2     0.900000E-01   1.00800           0
     18206 MEMB     157      POPC     C316     CTL3    -0.270000       12.0110           0
     18207 MEMB     157      POPC     H16X     HAL3     0.900000E-01   1.00800           0
     18208 MEMB     157      POPC     H16Y     HAL3     0.900000E-01   1.00800           0
     18209 MEMB     157      POPC     H16Z     HAL3     0.900000E-01   1.00800           0
     18210 MEMB     158      POPC     N        NTL     -0.600000       14.0070           0
     18211 MEMB     158      POPC     C12      CTL2    -0.100000       12.0110           0
     18212 MEMB     158      POPC     H12A     HL       0.250000       1.00800           0
     18213 MEMB     158      POPC     H12B     HL       0.250000       1.00800           0
     18214 MEMB     158      POPC     C13      CTL5    -0.350000       12.0110           0
     18215 MEMB     158      POPC     H13A     HL       0.250000       1.00800           0
     18216 MEMB     158      POPC     H13B     HL       0.250000       1.00800           0
     18217 MEMB     158      POPC     H13C     HL       0.250000       1.00800           0
     18218 MEMB     158      POPC     C14      CTL5    -0.350000       12.0110           0
     18219 MEMB     158      POPC     H14A     HL       0.250000       1.00800           0
     18220 MEMB     158      POPC     H14B     HL       0.250000       1.00800           0
     18221 MEMB     158      POPC     H14C     HL       0.250000       1.00800           0
     18222 MEMB     158      POPC     C15      CTL5    -0.350000       12.0110           0
     18223 MEMB     158      POPC     H15A     HL       0.250000       1.00800           0
     18224 MEMB     158      POPC     H15B     HL       0.250000       1.00800           0
     18225 MEMB     158      POPC     H15C     HL       0.250000       1.00800           0
     18226 MEMB     158      POPC     C11      CTL2    -0.800000E-01   12.0110           0
     18227 MEMB     158      POPC     H11A     HAL2     0.900000E-01   1.00800           0
     18228 MEMB     158      POPC     H11B     HAL2     0.900000E-01   1.00800           0
     18229 MEMB     158      POPC     P        PL        1.50000       30.9740           0
     18230 MEMB     158      POPC     O13      O2L     -0.780000       15.9994           0
     18231 MEMB     158      POPC     O14      O2L     -0.780000       15.9994           0
     18232 MEMB     158      POPC     O12      OSLP    -0.570000       15.9994           0
     18233 MEMB     158      POPC     O11      OSLP    -0.570000       15.9994           0
     18234 MEMB     158      POPC     C1       CTL2    -0.800000E-01   12.0110           0
     18235 MEMB     158      POPC     HA       HAL2     0.900000E-01   1.00800           0
     18236 MEMB     158      POPC     HB       HAL2     0.900000E-01   1.00800           0
     18237 MEMB     158      POPC     C2       CTL1     0.170000       12.0110           0
     18238 MEMB     158      POPC     HS       HAL1     0.900000E-01   1.00800           0
     18239 MEMB     158      POPC     O21      OSL     -0.490000       15.9994           0
     18240 MEMB     158      POPC     C21      CL       0.900000       12.0110           0
     18241 MEMB     158      POPC     O22      OBL     -0.630000       15.9994           0
     18242 MEMB     158      POPC     C22      CTL2    -0.220000       12.0110           0
     18243 MEMB     158      POPC     H2R      HAL2     0.900000E-01   1.00800           0
     18244 MEMB     158      POPC     H2S      HAL2     0.900000E-01   1.00800           0
     18245 MEMB     158      POPC     C3       CTL2     0.800000E-01   12.0110           0
     18246 MEMB     158      POPC     HX       HAL2     0.900000E-01   1.00800           0
     18247 MEMB     158      POPC     HY       HAL2     0.900000E-01   1.00800           0
     18248 MEMB     158      POPC     O31      OSL     -0.490000       15.9994           0
     18249 MEMB     158      POPC     C31      CL       0.900000       12.0110           0
     18250 MEMB     158      POPC     O32      OBL     -0.630000       15.9994           0
     18251 MEMB     158      POPC     C32      CTL2    -0.220000       12.0110           0
     18252 MEMB     158      POPC     H2X      HAL2     0.900000E-01   1.00800           0
     18253 MEMB     158      POPC     H2Y      HAL2     0.900000E-01   1.00800           0
     18254 MEMB     158      POPC     C23      CTL2    -0.180000       12.0110           0
     18255 MEMB     158      POPC     H3R      HAL2     0.900000E-01   1.00800           0
     18256 MEMB     158      POPC     H3S      HAL2     0.900000E-01   1.00800           0
     18257 MEMB     158      POPC     C24      CTL2    -0.180000       12.0110           0
     18258 MEMB     158      POPC     H4R      HAL2     0.900000E-01   1.00800           0
     18259 MEMB     158      POPC     H4S      HAL2     0.900000E-01   1.00800           0
     18260 MEMB     158      POPC     C25      CTL2    -0.180000       12.0110           0
     18261 MEMB     158      POPC     H5R      HAL2     0.900000E-01   1.00800           0
     18262 MEMB     158      POPC     H5S      HAL2     0.900000E-01   1.00800           0
     18263 MEMB     158      POPC     C26      CTL2    -0.180000       12.0110           0
     18264 MEMB     158      POPC     H6R      HAL2     0.900000E-01   1.00800           0
     18265 MEMB     158      POPC     H6S      HAL2     0.900000E-01   1.00800           0
     18266 MEMB     158      POPC     C27      CTL2    -0.180000       12.0110           0
     18267 MEMB     158      POPC     H7R      HAL2     0.900000E-01   1.00800           0
     18268 MEMB     158      POPC     H7S      HAL2     0.900000E-01   1.00800           0
     18269 MEMB     158      POPC     C28      CTL2    -0.180000       12.0110           0
     18270 MEMB     158      POPC     H8R      HAL2     0.900000E-01   1.00800           0
     18271 MEMB     158      POPC     H8S      HAL2     0.900000E-01   1.00800           0
     18272 MEMB     158      POPC     C29      CEL1    -0.150000       12.0110           0
     18273 MEMB     158      POPC     H91      HEL1     0.150000       1.00800           0
     18274 MEMB     158      POPC     C210     CEL1    -0.150000       12.0110           0
     18275 MEMB     158      POPC     H101     HEL1     0.150000       1.00800           0
     18276 MEMB     158      POPC     C211     CTL2    -0.180000       12.0110           0
     18277 MEMB     158      POPC     H11R     HAL2     0.900000E-01   1.00800           0
     18278 MEMB     158      POPC     H11S     HAL2     0.900000E-01   1.00800           0
     18279 MEMB     158      POPC     C212     CTL2    -0.180000       12.0110           0
     18280 MEMB     158      POPC     H12R     HAL2     0.900000E-01   1.00800           0
     18281 MEMB     158      POPC     H12S     HAL2     0.900000E-01   1.00800           0
     18282 MEMB     158      POPC     C213     CTL2    -0.180000       12.0110           0
     18283 MEMB     158      POPC     H13R     HAL2     0.900000E-01   1.00800           0
     18284 MEMB     158      POPC     H13S     HAL2     0.900000E-01   1.00800           0
     18285 MEMB     158      POPC     C214     CTL2    -0.180000       12.0110           0
     18286 MEMB     158      POPC     H14R     HAL2     0.900000E-01   1.00800           0
     18287 MEMB     158      POPC     H14S     HAL2     0.900000E-01   1.00800           0
     18288 MEMB     158      POPC     C215     CTL2    -0.180000       12.0110           0
     18289 MEMB     158      POPC     H15R     HAL2     0.900000E-01   1.00800           0
     18290 MEMB     158      POPC     H15S     HAL2     0.900000E-01   1.00800           0
     18291 MEMB     158      POPC     C216     CTL2    -0.180000       12.0110           0
     18292 MEMB     158      POPC     H16R     HAL2     0.900000E-01   1.00800           0
     18293 MEMB     158      POPC     H16S     HAL2     0.900000E-01   1.00800           0
     18294 MEMB     158      POPC     C217     CTL2    -0.180000       12.0110           0
     18295 MEMB     158      POPC     H17R     HAL2     0.900000E-01   1.00800           0
     18296 MEMB     158      POPC     H17S     HAL2     0.900000E-01   1.00800           0
     18297 MEMB     158      POPC     C218     CTL3    -0.270000       12.0110           0
     18298 MEMB     158      POPC     H18R     HAL3     0.900000E-01   1.00800           0
     18299 MEMB     158      POPC     H18S     HAL3     0.900000E-01   1.00800           0
     18300 MEMB     158      POPC     H18T     HAL3     0.900000E-01   1.00800           0
     18301 MEMB     158      POPC     C33      CTL2    -0.180000       12.0110           0
     18302 MEMB     158      POPC     H3X      HAL2     0.900000E-01   1.00800           0
     18303 MEMB     158      POPC     H3Y      HAL2     0.900000E-01   1.00800           0
     18304 MEMB     158      POPC     C34      CTL2    -0.180000       12.0110           0
     18305 MEMB     158      POPC     H4X      HAL2     0.900000E-01   1.00800           0
     18306 MEMB     158      POPC     H4Y      HAL2     0.900000E-01   1.00800           0
     18307 MEMB     158      POPC     C35      CTL2    -0.180000       12.0110           0
     18308 MEMB     158      POPC     H5X      HAL2     0.900000E-01   1.00800           0
     18309 MEMB     158      POPC     H5Y      HAL2     0.900000E-01   1.00800           0
     18310 MEMB     158      POPC     C36      CTL2    -0.180000       12.0110           0
     18311 MEMB     158      POPC     H6X      HAL2     0.900000E-01   1.00800           0
     18312 MEMB     158      POPC     H6Y      HAL2     0.900000E-01   1.00800           0
     18313 MEMB     158      POPC     C37      CTL2    -0.180000       12.0110           0
     18314 MEMB     158      POPC     H7X      HAL2     0.900000E-01   1.00800           0
     18315 MEMB     158      POPC     H7Y      HAL2     0.900000E-01   1.00800           0
     18316 MEMB     158      POPC     C38      CTL2    -0.180000       12.0110           0
     18317 MEMB     158      POPC     H8X      HAL2     0.900000E-01   1.00800           0
     18318 MEMB     158      POPC     H8Y      HAL2     0.900000E-01   1.00800           0
     18319 MEMB     158      POPC     C39      CTL2    -0.180000       12.0110           0
     18320 MEMB     158      POPC     H9X      HAL2     0.900000E-01   1.00800           0
     18321 MEMB     158      POPC     H9Y      HAL2     0.900000E-01   1.00800           0
     18322 MEMB     158      POPC     C310     CTL2    -0.180000       12.0110           0
     18323 MEMB     158      POPC     H10X     HAL2     0.900000E-01   1.00800           0
     18324 MEMB     158      POPC     H10Y     HAL2     0.900000E-01   1.00800           0
     18325 MEMB     158      POPC     C311     CTL2    -0.180000       12.0110           0
     18326 MEMB     158      POPC     H11X     HAL2     0.900000E-01   1.00800           0
     18327 MEMB     158      POPC     H11Y     HAL2     0.900000E-01   1.00800           0
     18328 MEMB     158      POPC     C312     CTL2    -0.180000       12.0110           0
     18329 MEMB     158      POPC     H12X     HAL2     0.900000E-01   1.00800           0
     18330 MEMB     158      POPC     H12Y     HAL2     0.900000E-01   1.00800           0
     18331 MEMB     158      POPC     C313     CTL2    -0.180000       12.0110           0
     18332 MEMB     158      POPC     H13X     HAL2     0.900000E-01   1.00800           0
     18333 MEMB     158      POPC     H13Y     HAL2     0.900000E-01   1.00800           0
     18334 MEMB     158      POPC     C314     CTL2    -0.180000       12.0110           0
     18335 MEMB     158      POPC     H14X     HAL2     0.900000E-01   1.00800           0
     18336 MEMB     158      POPC     H14Y     HAL2     0.900000E-01   1.00800           0
     18337 MEMB     158      POPC     C315     CTL2    -0.180000       12.0110           0
     18338 MEMB     158      POPC     H15X     HAL2     0.900000E-01   1.00800           0
     18339 MEMB     158      POPC     H15Y     HAL2     0.900000E-01   1.00800           0
     18340 MEMB     158      POPC     C316     CTL3    -0.270000       12.0110           0
     18341 MEMB     158      POPC     H16X     HAL3     0.900000E-01   1.00800           0
     18342 MEMB     158      POPC     H16Y     HAL3     0.900000E-01   1.00800           0
     18343 MEMB     158      POPC     H16Z     HAL3     0.900000E-01   1.00800           0
     18344 MEMB     159      POPC     N        NTL     -0.600000       14.0070           0
     18345 MEMB     159      POPC     C12      CTL2    -0.100000       12.0110           0
     18346 MEMB     159      POPC     H12A     HL       0.250000       1.00800           0
     18347 MEMB     159      POPC     H12B     HL       0.250000       1.00800           0
     18348 MEMB     159      POPC     C13      CTL5    -0.350000       12.0110           0
     18349 MEMB     159      POPC     H13A     HL       0.250000       1.00800           0
     18350 MEMB     159      POPC     H13B     HL       0.250000       1.00800           0
     18351 MEMB     159      POPC     H13C     HL       0.250000       1.00800           0
     18352 MEMB     159      POPC     C14      CTL5    -0.350000       12.0110           0
     18353 MEMB     159      POPC     H14A     HL       0.250000       1.00800           0
     18354 MEMB     159      POPC     H14B     HL       0.250000       1.00800           0
     18355 MEMB     159      POPC     H14C     HL       0.250000       1.00800           0
     18356 MEMB     159      POPC     C15      CTL5    -0.350000       12.0110           0
     18357 MEMB     159      POPC     H15A     HL       0.250000       1.00800           0
     18358 MEMB     159      POPC     H15B     HL       0.250000       1.00800           0
     18359 MEMB     159      POPC     H15C     HL       0.250000       1.00800           0
     18360 MEMB     159      POPC     C11      CTL2    -0.800000E-01   12.0110           0
     18361 MEMB     159      POPC     H11A     HAL2     0.900000E-01   1.00800           0
     18362 MEMB     159      POPC     H11B     HAL2     0.900000E-01   1.00800           0
     18363 MEMB     159      POPC     P        PL        1.50000       30.9740           0
     18364 MEMB     159      POPC     O13      O2L     -0.780000       15.9994           0
     18365 MEMB     159      POPC     O14      O2L     -0.780000       15.9994           0
     18366 MEMB     159      POPC     O12      OSLP    -0.570000       15.9994           0
     18367 MEMB     159      POPC     O11      OSLP    -0.570000       15.9994           0
     18368 MEMB     159      POPC     C1       CTL2    -0.800000E-01   12.0110           0
     18369 MEMB     159      POPC     HA       HAL2     0.900000E-01   1.00800           0
     18370 MEMB     159      POPC     HB       HAL2     0.900000E-01   1.00800           0
     18371 MEMB     159      POPC     C2       CTL1     0.170000       12.0110           0
     18372 MEMB     159      POPC     HS       HAL1     0.900000E-01   1.00800           0
     18373 MEMB     159      POPC     O21      OSL     -0.490000       15.9994           0
     18374 MEMB     159      POPC     C21      CL       0.900000       12.0110           0
     18375 MEMB     159      POPC     O22      OBL     -0.630000       15.9994           0
     18376 MEMB     159      POPC     C22      CTL2    -0.220000       12.0110           0
     18377 MEMB     159      POPC     H2R      HAL2     0.900000E-01   1.00800           0
     18378 MEMB     159      POPC     H2S      HAL2     0.900000E-01   1.00800           0
     18379 MEMB     159      POPC     C3       CTL2     0.800000E-01   12.0110           0
     18380 MEMB     159      POPC     HX       HAL2     0.900000E-01   1.00800           0
     18381 MEMB     159      POPC     HY       HAL2     0.900000E-01   1.00800           0
     18382 MEMB     159      POPC     O31      OSL     -0.490000       15.9994           0
     18383 MEMB     159      POPC     C31      CL       0.900000       12.0110           0
     18384 MEMB     159      POPC     O32      OBL     -0.630000       15.9994           0
     18385 MEMB     159      POPC     C32      CTL2    -0.220000       12.0110           0
     18386 MEMB     159      POPC     H2X      HAL2     0.900000E-01   1.00800           0
     18387 MEMB     159      POPC     H2Y      HAL2     0.900000E-01   1.00800           0
     18388 MEMB     159      POPC     C23      CTL2    -0.180000       12.0110           0
     18389 MEMB     159      POPC     H3R      HAL2     0.900000E-01   1.00800           0
     18390 MEMB     159      POPC     H3S      HAL2     0.900000E-01   1.00800           0
     18391 MEMB     159      POPC     C24      CTL2    -0.180000       12.0110           0
     18392 MEMB     159      POPC     H4R      HAL2     0.900000E-01   1.00800           0
     18393 MEMB     159      POPC     H4S      HAL2     0.900000E-01   1.00800           0
     18394 MEMB     159      POPC     C25      CTL2    -0.180000       12.0110           0
     18395 MEMB     159      POPC     H5R      HAL2     0.900000E-01   1.00800           0
     18396 MEMB     159      POPC     H5S      HAL2     0.900000E-01   1.00800           0
     18397 MEMB     159      POPC     C26      CTL2    -0.180000       12.0110           0
     18398 MEMB     159      POPC     H6R      HAL2     0.900000E-01   1.00800           0
     18399 MEMB     159      POPC     H6S      HAL2     0.900000E-01   1.00800           0
     18400 MEMB     159      POPC     C27      CTL2    -0.180000       12.0110           0
     18401 MEMB     159      POPC     H7R      HAL2     0.900000E-01   1.00800           0
     18402 MEMB     159      POPC     H7S      HAL2     0.900000E-01   1.00800           0
     18403 MEMB     159      POPC     C28      CTL2    -0.180000       12.0110           0
     18404 MEMB     159      POPC     H8R      HAL2     0.900000E-01   1.00800           0
     18405 MEMB     159      POPC     H8S      HAL2     0.900000E-01   1.00800           0
     18406 MEMB     159      POPC     C29      CEL1    -0.150000       12.0110           0
     18407 MEMB     159      POPC     H91      HEL1     0.150000       1.00800           0
     18408 MEMB     159      POPC     C210     CEL1    -0.150000       12.0110           0
     18409 MEMB     159      POPC     H101     HEL1     0.150000       1.00800           0
     18410 MEMB     159      POPC     C211     CTL2    -0.180000       12.0110           0
     18411 MEMB     159      POPC     H11R     HAL2     0.900000E-01   1.00800           0
     18412 MEMB     159      POPC     H11S     HAL2     0.900000E-01   1.00800           0
     18413 MEMB     159      POPC     C212     CTL2    -0.180000       12.0110           0
     18414 MEMB     159      POPC     H12R     HAL2     0.900000E-01   1.00800           0
     18415 MEMB     159      POPC     H12S     HAL2     0.900000E-01   1.00800           0
     18416 MEMB     159      POPC     C213     CTL2    -0.180000       12.0110           0
     18417 MEMB     159      POPC     H13R     HAL2     0.900000E-01   1.00800           0
     18418 MEMB     159      POPC     H13S     HAL2     0.900000E-01   1.00800           0
     18419 MEMB     159      POPC     C214     CTL2    -0.180000       12.0110           0
     18420 MEMB     159      POPC     H14R     HAL2     0.900000E-01   1.00800           0
     18421 MEMB     159      POPC     H14S     HAL2     0.900000E-01   1.00800           0
     18422 MEMB     159      POPC     C215     CTL2    -0.180000       12.0110           0
     18423 MEMB     159      POPC     H15R     HAL2     0.900000E-01   1.00800           0
     18424 MEMB     159      POPC     H15S     HAL2     0.900000E-01   1.00800           0
     18425 MEMB     159      POPC     C216     CTL2    -0.180000       12.0110           0
     18426 MEMB     159      POPC     H16R     HAL2     0.900000E-01   1.00800           0
     18427 MEMB     159      POPC     H16S     HAL2     0.900000E-01   1.00800           0
     18428 MEMB     159      POPC     C217     CTL2    -0.180000       12.0110           0
     18429 MEMB     159      POPC     H17R     HAL2     0.900000E-01   1.00800           0
     18430 MEMB     159      POPC     H17S     HAL2     0.900000E-01   1.00800           0
     18431 MEMB     159      POPC     C218     CTL3    -0.270000       12.0110           0
     18432 MEMB     159      POPC     H18R     HAL3     0.900000E-01   1.00800           0
     18433 MEMB     159      POPC     H18S     HAL3     0.900000E-01   1.00800           0
     18434 MEMB     159      POPC     H18T     HAL3     0.900000E-01   1.00800           0
     18435 MEMB     159      POPC     C33      CTL2    -0.180000       12.0110           0
     18436 MEMB     159      POPC     H3X      HAL2     0.900000E-01   1.00800           0
     18437 MEMB     159      POPC     H3Y      HAL2     0.900000E-01   1.00800           0
     18438 MEMB     159      POPC     C34      CTL2    -0.180000       12.0110           0
     18439 MEMB     159      POPC     H4X      HAL2     0.900000E-01   1.00800           0
     18440 MEMB     159      POPC     H4Y      HAL2     0.900000E-01   1.00800           0
     18441 MEMB     159      POPC     C35      CTL2    -0.180000       12.0110           0
     18442 MEMB     159      POPC     H5X      HAL2     0.900000E-01   1.00800           0
     18443 MEMB     159      POPC     H5Y      HAL2     0.900000E-01   1.00800           0
     18444 MEMB     159      POPC     C36      CTL2    -0.180000       12.0110           0
     18445 MEMB     159      POPC     H6X      HAL2     0.900000E-01   1.00800           0
     18446 MEMB     159      POPC     H6Y      HAL2     0.900000E-01   1.00800           0
     18447 MEMB     159      POPC     C37      CTL2    -0.180000       12.0110           0
     18448 MEMB     159      POPC     H7X      HAL2     0.900000E-01   1.00800           0
     18449 MEMB     159      POPC     H7Y      HAL2     0.900000E-01   1.00800           0
     18450 MEMB     159      POPC     C38      CTL2    -0.180000       12.0110           0
     18451 MEMB     159      POPC     H8X      HAL2     0.900000E-01   1.00800           0
     18452 MEMB     159      POPC     H8Y      HAL2     0.900000E-01   1.00800           0
     18453 MEMB     159      POPC     C39      CTL2    -0.180000       12.0110           0
     18454 MEMB     159      POPC     H9X      HAL2     0.900000E-01   1.00800           0
     18455 MEMB     159      POPC     H9Y      HAL2     0.900000E-01   1.00800           0
     18456 MEMB     159      POPC     C310     CTL2    -0.180000       12.0110           0
     18457 MEMB     159      POPC     H10X     HAL2     0.900000E-01   1.00800           0
     18458 MEMB     159      POPC     H10Y     HAL2     0.900000E-01   1.00800           0
     18459 MEMB     159      POPC     C311     CTL2    -0.180000       12.0110           0
     18460 MEMB     159      POPC     H11X     HAL2     0.900000E-01   1.00800           0
     18461 MEMB     159      POPC     H11Y     HAL2     0.900000E-01   1.00800           0
     18462 MEMB     159      POPC     C312     CTL2    -0.180000       12.0110           0
     18463 MEMB     159      POPC     H12X     HAL2     0.900000E-01   1.00800           0
     18464 MEMB     159      POPC     H12Y     HAL2     0.900000E-01   1.00800           0
     18465 MEMB     159      POPC     C313     CTL2    -0.180000       12.0110           0
     18466 MEMB     159      POPC     H13X     HAL2     0.900000E-01   1.00800           0
     18467 MEMB     159      POPC     H13Y     HAL2     0.900000E-01   1.00800           0
     18468 MEMB     159      POPC     C314     CTL2    -0.180000       12.0110           0
     18469 MEMB     159      POPC     H14X     HAL2     0.900000E-01   1.00800           0
     18470 MEMB     159      POPC     H14Y     HAL2     0.900000E-01   1.00800           0
     18471 MEMB     159      POPC     C315     CTL2    -0.180000       12.0110           0
     18472 MEMB     159      POPC     H15X     HAL2     0.900000E-01   1.00800           0
     18473 MEMB     159      POPC     H15Y     HAL2     0.900000E-01   1.00800           0
     18474 MEMB     159      POPC     C316     CTL3    -0.270000       12.0110           0
     18475 MEMB     159      POPC     H16X     HAL3     0.900000E-01   1.00800           0
     18476 MEMB     159      POPC     H16Y     HAL3     0.900000E-01   1.00800           0
     18477 MEMB     159      POPC     H16Z     HAL3     0.900000E-01   1.00800           0
     18478 MEMB     160      POPC     N        NTL     -0.600000       14.0070           0
     18479 MEMB     160      POPC     C12      CTL2    -0.100000       12.0110           0
     18480 MEMB     160      POPC     H12A     HL       0.250000       1.00800           0
     18481 MEMB     160      POPC     H12B     HL       0.250000       1.00800           0
     18482 MEMB     160      POPC     C13      CTL5    -0.350000       12.0110           0
     18483 MEMB     160      POPC     H13A     HL       0.250000       1.00800           0
     18484 MEMB     160      POPC     H13B     HL       0.250000       1.00800           0
     18485 MEMB     160      POPC     H13C     HL       0.250000       1.00800           0
     18486 MEMB     160      POPC     C14      CTL5    -0.350000       12.0110           0
     18487 MEMB     160      POPC     H14A     HL       0.250000       1.00800           0
     18488 MEMB     160      POPC     H14B     HL       0.250000       1.00800           0
     18489 MEMB     160      POPC     H14C     HL       0.250000       1.00800           0
     18490 MEMB     160      POPC     C15      CTL5    -0.350000       12.0110           0
     18491 MEMB     160      POPC     H15A     HL       0.250000       1.00800           0
     18492 MEMB     160      POPC     H15B     HL       0.250000       1.00800           0
     18493 MEMB     160      POPC     H15C     HL       0.250000       1.00800           0
     18494 MEMB     160      POPC     C11      CTL2    -0.800000E-01   12.0110           0
     18495 MEMB     160      POPC     H11A     HAL2     0.900000E-01   1.00800           0
     18496 MEMB     160      POPC     H11B     HAL2     0.900000E-01   1.00800           0
     18497 MEMB     160      POPC     P        PL        1.50000       30.9740           0
     18498 MEMB     160      POPC     O13      O2L     -0.780000       15.9994           0
     18499 MEMB     160      POPC     O14      O2L     -0.780000       15.9994           0
     18500 MEMB     160      POPC     O12      OSLP    -0.570000       15.9994           0
     18501 MEMB     160      POPC     O11      OSLP    -0.570000       15.9994           0
     18502 MEMB     160      POPC     C1       CTL2    -0.800000E-01   12.0110           0
     18503 MEMB     160      POPC     HA       HAL2     0.900000E-01   1.00800           0
     18504 MEMB     160      POPC     HB       HAL2     0.900000E-01   1.00800           0
     18505 MEMB     160      POPC     C2       CTL1     0.170000       12.0110           0
     18506 MEMB     160      POPC     HS       HAL1     0.900000E-01   1.00800           0
     18507 MEMB     160      POPC     O21      OSL     -0.490000       15.9994           0
     18508 MEMB     160      POPC     C21      CL       0.900000       12.0110           0
     18509 MEMB     160      POPC     O22      OBL     -0.630000       15.9994           0
     18510 MEMB     160      POPC     C22      CTL2    -0.220000       12.0110           0
     18511 MEMB     160      POPC     H2R      HAL2     0.900000E-01   1.00800           0
     18512 MEMB     160      POPC     H2S      HAL2     0.900000E-01   1.00800           0
     18513 MEMB     160      POPC     C3       CTL2     0.800000E-01   12.0110           0
     18514 MEMB     160      POPC     HX       HAL2     0.900000E-01   1.00800           0
     18515 MEMB     160      POPC     HY       HAL2     0.900000E-01   1.00800           0
     18516 MEMB     160      POPC     O31      OSL     -0.490000       15.9994           0
     18517 MEMB     160      POPC     C31      CL       0.900000       12.0110           0
     18518 MEMB     160      POPC     O32      OBL     -0.630000       15.9994           0
     18519 MEMB     160      POPC     C32      CTL2    -0.220000       12.0110           0
     18520 MEMB     160      POPC     H2X      HAL2     0.900000E-01   1.00800           0
     18521 MEMB     160      POPC     H2Y      HAL2     0.900000E-01   1.00800           0
     18522 MEMB     160      POPC     C23      CTL2    -0.180000       12.0110           0
     18523 MEMB     160      POPC     H3R      HAL2     0.900000E-01   1.00800           0
     18524 MEMB     160      POPC     H3S      HAL2     0.900000E-01   1.00800           0
     18525 MEMB     160      POPC     C24      CTL2    -0.180000       12.0110           0
     18526 MEMB     160      POPC     H4R      HAL2     0.900000E-01   1.00800           0
     18527 MEMB     160      POPC     H4S      HAL2     0.900000E-01   1.00800           0
     18528 MEMB     160      POPC     C25      CTL2    -0.180000       12.0110           0
     18529 MEMB     160      POPC     H5R      HAL2     0.900000E-01   1.00800           0
     18530 MEMB     160      POPC     H5S      HAL2     0.900000E-01   1.00800           0
     18531 MEMB     160      POPC     C26      CTL2    -0.180000       12.0110           0
     18532 MEMB     160      POPC     H6R      HAL2     0.900000E-01   1.00800           0
     18533 MEMB     160      POPC     H6S      HAL2     0.900000E-01   1.00800           0
     18534 MEMB     160      POPC     C27      CTL2    -0.180000       12.0110           0
     18535 MEMB     160      POPC     H7R      HAL2     0.900000E-01   1.00800           0
     18536 MEMB     160      POPC     H7S      HAL2     0.900000E-01   1.00800           0
     18537 MEMB     160      POPC     C28      CTL2    -0.180000       12.0110           0
     18538 MEMB     160      POPC     H8R      HAL2     0.900000E-01   1.00800           0
     18539 MEMB     160      POPC     H8S      HAL2     0.900000E-01   1.00800           0
     18540 MEMB     160      POPC     C29      CEL1    -0.150000       12.0110           0
     18541 MEMB     160      POPC     H91      HEL1     0.150000       1.00800           0
     18542 MEMB     160      POPC     C210     CEL1    -0.150000       12.0110           0
     18543 MEMB     160      POPC     H101     HEL1     0.150000       1.00800           0
     18544 MEMB     160      POPC     C211     CTL2    -0.180000       12.0110           0
     18545 MEMB     160      POPC     H11R     HAL2     0.900000E-01   1.00800           0
     18546 MEMB     160      POPC     H11S     HAL2     0.900000E-01   1.00800           0
     18547 MEMB     160      POPC     C212     CTL2    -0.180000       12.0110           0
     18548 MEMB     160      POPC     H12R     HAL2     0.900000E-01   1.00800           0
     18549 MEMB     160      POPC     H12S     HAL2     0.900000E-01   1.00800           0
     18550 MEMB     160      POPC     C213     CTL2    -0.180000       12.0110           0
     18551 MEMB     160      POPC     H13R     HAL2     0.900000E-01   1.00800           0
     18552 MEMB     160      POPC     H13S     HAL2     0.900000E-01   1.00800           0
     18553 MEMB     160      POPC     C214     CTL2    -0.180000       12.0110           0
     18554 MEMB     160      POPC     H14R     HAL2     0.900000E-01   1.00800           0
     18555 MEMB     160      POPC     H14S     HAL2     0.900000E-01   1.00800           0
     18556 MEMB     160      POPC     C215     CTL2    -0.180000       12.0110           0
     18557 MEMB     160      POPC     H15R     HAL2     0.900000E-01   1.00800           0
     18558 MEMB     160      POPC     H15S     HAL2     0.900000E-01   1.00800           0
     18559 MEMB     160      POPC     C216     CTL2    -0.180000       12.0110           0
     18560 MEMB     160      POPC     H16R     HAL2     0.900000E-01   1.00800           0
     18561 MEMB     160      POPC     H16S     HAL2     0.900000E-01   1.00800           0
     18562 MEMB     160      POPC     C217     CTL2    -0.180000       12.0110           0
     18563 MEMB     160      POPC     H17R     HAL2     0.900000E-01   1.00800           0
     18564 MEMB     160      POPC     H17S     HAL2     0.900000E-01   1.00800           0
     18565 MEMB     160      POPC     C218     CTL3    -0.270000       12.0110           0
     18566 MEMB     160      POPC     H18R     HAL3     0.900000E-01   1.00800           0
     18567 MEMB     160      POPC     H18S     HAL3     0.900000E-01   1.00800           0
     18568 MEMB     160      POPC     H18T     HAL3     0.900000E-01   1.00800           0
     18569 MEMB     160      POPC     C33      CTL2    -0.180000       12.0110           0
     18570 MEMB     160      POPC     H3X      HAL2     0.900000E-01   1.00800           0
     18571 MEMB     160      POPC     H3Y      HAL2     0.900000E-01   1.00800           0
     18572 MEMB     160      POPC     C34      CTL2    -0.180000       12.0110           0
     18573 MEMB     160      POPC     H4X      HAL2     0.900000E-01   1.00800           0
     18574 MEMB     160      POPC     H4Y      HAL2     0.900000E-01   1.00800           0
     18575 MEMB     160      POPC     C35      CTL2    -0.180000       12.0110           0
     18576 MEMB     160      POPC     H5X      HAL2     0.900000E-01   1.00800           0
     18577 MEMB     160      POPC     H5Y      HAL2     0.900000E-01   1.00800           0
     18578 MEMB     160      POPC     C36      CTL2    -0.180000       12.0110           0
     18579 MEMB     160      POPC     H6X      HAL2     0.900000E-01   1.00800           0
     18580 MEMB     160      POPC     H6Y      HAL2     0.900000E-01   1.00800           0
     18581 MEMB     160      POPC     C37      CTL2    -0.180000       12.0110           0
     18582 MEMB     160      POPC     H7X      HAL2     0.900000E-01   1.00800           0
     18583 MEMB     160      POPC     H7Y      HAL2     0.900000E-01   1.00800           0
     18584 MEMB     160      POPC     C38      CTL2    -0.180000       12.0110           0
     18585 MEMB     160      POPC     H8X      HAL2     0.900000E-01   1.00800           0
     18586 MEMB     160      POPC     H8Y      HAL2     0.900000E-01   1.00800           0
     18587 MEMB     160      POPC     C39      CTL2    -0.180000       12.0110           0
     18588 MEMB     160      POPC     H9X      HAL2     0.900000E-01   1.00800           0
     18589 MEMB     160      POPC     H9Y      HAL2     0.900000E-01   1.00800           0
     18590 MEMB     160      POPC     C310     CTL2    -0.180000       12.0110           0
     18591 MEMB     160      POPC     H10X     HAL2     0.900000E-01   1.00800           0
     18592 MEMB     160      POPC     H10Y     HAL2     0.900000E-01   1.00800           0
     18593 MEMB     160      POPC     C311     CTL2    -0.180000       12.0110           0
     18594 MEMB     160      POPC     H11X     HAL2     0.900000E-01   1.00800           0
     18595 MEMB     160      POPC     H11Y     HAL2     0.900000E-01   1.00800           0
     18596 MEMB     160      POPC     C312     CTL2    -0.180000       12.0110           0
     18597 MEMB     160      POPC     H12X     HAL2     0.900000E-01   1.00800           0
     18598 MEMB     160      POPC     H12Y     HAL2     0.900000E-01   1.00800           0
     18599 MEMB     160      POPC     C313     CTL2    -0.180000       12.0110           0
     18600 MEMB     160      POPC     H13X     HAL2     0.900000E-01   1.00800           0
     18601 MEMB     160      POPC     H13Y     HAL2     0.900000E-01   1.00800           0
     18602 MEMB     160      POPC     C314     CTL2    -0.180000       12.0110           0
     18603 MEMB     160      POPC     H14X     HAL2     0.900000E-01   1.00800           0
     18604 MEMB     160      POPC     H14Y     HAL2     0.900000E-01   1.00800           0
     18605 MEMB     160      POPC     C315     CTL2    -0.180000       12.0110           0
     18606 MEMB     160      POPC     H15X     HAL2     0.900000E-01   1.00800           0
     18607 MEMB     160      POPC     H15Y     HAL2     0.900000E-01   1.00800           0
     18608 MEMB     160      POPC     C316     CTL3    -0.270000       12.0110           0
     18609 MEMB     160      POPC     H16X     HAL3     0.900000E-01   1.00800           0
     18610 MEMB     160      POPC     H16Y     HAL3     0.900000E-01   1.00800           0
     18611 MEMB     160      POPC     H16Z     HAL3     0.900000E-01   1.00800           0
     18612 MEMB     161      POPE     N        NH3L    -0.300000       14.0070           0
     18613 MEMB     161      POPE     HN1      HCL      0.330000       1.00800           0
     18614 MEMB     161      POPE     HN2      HCL      0.330000       1.00800           0
     18615 MEMB     161      POPE     HN3      HCL      0.330000       1.00800           0
     18616 MEMB     161      POPE     C12      CTL2     0.130000       12.0110           0
     18617 MEMB     161      POPE     H12A     HAL2     0.900000E-01   1.00800           0
     18618 MEMB     161      POPE     H12B     HAL2     0.900000E-01   1.00800           0
     18619 MEMB     161      POPE     C11      CTL2    -0.800000E-01   12.0110           0
     18620 MEMB     161      POPE     H11A     HAL2     0.900000E-01   1.00800           0
     18621 MEMB     161      POPE     H11B     HAL2     0.900000E-01   1.00800           0
     18622 MEMB     161      POPE     P        PL        1.50000       30.9740           0
     18623 MEMB     161      POPE     O13      O2L     -0.780000       15.9994           0
     18624 MEMB     161      POPE     O14      O2L     -0.780000       15.9994           0
     18625 MEMB     161      POPE     O11      OSLP    -0.570000       15.9994           0
     18626 MEMB     161      POPE     O12      OSLP    -0.570000       15.9994           0
     18627 MEMB     161      POPE     C1       CTL2    -0.800000E-01   12.0110           0
     18628 MEMB     161      POPE     HA       HAL2     0.900000E-01   1.00800           0
     18629 MEMB     161      POPE     HB       HAL2     0.900000E-01   1.00800           0
     18630 MEMB     161      POPE     C2       CTL1     0.170000       12.0110           0
     18631 MEMB     161      POPE     HS       HAL1     0.900000E-01   1.00800           0
     18632 MEMB     161      POPE     O21      OSL     -0.490000       15.9994           0
     18633 MEMB     161      POPE     C21      CL       0.900000       12.0110           0
     18634 MEMB     161      POPE     O22      OBL     -0.630000       15.9994           0
     18635 MEMB     161      POPE     C22      CTL2    -0.220000       12.0110           0
     18636 MEMB     161      POPE     H2R      HAL2     0.900000E-01   1.00800           0
     18637 MEMB     161      POPE     H2S      HAL2     0.900000E-01   1.00800           0
     18638 MEMB     161      POPE     C3       CTL2     0.800000E-01   12.0110           0
     18639 MEMB     161      POPE     HX       HAL2     0.900000E-01   1.00800           0
     18640 MEMB     161      POPE     HY       HAL2     0.900000E-01   1.00800           0
     18641 MEMB     161      POPE     O31      OSL     -0.490000       15.9994           0
     18642 MEMB     161      POPE     C31      CL       0.900000       12.0110           0
     18643 MEMB     161      POPE     O32      OBL     -0.630000       15.9994           0
     18644 MEMB     161      POPE     C32      CTL2    -0.220000       12.0110           0
     18645 MEMB     161      POPE     H2X      HAL2     0.900000E-01   1.00800           0
     18646 MEMB     161      POPE     H2Y      HAL2     0.900000E-01   1.00800           0
     18647 MEMB     161      POPE     C23      CTL2    -0.180000       12.0110           0
     18648 MEMB     161      POPE     H3R      HAL2     0.900000E-01   1.00800           0
     18649 MEMB     161      POPE     H3S      HAL2     0.900000E-01   1.00800           0
     18650 MEMB     161      POPE     C24      CTL2    -0.180000       12.0110           0
     18651 MEMB     161      POPE     H4R      HAL2     0.900000E-01   1.00800           0
     18652 MEMB     161      POPE     H4S      HAL2     0.900000E-01   1.00800           0
     18653 MEMB     161      POPE     C25      CTL2    -0.180000       12.0110           0
     18654 MEMB     161      POPE     H5R      HAL2     0.900000E-01   1.00800           0
     18655 MEMB     161      POPE     H5S      HAL2     0.900000E-01   1.00800           0
     18656 MEMB     161      POPE     C26      CTL2    -0.180000       12.0110           0
     18657 MEMB     161      POPE     H6R      HAL2     0.900000E-01   1.00800           0
     18658 MEMB     161      POPE     H6S      HAL2     0.900000E-01   1.00800           0
     18659 MEMB     161      POPE     C27      CTL2    -0.180000       12.0110           0
     18660 MEMB     161      POPE     H7R      HAL2     0.900000E-01   1.00800           0
     18661 MEMB     161      POPE     H7S      HAL2     0.900000E-01   1.00800           0
     18662 MEMB     161      POPE     C28      CTL2    -0.180000       12.0110           0
     18663 MEMB     161      POPE     H8R      HAL2     0.900000E-01   1.00800           0
     18664 MEMB     161      POPE     H8S      HAL2     0.900000E-01   1.00800           0
     18665 MEMB     161      POPE     C29      CEL1    -0.150000       12.0110           0
     18666 MEMB     161      POPE     H91      HEL1     0.150000       1.00800           0
     18667 MEMB     161      POPE     C210     CEL1    -0.150000       12.0110           0
     18668 MEMB     161      POPE     H101     HEL1     0.150000       1.00800           0
     18669 MEMB     161      POPE     C211     CTL2    -0.180000       12.0110           0
     18670 MEMB     161      POPE     H11R     HAL2     0.900000E-01   1.00800           0
     18671 MEMB     161      POPE     H11S     HAL2     0.900000E-01   1.00800           0
     18672 MEMB     161      POPE     C212     CTL2    -0.180000       12.0110           0
     18673 MEMB     161      POPE     H12R     HAL2     0.900000E-01   1.00800           0
     18674 MEMB     161      POPE     H12S     HAL2     0.900000E-01   1.00800           0
     18675 MEMB     161      POPE     C213     CTL2    -0.180000       12.0110           0
     18676 MEMB     161      POPE     H13R     HAL2     0.900000E-01   1.00800           0
     18677 MEMB     161      POPE     H13S     HAL2     0.900000E-01   1.00800           0
     18678 MEMB     161      POPE     C214     CTL2    -0.180000       12.0110           0
     18679 MEMB     161      POPE     H14R     HAL2     0.900000E-01   1.00800           0
     18680 MEMB     161      POPE     H14S     HAL2     0.900000E-01   1.00800           0
     18681 MEMB     161      POPE     C215     CTL2    -0.180000       12.0110           0
     18682 MEMB     161      POPE     H15R     HAL2     0.900000E-01   1.00800           0
     18683 MEMB     161      POPE     H15S     HAL2     0.900000E-01   1.00800           0
     18684 MEMB     161      POPE     C216     CTL2    -0.180000       12.0110           0
     18685 MEMB     161      POPE     H16R     HAL2     0.900000E-01   1.00800           0
     18686 MEMB     161      POPE     H16S     HAL2     0.900000E-01   1.00800           0
     18687 MEMB     161      POPE     C217     CTL2    -0.180000       12.0110           0
     18688 MEMB     161      POPE     H17R     HAL2     0.900000E-01   1.00800           0
     18689 MEMB     161      POPE     H17S     HAL2     0.900000E-01   1.00800           0
     18690 MEMB     161      POPE     C218     CTL3    -0.270000       12.0110           0
     18691 MEMB     161      POPE     H18R     HAL3     0.900000E-01   1.00800           0
     18692 MEMB     161      POPE     H18S     HAL3     0.900000E-01   1.00800           0
     18693 MEMB     161      POPE     H18T     HAL3     0.900000E-01   1.00800           0
     18694 MEMB     161      POPE     C33      CTL2    -0.180000       12.0110           0
     18695 MEMB     161      POPE     H3X      HAL2     0.900000E-01   1.00800           0
     18696 MEMB     161      POPE     H3Y      HAL2     0.900000E-01   1.00800           0
     18697 MEMB     161      POPE     C34      CTL2    -0.180000       12.0110           0
     18698 MEMB     161      POPE     H4X      HAL2     0.900000E-01   1.00800           0
     18699 MEMB     161      POPE     H4Y      HAL2     0.900000E-01   1.00800           0
     18700 MEMB     161      POPE     C35      CTL2    -0.180000       12.0110           0
     18701 MEMB     161      POPE     H5X      HAL2     0.900000E-01   1.00800           0
     18702 MEMB     161      POPE     H5Y      HAL2     0.900000E-01   1.00800           0
     18703 MEMB     161      POPE     C36      CTL2    -0.180000       12.0110           0
     18704 MEMB     161      POPE     H6X      HAL2     0.900000E-01   1.00800           0
     18705 MEMB     161      POPE     H6Y      HAL2     0.900000E-01   1.00800           0
     18706 MEMB     161      POPE     C37      CTL2    -0.180000       12.0110           0
     18707 MEMB     161      POPE     H7X      HAL2     0.900000E-01   1.00800           0
     18708 MEMB     161      POPE     H7Y      HAL2     0.900000E-01   1.00800           0
     18709 MEMB     161      POPE     C38      CTL2    -0.180000       12.0110           0
     18710 MEMB     161      POPE     H8X      HAL2     0.900000E-01   1.00800           0
     18711 MEMB     161      POPE     H8Y      HAL2     0.900000E-01   1.00800           0
     18712 MEMB     161      POPE     C39      CTL2    -0.180000       12.0110           0
     18713 MEMB     161      POPE     H9X      HAL2     0.900000E-01   1.00800           0
     18714 MEMB     161      POPE     H9Y      HAL2     0.900000E-01   1.00800           0
     18715 MEMB     161      POPE     C310     CTL2    -0.180000       12.0110           0
     18716 MEMB     161      POPE     H10X     HAL2     0.900000E-01   1.00800           0
     18717 MEMB     161      POPE     H10Y     HAL2     0.900000E-01   1.00800           0
     18718 MEMB     161      POPE     C311     CTL2    -0.180000       12.0110           0
     18719 MEMB     161      POPE     H11X     HAL2     0.900000E-01   1.00800           0
     18720 MEMB     161      POPE     H11Y     HAL2     0.900000E-01   1.00800           0
     18721 MEMB     161      POPE     C312     CTL2    -0.180000       12.0110           0
     18722 MEMB     161      POPE     H12X     HAL2     0.900000E-01   1.00800           0
     18723 MEMB     161      POPE     H12Y     HAL2     0.900000E-01   1.00800           0
     18724 MEMB     161      POPE     C313     CTL2    -0.180000       12.0110           0
     18725 MEMB     161      POPE     H13X     HAL2     0.900000E-01   1.00800           0
     18726 MEMB     161      POPE     H13Y     HAL2     0.900000E-01   1.00800           0
     18727 MEMB     161      POPE     C314     CTL2    -0.180000       12.0110           0
     18728 MEMB     161      POPE     H14X     HAL2     0.900000E-01   1.00800           0
     18729 MEMB     161      POPE     H14Y     HAL2     0.900000E-01   1.00800           0
     18730 MEMB     161      POPE     C315     CTL2    -0.180000       12.0110           0
     18731 MEMB     161      POPE     H15X     HAL2     0.900000E-01   1.00800           0
     18732 MEMB     161      POPE     H15Y     HAL2     0.900000E-01   1.00800           0
     18733 MEMB     161      POPE     C316     CTL3    -0.270000       12.0110           0
     18734 MEMB     161      POPE     H16X     HAL3     0.900000E-01   1.00800           0
     18735 MEMB     161      POPE     H16Y     HAL3     0.900000E-01   1.00800           0
     18736 MEMB     161      POPE     H16Z     HAL3     0.900000E-01   1.00800           0
     18737 MEMB     162      POPE     N        NH3L    -0.300000       14.0070           0
     18738 MEMB     162      POPE     HN1      HCL      0.330000       1.00800           0
     18739 MEMB     162      POPE     HN2      HCL      0.330000       1.00800           0
     18740 MEMB     162      POPE     HN3      HCL      0.330000       1.00800           0
     18741 MEMB     162      POPE     C12      CTL2     0.130000       12.0110           0
     18742 MEMB     162      POPE     H12A     HAL2     0.900000E-01   1.00800           0
     18743 MEMB     162      POPE     H12B     HAL2     0.900000E-01   1.00800           0
     18744 MEMB     162      POPE     C11      CTL2    -0.800000E-01   12.0110           0
     18745 MEMB     162      POPE     H11A     HAL2     0.900000E-01   1.00800           0
     18746 MEMB     162      POPE     H11B     HAL2     0.900000E-01   1.00800           0
     18747 MEMB     162      POPE     P        PL        1.50000       30.9740           0
     18748 MEMB     162      POPE     O13      O2L     -0.780000       15.9994           0
     18749 MEMB     162      POPE     O14      O2L     -0.780000       15.9994           0
     18750 MEMB     162      POPE     O11      OSLP    -0.570000       15.9994           0
     18751 MEMB     162      POPE     O12      OSLP    -0.570000       15.9994           0
     18752 MEMB     162      POPE     C1       CTL2    -0.800000E-01   12.0110           0
     18753 MEMB     162      POPE     HA       HAL2     0.900000E-01   1.00800           0
     18754 MEMB     162      POPE     HB       HAL2     0.900000E-01   1.00800           0
     18755 MEMB     162      POPE     C2       CTL1     0.170000       12.0110           0
     18756 MEMB     162      POPE     HS       HAL1     0.900000E-01   1.00800           0
     18757 MEMB     162      POPE     O21      OSL     -0.490000       15.9994           0
     18758 MEMB     162      POPE     C21      CL       0.900000       12.0110           0
     18759 MEMB     162      POPE     O22      OBL     -0.630000       15.9994           0
     18760 MEMB     162      POPE     C22      CTL2    -0.220000       12.0110           0
     18761 MEMB     162      POPE     H2R      HAL2     0.900000E-01   1.00800           0
     18762 MEMB     162      POPE     H2S      HAL2     0.900000E-01   1.00800           0
     18763 MEMB     162      POPE     C3       CTL2     0.800000E-01   12.0110           0
     18764 MEMB     162      POPE     HX       HAL2     0.900000E-01   1.00800           0
     18765 MEMB     162      POPE     HY       HAL2     0.900000E-01   1.00800           0
     18766 MEMB     162      POPE     O31      OSL     -0.490000       15.9994           0
     18767 MEMB     162      POPE     C31      CL       0.900000       12.0110           0
     18768 MEMB     162      POPE     O32      OBL     -0.630000       15.9994           0
     18769 MEMB     162      POPE     C32      CTL2    -0.220000       12.0110           0
     18770 MEMB     162      POPE     H2X      HAL2     0.900000E-01   1.00800           0
     18771 MEMB     162      POPE     H2Y      HAL2     0.900000E-01   1.00800           0
     18772 MEMB     162      POPE     C23      CTL2    -0.180000       12.0110           0
     18773 MEMB     162      POPE     H3R      HAL2     0.900000E-01   1.00800           0
     18774 MEMB     162      POPE     H3S      HAL2     0.900000E-01   1.00800           0
     18775 MEMB     162      POPE     C24      CTL2    -0.180000       12.0110           0
     18776 MEMB     162      POPE     H4R      HAL2     0.900000E-01   1.00800           0
     18777 MEMB     162      POPE     H4S      HAL2     0.900000E-01   1.00800           0
     18778 MEMB     162      POPE     C25      CTL2    -0.180000       12.0110           0
     18779 MEMB     162      POPE     H5R      HAL2     0.900000E-01   1.00800           0
     18780 MEMB     162      POPE     H5S      HAL2     0.900000E-01   1.00800           0
     18781 MEMB     162      POPE     C26      CTL2    -0.180000       12.0110           0
     18782 MEMB     162      POPE     H6R      HAL2     0.900000E-01   1.00800           0
     18783 MEMB     162      POPE     H6S      HAL2     0.900000E-01   1.00800           0
     18784 MEMB     162      POPE     C27      CTL2    -0.180000       12.0110           0
     18785 MEMB     162      POPE     H7R      HAL2     0.900000E-01   1.00800           0
     18786 MEMB     162      POPE     H7S      HAL2     0.900000E-01   1.00800           0
     18787 MEMB     162      POPE     C28      CTL2    -0.180000       12.0110           0
     18788 MEMB     162      POPE     H8R      HAL2     0.900000E-01   1.00800           0
     18789 MEMB     162      POPE     H8S      HAL2     0.900000E-01   1.00800           0
     18790 MEMB     162      POPE     C29      CEL1    -0.150000       12.0110           0
     18791 MEMB     162      POPE     H91      HEL1     0.150000       1.00800           0
     18792 MEMB     162      POPE     C210     CEL1    -0.150000       12.0110           0
     18793 MEMB     162      POPE     H101     HEL1     0.150000       1.00800           0
     18794 MEMB     162      POPE     C211     CTL2    -0.180000       12.0110           0
     18795 MEMB     162      POPE     H11R     HAL2     0.900000E-01   1.00800           0
     18796 MEMB     162      POPE     H11S     HAL2     0.900000E-01   1.00800           0
     18797 MEMB     162      POPE     C212     CTL2    -0.180000       12.0110           0
     18798 MEMB     162      POPE     H12R     HAL2     0.900000E-01   1.00800           0
     18799 MEMB     162      POPE     H12S     HAL2     0.900000E-01   1.00800           0
     18800 MEMB     162      POPE     C213     CTL2    -0.180000       12.0110           0
     18801 MEMB     162      POPE     H13R     HAL2     0.900000E-01   1.00800           0
     18802 MEMB     162      POPE     H13S     HAL2     0.900000E-01   1.00800           0
     18803 MEMB     162      POPE     C214     CTL2    -0.180000       12.0110           0
     18804 MEMB     162      POPE     H14R     HAL2     0.900000E-01   1.00800           0
     18805 MEMB     162      POPE     H14S     HAL2     0.900000E-01   1.00800           0
     18806 MEMB     162      POPE     C215     CTL2    -0.180000       12.0110           0
     18807 MEMB     162      POPE     H15R     HAL2     0.900000E-01   1.00800           0
     18808 MEMB     162      POPE     H15S     HAL2     0.900000E-01   1.00800           0
     18809 MEMB     162      POPE     C216     CTL2    -0.180000       12.0110           0
     18810 MEMB     162      POPE     H16R     HAL2     0.900000E-01   1.00800           0
     18811 MEMB     162      POPE     H16S     HAL2     0.900000E-01   1.00800           0
     18812 MEMB     162      POPE     C217     CTL2    -0.180000       12.0110           0
     18813 MEMB     162      POPE     H17R     HAL2     0.900000E-01   1.00800           0
     18814 MEMB     162      POPE     H17S     HAL2     0.900000E-01   1.00800           0
     18815 MEMB     162      POPE     C218     CTL3    -0.270000       12.0110           0
     18816 MEMB     162      POPE     H18R     HAL3     0.900000E-01   1.00800           0
     18817 MEMB     162      POPE     H18S     HAL3     0.900000E-01   1.00800           0
     18818 MEMB     162      POPE     H18T     HAL3     0.900000E-01   1.00800           0
     18819 MEMB     162      POPE     C33      CTL2    -0.180000       12.0110           0
     18820 MEMB     162      POPE     H3X      HAL2     0.900000E-01   1.00800           0
     18821 MEMB     162      POPE     H3Y      HAL2     0.900000E-01   1.00800           0
     18822 MEMB     162      POPE     C34      CTL2    -0.180000       12.0110           0
     18823 MEMB     162      POPE     H4X      HAL2     0.900000E-01   1.00800           0
     18824 MEMB     162      POPE     H4Y      HAL2     0.900000E-01   1.00800           0
     18825 MEMB     162      POPE     C35      CTL2    -0.180000       12.0110           0
     18826 MEMB     162      POPE     H5X      HAL2     0.900000E-01   1.00800           0
     18827 MEMB     162      POPE     H5Y      HAL2     0.900000E-01   1.00800           0
     18828 MEMB     162      POPE     C36      CTL2    -0.180000       12.0110           0
     18829 MEMB     162      POPE     H6X      HAL2     0.900000E-01   1.00800           0
     18830 MEMB     162      POPE     H6Y      HAL2     0.900000E-01   1.00800           0
     18831 MEMB     162      POPE     C37      CTL2    -0.180000       12.0110           0
     18832 MEMB     162      POPE     H7X      HAL2     0.900000E-01   1.00800           0
     18833 MEMB     162      POPE     H7Y      HAL2     0.900000E-01   1.00800           0
     18834 MEMB     162      POPE     C38      CTL2    -0.180000       12.0110           0
     18835 MEMB     162      POPE     H8X      HAL2     0.900000E-01   1.00800           0
     18836 MEMB     162      POPE     H8Y      HAL2     0.900000E-01   1.00800           0
     18837 MEMB     162      POPE     C39      CTL2    -0.180000       12.0110           0
     18838 MEMB     162      POPE     H9X      HAL2     0.900000E-01   1.00800           0
     18839 MEMB     162      POPE     H9Y      HAL2     0.900000E-01   1.00800           0
     18840 MEMB     162      POPE     C310     CTL2    -0.180000       12.0110           0
     18841 MEMB     162      POPE     H10X     HAL2     0.900000E-01   1.00800           0
     18842 MEMB     162      POPE     H10Y     HAL2     0.900000E-01   1.00800           0
     18843 MEMB     162      POPE     C311     CTL2    -0.180000       12.0110           0
     18844 MEMB     162      POPE     H11X     HAL2     0.900000E-01   1.00800           0
     18845 MEMB     162      POPE     H11Y     HAL2     0.900000E-01   1.00800           0
     18846 MEMB     162      POPE     C312     CTL2    -0.180000       12.0110           0
     18847 MEMB     162      POPE     H12X     HAL2     0.900000E-01   1.00800           0
     18848 MEMB     162      POPE     H12Y     HAL2     0.900000E-01   1.00800           0
     18849 MEMB     162      POPE     C313     CTL2    -0.180000       12.0110           0
     18850 MEMB     162      POPE     H13X     HAL2     0.900000E-01   1.00800           0
     18851 MEMB     162      POPE     H13Y     HAL2     0.900000E-01   1.00800           0
     18852 MEMB     162      POPE     C314     CTL2    -0.180000       12.0110           0
     18853 MEMB     162      POPE     H14X     HAL2     0.900000E-01   1.00800           0
     18854 MEMB     162      POPE     H14Y     HAL2     0.900000E-01   1.00800           0
     18855 MEMB     162      POPE     C315     CTL2    -0.180000       12.0110           0
     18856 MEMB     162      POPE     H15X     HAL2     0.900000E-01   1.00800           0
     18857 MEMB     162      POPE     H15Y     HAL2     0.900000E-01   1.00800           0
     18858 MEMB     162      POPE     C316     CTL3    -0.270000       12.0110           0
     18859 MEMB     162      POPE     H16X     HAL3     0.900000E-01   1.00800           0
     18860 MEMB     162      POPE     H16Y     HAL3     0.900000E-01   1.00800           0
     18861 MEMB     162      POPE     H16Z     HAL3     0.900000E-01   1.00800           0
     18862 MEMB     163      POPE     N        NH3L    -0.300000       14.0070           0
     18863 MEMB     163      POPE     HN1      HCL      0.330000       1.00800           0
     18864 MEMB     163      POPE     HN2      HCL      0.330000       1.00800           0
     18865 MEMB     163      POPE     HN3      HCL      0.330000       1.00800           0
     18866 MEMB     163      POPE     C12      CTL2     0.130000       12.0110           0
     18867 MEMB     163      POPE     H12A     HAL2     0.900000E-01   1.00800           0
     18868 MEMB     163      POPE     H12B     HAL2     0.900000E-01   1.00800           0
     18869 MEMB     163      POPE     C11      CTL2    -0.800000E-01   12.0110           0
     18870 MEMB     163      POPE     H11A     HAL2     0.900000E-01   1.00800           0
     18871 MEMB     163      POPE     H11B     HAL2     0.900000E-01   1.00800           0
     18872 MEMB     163      POPE     P        PL        1.50000       30.9740           0
     18873 MEMB     163      POPE     O13      O2L     -0.780000       15.9994           0
     18874 MEMB     163      POPE     O14      O2L     -0.780000       15.9994           0
     18875 MEMB     163      POPE     O11      OSLP    -0.570000       15.9994           0
     18876 MEMB     163      POPE     O12      OSLP    -0.570000       15.9994           0
     18877 MEMB     163      POPE     C1       CTL2    -0.800000E-01   12.0110           0
     18878 MEMB     163      POPE     HA       HAL2     0.900000E-01   1.00800           0
     18879 MEMB     163      POPE     HB       HAL2     0.900000E-01   1.00800           0
     18880 MEMB     163      POPE     C2       CTL1     0.170000       12.0110           0
     18881 MEMB     163      POPE     HS       HAL1     0.900000E-01   1.00800           0
     18882 MEMB     163      POPE     O21      OSL     -0.490000       15.9994           0
     18883 MEMB     163      POPE     C21      CL       0.900000       12.0110           0
     18884 MEMB     163      POPE     O22      OBL     -0.630000       15.9994           0
     18885 MEMB     163      POPE     C22      CTL2    -0.220000       12.0110           0
     18886 MEMB     163      POPE     H2R      HAL2     0.900000E-01   1.00800           0
     18887 MEMB     163      POPE     H2S      HAL2     0.900000E-01   1.00800           0
     18888 MEMB     163      POPE     C3       CTL2     0.800000E-01   12.0110           0
     18889 MEMB     163      POPE     HX       HAL2     0.900000E-01   1.00800           0
     18890 MEMB     163      POPE     HY       HAL2     0.900000E-01   1.00800           0
     18891 MEMB     163      POPE     O31      OSL     -0.490000       15.9994           0
     18892 MEMB     163      POPE     C31      CL       0.900000       12.0110           0
     18893 MEMB     163      POPE     O32      OBL     -0.630000       15.9994           0
     18894 MEMB     163      POPE     C32      CTL2    -0.220000       12.0110           0
     18895 MEMB     163      POPE     H2X      HAL2     0.900000E-01   1.00800           0
     18896 MEMB     163      POPE     H2Y      HAL2     0.900000E-01   1.00800           0
     18897 MEMB     163      POPE     C23      CTL2    -0.180000       12.0110           0
     18898 MEMB     163      POPE     H3R      HAL2     0.900000E-01   1.00800           0
     18899 MEMB     163      POPE     H3S      HAL2     0.900000E-01   1.00800           0
     18900 MEMB     163      POPE     C24      CTL2    -0.180000       12.0110           0
     18901 MEMB     163      POPE     H4R      HAL2     0.900000E-01   1.00800           0
     18902 MEMB     163      POPE     H4S      HAL2     0.900000E-01   1.00800           0
     18903 MEMB     163      POPE     C25      CTL2    -0.180000       12.0110           0
     18904 MEMB     163      POPE     H5R      HAL2     0.900000E-01   1.00800           0
     18905 MEMB     163      POPE     H5S      HAL2     0.900000E-01   1.00800           0
     18906 MEMB     163      POPE     C26      CTL2    -0.180000       12.0110           0
     18907 MEMB     163      POPE     H6R      HAL2     0.900000E-01   1.00800           0
     18908 MEMB     163      POPE     H6S      HAL2     0.900000E-01   1.00800           0
     18909 MEMB     163      POPE     C27      CTL2    -0.180000       12.0110           0
     18910 MEMB     163      POPE     H7R      HAL2     0.900000E-01   1.00800           0
     18911 MEMB     163      POPE     H7S      HAL2     0.900000E-01   1.00800           0
     18912 MEMB     163      POPE     C28      CTL2    -0.180000       12.0110           0
     18913 MEMB     163      POPE     H8R      HAL2     0.900000E-01   1.00800           0
     18914 MEMB     163      POPE     H8S      HAL2     0.900000E-01   1.00800           0
     18915 MEMB     163      POPE     C29      CEL1    -0.150000       12.0110           0
     18916 MEMB     163      POPE     H91      HEL1     0.150000       1.00800           0
     18917 MEMB     163      POPE     C210     CEL1    -0.150000       12.0110           0
     18918 MEMB     163      POPE     H101     HEL1     0.150000       1.00800           0
     18919 MEMB     163      POPE     C211     CTL2    -0.180000       12.0110           0
     18920 MEMB     163      POPE     H11R     HAL2     0.900000E-01   1.00800           0
     18921 MEMB     163      POPE     H11S     HAL2     0.900000E-01   1.00800           0
     18922 MEMB     163      POPE     C212     CTL2    -0.180000       12.0110           0
     18923 MEMB     163      POPE     H12R     HAL2     0.900000E-01   1.00800           0
     18924 MEMB     163      POPE     H12S     HAL2     0.900000E-01   1.00800           0
     18925 MEMB     163      POPE     C213     CTL2    -0.180000       12.0110           0
     18926 MEMB     163      POPE     H13R     HAL2     0.900000E-01   1.00800           0
     18927 MEMB     163      POPE     H13S     HAL2     0.900000E-01   1.00800           0
     18928 MEMB     163      POPE     C214     CTL2    -0.180000       12.0110           0
     18929 MEMB     163      POPE     H14R     HAL2     0.900000E-01   1.00800           0
     18930 MEMB     163      POPE     H14S     HAL2     0.900000E-01   1.00800           0
     18931 MEMB     163      POPE     C215     CTL2    -0.180000       12.0110           0
     18932 MEMB     163      POPE     H15R     HAL2     0.900000E-01   1.00800           0
     18933 MEMB     163      POPE     H15S     HAL2     0.900000E-01   1.00800           0
     18934 MEMB     163      POPE     C216     CTL2    -0.180000       12.0110           0
     18935 MEMB     163      POPE     H16R     HAL2     0.900000E-01   1.00800           0
     18936 MEMB     163      POPE     H16S     HAL2     0.900000E-01   1.00800           0
     18937 MEMB     163      POPE     C217     CTL2    -0.180000       12.0110           0
     18938 MEMB     163      POPE     H17R     HAL2     0.900000E-01   1.00800           0
     18939 MEMB     163      POPE     H17S     HAL2     0.900000E-01   1.00800           0
     18940 MEMB     163      POPE     C218     CTL3    -0.270000       12.0110           0
     18941 MEMB     163      POPE     H18R     HAL3     0.900000E-01   1.00800           0
     18942 MEMB     163      POPE     H18S     HAL3     0.900000E-01   1.00800           0
     18943 MEMB     163      POPE     H18T     HAL3     0.900000E-01   1.00800           0
     18944 MEMB     163      POPE     C33      CTL2    -0.180000       12.0110           0
     18945 MEMB     163      POPE     H3X      HAL2     0.900000E-01   1.00800           0
     18946 MEMB     163      POPE     H3Y      HAL2     0.900000E-01   1.00800           0
     18947 MEMB     163      POPE     C34      CTL2    -0.180000       12.0110           0
     18948 MEMB     163      POPE     H4X      HAL2     0.900000E-01   1.00800           0
     18949 MEMB     163      POPE     H4Y      HAL2     0.900000E-01   1.00800           0
     18950 MEMB     163      POPE     C35      CTL2    -0.180000       12.0110           0
     18951 MEMB     163      POPE     H5X      HAL2     0.900000E-01   1.00800           0
     18952 MEMB     163      POPE     H5Y      HAL2     0.900000E-01   1.00800           0
     18953 MEMB     163      POPE     C36      CTL2    -0.180000       12.0110           0
     18954 MEMB     163      POPE     H6X      HAL2     0.900000E-01   1.00800           0
     18955 MEMB     163      POPE     H6Y      HAL2     0.900000E-01   1.00800           0
     18956 MEMB     163      POPE     C37      CTL2    -0.180000       12.0110           0
     18957 MEMB     163      POPE     H7X      HAL2     0.900000E-01   1.00800           0
     18958 MEMB     163      POPE     H7Y      HAL2     0.900000E-01   1.00800           0
     18959 MEMB     163      POPE     C38      CTL2    -0.180000       12.0110           0
     18960 MEMB     163      POPE     H8X      HAL2     0.900000E-01   1.00800           0
     18961 MEMB     163      POPE     H8Y      HAL2     0.900000E-01   1.00800           0
     18962 MEMB     163      POPE     C39      CTL2    -0.180000       12.0110           0
     18963 MEMB     163      POPE     H9X      HAL2     0.900000E-01   1.00800           0
     18964 MEMB     163      POPE     H9Y      HAL2     0.900000E-01   1.00800           0
     18965 MEMB     163      POPE     C310     CTL2    -0.180000       12.0110           0
     18966 MEMB     163      POPE     H10X     HAL2     0.900000E-01   1.00800           0
     18967 MEMB     163      POPE     H10Y     HAL2     0.900000E-01   1.00800           0
     18968 MEMB     163      POPE     C311     CTL2    -0.180000       12.0110           0
     18969 MEMB     163      POPE     H11X     HAL2     0.900000E-01   1.00800           0
     18970 MEMB     163      POPE     H11Y     HAL2     0.900000E-01   1.00800           0
     18971 MEMB     163      POPE     C312     CTL2    -0.180000       12.0110           0
     18972 MEMB     163      POPE     H12X     HAL2     0.900000E-01   1.00800           0
     18973 MEMB     163      POPE     H12Y     HAL2     0.900000E-01   1.00800           0
     18974 MEMB     163      POPE     C313     CTL2    -0.180000       12.0110           0
     18975 MEMB     163      POPE     H13X     HAL2     0.900000E-01   1.00800           0
     18976 MEMB     163      POPE     H13Y     HAL2     0.900000E-01   1.00800           0
     18977 MEMB     163      POPE     C314     CTL2    -0.180000       12.0110           0
     18978 MEMB     163      POPE     H14X     HAL2     0.900000E-01   1.00800           0
     18979 MEMB     163      POPE     H14Y     HAL2     0.900000E-01   1.00800           0
     18980 MEMB     163      POPE     C315     CTL2    -0.180000       12.0110           0
     18981 MEMB     163      POPE     H15X     HAL2     0.900000E-01   1.00800           0
     18982 MEMB     163      POPE     H15Y     HAL2     0.900000E-01   1.00800           0
     18983 MEMB     163      POPE     C316     CTL3    -0.270000       12.0110           0
     18984 MEMB     163      POPE     H16X     HAL3     0.900000E-01   1.00800           0
     18985 MEMB     163      POPE     H16Y     HAL3     0.900000E-01   1.00800           0
     18986 MEMB     163      POPE     H16Z     HAL3     0.900000E-01   1.00800           0
     18987 MEMB     164      POPE     N        NH3L    -0.300000       14.0070           0
     18988 MEMB     164      POPE     HN1      HCL      0.330000       1.00800           0
     18989 MEMB     164      POPE     HN2      HCL      0.330000       1.00800           0
     18990 MEMB     164      POPE     HN3      HCL      0.330000       1.00800           0
     18991 MEMB     164      POPE     C12      CTL2     0.130000       12.0110           0
     18992 MEMB     164      POPE     H12A     HAL2     0.900000E-01   1.00800           0
     18993 MEMB     164      POPE     H12B     HAL2     0.900000E-01   1.00800           0
     18994 MEMB     164      POPE     C11      CTL2    -0.800000E-01   12.0110           0
     18995 MEMB     164      POPE     H11A     HAL2     0.900000E-01   1.00800           0
     18996 MEMB     164      POPE     H11B     HAL2     0.900000E-01   1.00800           0
     18997 MEMB     164      POPE     P        PL        1.50000       30.9740           0
     18998 MEMB     164      POPE     O13      O2L     -0.780000       15.9994           0
     18999 MEMB     164      POPE     O14      O2L     -0.780000       15.9994           0
     19000 MEMB     164      POPE     O11      OSLP    -0.570000       15.9994           0
     19001 MEMB     164      POPE     O12      OSLP    -0.570000       15.9994           0
     19002 MEMB     164      POPE     C1       CTL2    -0.800000E-01   12.0110           0
     19003 MEMB     164      POPE     HA       HAL2     0.900000E-01   1.00800           0
     19004 MEMB     164      POPE     HB       HAL2     0.900000E-01   1.00800           0
     19005 MEMB     164      POPE     C2       CTL1     0.170000       12.0110           0
     19006 MEMB     164      POPE     HS       HAL1     0.900000E-01   1.00800           0
     19007 MEMB     164      POPE     O21      OSL     -0.490000       15.9994           0
     19008 MEMB     164      POPE     C21      CL       0.900000       12.0110           0
     19009 MEMB     164      POPE     O22      OBL     -0.630000       15.9994           0
     19010 MEMB     164      POPE     C22      CTL2    -0.220000       12.0110           0
     19011 MEMB     164      POPE     H2R      HAL2     0.900000E-01   1.00800           0
     19012 MEMB     164      POPE     H2S      HAL2     0.900000E-01   1.00800           0
     19013 MEMB     164      POPE     C3       CTL2     0.800000E-01   12.0110           0
     19014 MEMB     164      POPE     HX       HAL2     0.900000E-01   1.00800           0
     19015 MEMB     164      POPE     HY       HAL2     0.900000E-01   1.00800           0
     19016 MEMB     164      POPE     O31      OSL     -0.490000       15.9994           0
     19017 MEMB     164      POPE     C31      CL       0.900000       12.0110           0
     19018 MEMB     164      POPE     O32      OBL     -0.630000       15.9994           0
     19019 MEMB     164      POPE     C32      CTL2    -0.220000       12.0110           0
     19020 MEMB     164      POPE     H2X      HAL2     0.900000E-01   1.00800           0
     19021 MEMB     164      POPE     H2Y      HAL2     0.900000E-01   1.00800           0
     19022 MEMB     164      POPE     C23      CTL2    -0.180000       12.0110           0
     19023 MEMB     164      POPE     H3R      HAL2     0.900000E-01   1.00800           0
     19024 MEMB     164      POPE     H3S      HAL2     0.900000E-01   1.00800           0
     19025 MEMB     164      POPE     C24      CTL2    -0.180000       12.0110           0
     19026 MEMB     164      POPE     H4R      HAL2     0.900000E-01   1.00800           0
     19027 MEMB     164      POPE     H4S      HAL2     0.900000E-01   1.00800           0
     19028 MEMB     164      POPE     C25      CTL2    -0.180000       12.0110           0
     19029 MEMB     164      POPE     H5R      HAL2     0.900000E-01   1.00800           0
     19030 MEMB     164      POPE     H5S      HAL2     0.900000E-01   1.00800           0
     19031 MEMB     164      POPE     C26      CTL2    -0.180000       12.0110           0
     19032 MEMB     164      POPE     H6R      HAL2     0.900000E-01   1.00800           0
     19033 MEMB     164      POPE     H6S      HAL2     0.900000E-01   1.00800           0
     19034 MEMB     164      POPE     C27      CTL2    -0.180000       12.0110           0
     19035 MEMB     164      POPE     H7R      HAL2     0.900000E-01   1.00800           0
     19036 MEMB     164      POPE     H7S      HAL2     0.900000E-01   1.00800           0
     19037 MEMB     164      POPE     C28      CTL2    -0.180000       12.0110           0
     19038 MEMB     164      POPE     H8R      HAL2     0.900000E-01   1.00800           0
     19039 MEMB     164      POPE     H8S      HAL2     0.900000E-01   1.00800           0
     19040 MEMB     164      POPE     C29      CEL1    -0.150000       12.0110           0
     19041 MEMB     164      POPE     H91      HEL1     0.150000       1.00800           0
     19042 MEMB     164      POPE     C210     CEL1    -0.150000       12.0110           0
     19043 MEMB     164      POPE     H101     HEL1     0.150000       1.00800           0
     19044 MEMB     164      POPE     C211     CTL2    -0.180000       12.0110           0
     19045 MEMB     164      POPE     H11R     HAL2     0.900000E-01   1.00800           0
     19046 MEMB     164      POPE     H11S     HAL2     0.900000E-01   1.00800           0
     19047 MEMB     164      POPE     C212     CTL2    -0.180000       12.0110           0
     19048 MEMB     164      POPE     H12R     HAL2     0.900000E-01   1.00800           0
     19049 MEMB     164      POPE     H12S     HAL2     0.900000E-01   1.00800           0
     19050 MEMB     164      POPE     C213     CTL2    -0.180000       12.0110           0
     19051 MEMB     164      POPE     H13R     HAL2     0.900000E-01   1.00800           0
     19052 MEMB     164      POPE     H13S     HAL2     0.900000E-01   1.00800           0
     19053 MEMB     164      POPE     C214     CTL2    -0.180000       12.0110           0
     19054 MEMB     164      POPE     H14R     HAL2     0.900000E-01   1.00800           0
     19055 MEMB     164      POPE     H14S     HAL2     0.900000E-01   1.00800           0
     19056 MEMB     164      POPE     C215     CTL2    -0.180000       12.0110           0
     19057 MEMB     164      POPE     H15R     HAL2     0.900000E-01   1.00800           0
     19058 MEMB     164      POPE     H15S     HAL2     0.900000E-01   1.00800           0
     19059 MEMB     164      POPE     C216     CTL2    -0.180000       12.0110           0
     19060 MEMB     164      POPE     H16R     HAL2     0.900000E-01   1.00800           0
     19061 MEMB     164      POPE     H16S     HAL2     0.900000E-01   1.00800           0
     19062 MEMB     164      POPE     C217     CTL2    -0.180000       12.0110           0
     19063 MEMB     164      POPE     H17R     HAL2     0.900000E-01   1.00800           0
     19064 MEMB     164      POPE     H17S     HAL2     0.900000E-01   1.00800           0
     19065 MEMB     164      POPE     C218     CTL3    -0.270000       12.0110           0
     19066 MEMB     164      POPE     H18R     HAL3     0.900000E-01   1.00800           0
     19067 MEMB     164      POPE     H18S     HAL3     0.900000E-01   1.00800           0
     19068 MEMB     164      POPE     H18T     HAL3     0.900000E-01   1.00800           0
     19069 MEMB     164      POPE     C33      CTL2    -0.180000       12.0110           0
     19070 MEMB     164      POPE     H3X      HAL2     0.900000E-01   1.00800           0
     19071 MEMB     164      POPE     H3Y      HAL2     0.900000E-01   1.00800           0
     19072 MEMB     164      POPE     C34      CTL2    -0.180000       12.0110           0
     19073 MEMB     164      POPE     H4X      HAL2     0.900000E-01   1.00800           0
     19074 MEMB     164      POPE     H4Y      HAL2     0.900000E-01   1.00800           0
     19075 MEMB     164      POPE     C35      CTL2    -0.180000       12.0110           0
     19076 MEMB     164      POPE     H5X      HAL2     0.900000E-01   1.00800           0
     19077 MEMB     164      POPE     H5Y      HAL2     0.900000E-01   1.00800           0
     19078 MEMB     164      POPE     C36      CTL2    -0.180000       12.0110           0
     19079 MEMB     164      POPE     H6X      HAL2     0.900000E-01   1.00800           0
     19080 MEMB     164      POPE     H6Y      HAL2     0.900000E-01   1.00800           0
     19081 MEMB     164      POPE     C37      CTL2    -0.180000       12.0110           0
     19082 MEMB     164      POPE     H7X      HAL2     0.900000E-01   1.00800           0
     19083 MEMB     164      POPE     H7Y      HAL2     0.900000E-01   1.00800           0
     19084 MEMB     164      POPE     C38      CTL2    -0.180000       12.0110           0
     19085 MEMB     164      POPE     H8X      HAL2     0.900000E-01   1.00800           0
     19086 MEMB     164      POPE     H8Y      HAL2     0.900000E-01   1.00800           0
     19087 MEMB     164      POPE     C39      CTL2    -0.180000       12.0110           0
     19088 MEMB     164      POPE     H9X      HAL2     0.900000E-01   1.00800           0
     19089 MEMB     164      POPE     H9Y      HAL2     0.900000E-01   1.00800           0
     19090 MEMB     164      POPE     C310     CTL2    -0.180000       12.0110           0
     19091 MEMB     164      POPE     H10X     HAL2     0.900000E-01   1.00800           0
     19092 MEMB     164      POPE     H10Y     HAL2     0.900000E-01   1.00800           0
     19093 MEMB     164      POPE     C311     CTL2    -0.180000       12.0110           0
     19094 MEMB     164      POPE     H11X     HAL2     0.900000E-01   1.00800           0
     19095 MEMB     164      POPE     H11Y     HAL2     0.900000E-01   1.00800           0
     19096 MEMB     164      POPE     C312     CTL2    -0.180000       12.0110           0
     19097 MEMB     164      POPE     H12X     HAL2     0.900000E-01   1.00800           0
     19098 MEMB     164      POPE     H12Y     HAL2     0.900000E-01   1.00800           0
     19099 MEMB     164      POPE     C313     CTL2    -0.180000       12.0110           0
     19100 MEMB     164      POPE     H13X     HAL2     0.900000E-01   1.00800           0
     19101 MEMB     164      POPE     H13Y     HAL2     0.900000E-01   1.00800           0
     19102 MEMB     164      POPE     C314     CTL2    -0.180000       12.0110           0
     19103 MEMB     164      POPE     H14X     HAL2     0.900000E-01   1.00800           0
     19104 MEMB     164      POPE     H14Y     HAL2     0.900000E-01   1.00800           0
     19105 MEMB     164      POPE     C315     CTL2    -0.180000       12.0110           0
     19106 MEMB     164      POPE     H15X     HAL2     0.900000E-01   1.00800           0
     19107 MEMB     164      POPE     H15Y     HAL2     0.900000E-01   1.00800           0
     19108 MEMB     164      POPE     C316     CTL3    -0.270000       12.0110           0
     19109 MEMB     164      POPE     H16X     HAL3     0.900000E-01   1.00800           0
     19110 MEMB     164      POPE     H16Y     HAL3     0.900000E-01   1.00800           0
     19111 MEMB     164      POPE     H16Z     HAL3     0.900000E-01   1.00800           0
     19112 MEMB     165      POPC     N        NTL     -0.600000       14.0070           0
     19113 MEMB     165      POPC     C12      CTL2    -0.100000       12.0110           0
     19114 MEMB     165      POPC     H12A     HL       0.250000       1.00800           0
     19115 MEMB     165      POPC     H12B     HL       0.250000       1.00800           0
     19116 MEMB     165      POPC     C13      CTL5    -0.350000       12.0110           0
     19117 MEMB     165      POPC     H13A     HL       0.250000       1.00800           0
     19118 MEMB     165      POPC     H13B     HL       0.250000       1.00800           0
     19119 MEMB     165      POPC     H13C     HL       0.250000       1.00800           0
     19120 MEMB     165      POPC     C14      CTL5    -0.350000       12.0110           0
     19121 MEMB     165      POPC     H14A     HL       0.250000       1.00800           0
     19122 MEMB     165      POPC     H14B     HL       0.250000       1.00800           0
     19123 MEMB     165      POPC     H14C     HL       0.250000       1.00800           0
     19124 MEMB     165      POPC     C15      CTL5    -0.350000       12.0110           0
     19125 MEMB     165      POPC     H15A     HL       0.250000       1.00800           0
     19126 MEMB     165      POPC     H15B     HL       0.250000       1.00800           0
     19127 MEMB     165      POPC     H15C     HL       0.250000       1.00800           0
     19128 MEMB     165      POPC     C11      CTL2    -0.800000E-01   12.0110           0
     19129 MEMB     165      POPC     H11A     HAL2     0.900000E-01   1.00800           0
     19130 MEMB     165      POPC     H11B     HAL2     0.900000E-01   1.00800           0
     19131 MEMB     165      POPC     P        PL        1.50000       30.9740           0
     19132 MEMB     165      POPC     O13      O2L     -0.780000       15.9994           0
     19133 MEMB     165      POPC     O14      O2L     -0.780000       15.9994           0
     19134 MEMB     165      POPC     O12      OSLP    -0.570000       15.9994           0
     19135 MEMB     165      POPC     O11      OSLP    -0.570000       15.9994           0
     19136 MEMB     165      POPC     C1       CTL2    -0.800000E-01   12.0110           0
     19137 MEMB     165      POPC     HA       HAL2     0.900000E-01   1.00800           0
     19138 MEMB     165      POPC     HB       HAL2     0.900000E-01   1.00800           0
     19139 MEMB     165      POPC     C2       CTL1     0.170000       12.0110           0
     19140 MEMB     165      POPC     HS       HAL1     0.900000E-01   1.00800           0
     19141 MEMB     165      POPC     O21      OSL     -0.490000       15.9994           0
     19142 MEMB     165      POPC     C21      CL       0.900000       12.0110           0
     19143 MEMB     165      POPC     O22      OBL     -0.630000       15.9994           0
     19144 MEMB     165      POPC     C22      CTL2    -0.220000       12.0110           0
     19145 MEMB     165      POPC     H2R      HAL2     0.900000E-01   1.00800           0
     19146 MEMB     165      POPC     H2S      HAL2     0.900000E-01   1.00800           0
     19147 MEMB     165      POPC     C3       CTL2     0.800000E-01   12.0110           0
     19148 MEMB     165      POPC     HX       HAL2     0.900000E-01   1.00800           0
     19149 MEMB     165      POPC     HY       HAL2     0.900000E-01   1.00800           0
     19150 MEMB     165      POPC     O31      OSL     -0.490000       15.9994           0
     19151 MEMB     165      POPC     C31      CL       0.900000       12.0110           0
     19152 MEMB     165      POPC     O32      OBL     -0.630000       15.9994           0
     19153 MEMB     165      POPC     C32      CTL2    -0.220000       12.0110           0
     19154 MEMB     165      POPC     H2X      HAL2     0.900000E-01   1.00800           0
     19155 MEMB     165      POPC     H2Y      HAL2     0.900000E-01   1.00800           0
     19156 MEMB     165      POPC     C23      CTL2    -0.180000       12.0110           0
     19157 MEMB     165      POPC     H3R      HAL2     0.900000E-01   1.00800           0
     19158 MEMB     165      POPC     H3S      HAL2     0.900000E-01   1.00800           0
     19159 MEMB     165      POPC     C24      CTL2    -0.180000       12.0110           0
     19160 MEMB     165      POPC     H4R      HAL2     0.900000E-01   1.00800           0
     19161 MEMB     165      POPC     H4S      HAL2     0.900000E-01   1.00800           0
     19162 MEMB     165      POPC     C25      CTL2    -0.180000       12.0110           0
     19163 MEMB     165      POPC     H5R      HAL2     0.900000E-01   1.00800           0
     19164 MEMB     165      POPC     H5S      HAL2     0.900000E-01   1.00800           0
     19165 MEMB     165      POPC     C26      CTL2    -0.180000       12.0110           0
     19166 MEMB     165      POPC     H6R      HAL2     0.900000E-01   1.00800           0
     19167 MEMB     165      POPC     H6S      HAL2     0.900000E-01   1.00800           0
     19168 MEMB     165      POPC     C27      CTL2    -0.180000       12.0110           0
     19169 MEMB     165      POPC     H7R      HAL2     0.900000E-01   1.00800           0
     19170 MEMB     165      POPC     H7S      HAL2     0.900000E-01   1.00800           0
     19171 MEMB     165      POPC     C28      CTL2    -0.180000       12.0110           0
     19172 MEMB     165      POPC     H8R      HAL2     0.900000E-01   1.00800           0
     19173 MEMB     165      POPC     H8S      HAL2     0.900000E-01   1.00800           0
     19174 MEMB     165      POPC     C29      CEL1    -0.150000       12.0110           0
     19175 MEMB     165      POPC     H91      HEL1     0.150000       1.00800           0
     19176 MEMB     165      POPC     C210     CEL1    -0.150000       12.0110           0
     19177 MEMB     165      POPC     H101     HEL1     0.150000       1.00800           0
     19178 MEMB     165      POPC     C211     CTL2    -0.180000       12.0110           0
     19179 MEMB     165      POPC     H11R     HAL2     0.900000E-01   1.00800           0
     19180 MEMB     165      POPC     H11S     HAL2     0.900000E-01   1.00800           0
     19181 MEMB     165      POPC     C212     CTL2    -0.180000       12.0110           0
     19182 MEMB     165      POPC     H12R     HAL2     0.900000E-01   1.00800           0
     19183 MEMB     165      POPC     H12S     HAL2     0.900000E-01   1.00800           0
     19184 MEMB     165      POPC     C213     CTL2    -0.180000       12.0110           0
     19185 MEMB     165      POPC     H13R     HAL2     0.900000E-01   1.00800           0
     19186 MEMB     165      POPC     H13S     HAL2     0.900000E-01   1.00800           0
     19187 MEMB     165      POPC     C214     CTL2    -0.180000       12.0110           0
     19188 MEMB     165      POPC     H14R     HAL2     0.900000E-01   1.00800           0
     19189 MEMB     165      POPC     H14S     HAL2     0.900000E-01   1.00800           0
     19190 MEMB     165      POPC     C215     CTL2    -0.180000       12.0110           0
     19191 MEMB     165      POPC     H15R     HAL2     0.900000E-01   1.00800           0
     19192 MEMB     165      POPC     H15S     HAL2     0.900000E-01   1.00800           0
     19193 MEMB     165      POPC     C216     CTL2    -0.180000       12.0110           0
     19194 MEMB     165      POPC     H16R     HAL2     0.900000E-01   1.00800           0
     19195 MEMB     165      POPC     H16S     HAL2     0.900000E-01   1.00800           0
     19196 MEMB     165      POPC     C217     CTL2    -0.180000       12.0110           0
     19197 MEMB     165      POPC     H17R     HAL2     0.900000E-01   1.00800           0
     19198 MEMB     165      POPC     H17S     HAL2     0.900000E-01   1.00800           0
     19199 MEMB     165      POPC     C218     CTL3    -0.270000       12.0110           0
     19200 MEMB     165      POPC     H18R     HAL3     0.900000E-01   1.00800           0
     19201 MEMB     165      POPC     H18S     HAL3     0.900000E-01   1.00800           0
     19202 MEMB     165      POPC     H18T     HAL3     0.900000E-01   1.00800           0
     19203 MEMB     165      POPC     C33      CTL2    -0.180000       12.0110           0
     19204 MEMB     165      POPC     H3X      HAL2     0.900000E-01   1.00800           0
     19205 MEMB     165      POPC     H3Y      HAL2     0.900000E-01   1.00800           0
     19206 MEMB     165      POPC     C34      CTL2    -0.180000       12.0110           0
     19207 MEMB     165      POPC     H4X      HAL2     0.900000E-01   1.00800           0
     19208 MEMB     165      POPC     H4Y      HAL2     0.900000E-01   1.00800           0
     19209 MEMB     165      POPC     C35      CTL2    -0.180000       12.0110           0
     19210 MEMB     165      POPC     H5X      HAL2     0.900000E-01   1.00800           0
     19211 MEMB     165      POPC     H5Y      HAL2     0.900000E-01   1.00800           0
     19212 MEMB     165      POPC     C36      CTL2    -0.180000       12.0110           0
     19213 MEMB     165      POPC     H6X      HAL2     0.900000E-01   1.00800           0
     19214 MEMB     165      POPC     H6Y      HAL2     0.900000E-01   1.00800           0
     19215 MEMB     165      POPC     C37      CTL2    -0.180000       12.0110           0
     19216 MEMB     165      POPC     H7X      HAL2     0.900000E-01   1.00800           0
     19217 MEMB     165      POPC     H7Y      HAL2     0.900000E-01   1.00800           0
     19218 MEMB     165      POPC     C38      CTL2    -0.180000       12.0110           0
     19219 MEMB     165      POPC     H8X      HAL2     0.900000E-01   1.00800           0
     19220 MEMB     165      POPC     H8Y      HAL2     0.900000E-01   1.00800           0
     19221 MEMB     165      POPC     C39      CTL2    -0.180000       12.0110           0
     19222 MEMB     165      POPC     H9X      HAL2     0.900000E-01   1.00800           0
     19223 MEMB     165      POPC     H9Y      HAL2     0.900000E-01   1.00800           0
     19224 MEMB     165      POPC     C310     CTL2    -0.180000       12.0110           0
     19225 MEMB     165      POPC     H10X     HAL2     0.900000E-01   1.00800           0
     19226 MEMB     165      POPC     H10Y     HAL2     0.900000E-01   1.00800           0
     19227 MEMB     165      POPC     C311     CTL2    -0.180000       12.0110           0
     19228 MEMB     165      POPC     H11X     HAL2     0.900000E-01   1.00800           0
     19229 MEMB     165      POPC     H11Y     HAL2     0.900000E-01   1.00800           0
     19230 MEMB     165      POPC     C312     CTL2    -0.180000       12.0110           0
     19231 MEMB     165      POPC     H12X     HAL2     0.900000E-01   1.00800           0
     19232 MEMB     165      POPC     H12Y     HAL2     0.900000E-01   1.00800           0
     19233 MEMB     165      POPC     C313     CTL2    -0.180000       12.0110           0
     19234 MEMB     165      POPC     H13X     HAL2     0.900000E-01   1.00800           0
     19235 MEMB     165      POPC     H13Y     HAL2     0.900000E-01   1.00800           0
     19236 MEMB     165      POPC     C314     CTL2    -0.180000       12.0110           0
     19237 MEMB     165      POPC     H14X     HAL2     0.900000E-01   1.00800           0
     19238 MEMB     165      POPC     H14Y     HAL2     0.900000E-01   1.00800           0
     19239 MEMB     165      POPC     C315     CTL2    -0.180000       12.0110           0
     19240 MEMB     165      POPC     H15X     HAL2     0.900000E-01   1.00800           0
     19241 MEMB     165      POPC     H15Y     HAL2     0.900000E-01   1.00800           0
     19242 MEMB     165      POPC     C316     CTL3    -0.270000       12.0110           0
     19243 MEMB     165      POPC     H16X     HAL3     0.900000E-01   1.00800           0
     19244 MEMB     165      POPC     H16Y     HAL3     0.900000E-01   1.00800           0
     19245 MEMB     165      POPC     H16Z     HAL3     0.900000E-01   1.00800           0
     19246 MEMB     166      POPC     N        NTL     -0.600000       14.0070           0
     19247 MEMB     166      POPC     C12      CTL2    -0.100000       12.0110           0
     19248 MEMB     166      POPC     H12A     HL       0.250000       1.00800           0
     19249 MEMB     166      POPC     H12B     HL       0.250000       1.00800           0
     19250 MEMB     166      POPC     C13      CTL5    -0.350000       12.0110           0
     19251 MEMB     166      POPC     H13A     HL       0.250000       1.00800           0
     19252 MEMB     166      POPC     H13B     HL       0.250000       1.00800           0
     19253 MEMB     166      POPC     H13C     HL       0.250000       1.00800           0
     19254 MEMB     166      POPC     C14      CTL5    -0.350000       12.0110           0
     19255 MEMB     166      POPC     H14A     HL       0.250000       1.00800           0
     19256 MEMB     166      POPC     H14B     HL       0.250000       1.00800           0
     19257 MEMB     166      POPC     H14C     HL       0.250000       1.00800           0
     19258 MEMB     166      POPC     C15      CTL5    -0.350000       12.0110           0
     19259 MEMB     166      POPC     H15A     HL       0.250000       1.00800           0
     19260 MEMB     166      POPC     H15B     HL       0.250000       1.00800           0
     19261 MEMB     166      POPC     H15C     HL       0.250000       1.00800           0
     19262 MEMB     166      POPC     C11      CTL2    -0.800000E-01   12.0110           0
     19263 MEMB     166      POPC     H11A     HAL2     0.900000E-01   1.00800           0
     19264 MEMB     166      POPC     H11B     HAL2     0.900000E-01   1.00800           0
     19265 MEMB     166      POPC     P        PL        1.50000       30.9740           0
     19266 MEMB     166      POPC     O13      O2L     -0.780000       15.9994           0
     19267 MEMB     166      POPC     O14      O2L     -0.780000       15.9994           0
     19268 MEMB     166      POPC     O12      OSLP    -0.570000       15.9994           0
     19269 MEMB     166      POPC     O11      OSLP    -0.570000       15.9994           0
     19270 MEMB     166      POPC     C1       CTL2    -0.800000E-01   12.0110           0
     19271 MEMB     166      POPC     HA       HAL2     0.900000E-01   1.00800           0
     19272 MEMB     166      POPC     HB       HAL2     0.900000E-01   1.00800           0
     19273 MEMB     166      POPC     C2       CTL1     0.170000       12.0110           0
     19274 MEMB     166      POPC     HS       HAL1     0.900000E-01   1.00800           0
     19275 MEMB     166      POPC     O21      OSL     -0.490000       15.9994           0
     19276 MEMB     166      POPC     C21      CL       0.900000       12.0110           0
     19277 MEMB     166      POPC     O22      OBL     -0.630000       15.9994           0
     19278 MEMB     166      POPC     C22      CTL2    -0.220000       12.0110           0
     19279 MEMB     166      POPC     H2R      HAL2     0.900000E-01   1.00800           0
     19280 MEMB     166      POPC     H2S      HAL2     0.900000E-01   1.00800           0
     19281 MEMB     166      POPC     C3       CTL2     0.800000E-01   12.0110           0
     19282 MEMB     166      POPC     HX       HAL2     0.900000E-01   1.00800           0
     19283 MEMB     166      POPC     HY       HAL2     0.900000E-01   1.00800           0
     19284 MEMB     166      POPC     O31      OSL     -0.490000       15.9994           0
     19285 MEMB     166      POPC     C31      CL       0.900000       12.0110           0
     19286 MEMB     166      POPC     O32      OBL     -0.630000       15.9994           0
     19287 MEMB     166      POPC     C32      CTL2    -0.220000       12.0110           0
     19288 MEMB     166      POPC     H2X      HAL2     0.900000E-01   1.00800           0
     19289 MEMB     166      POPC     H2Y      HAL2     0.900000E-01   1.00800           0
     19290 MEMB     166      POPC     C23      CTL2    -0.180000       12.0110           0
     19291 MEMB     166      POPC     H3R      HAL2     0.900000E-01   1.00800           0
     19292 MEMB     166      POPC     H3S      HAL2     0.900000E-01   1.00800           0
     19293 MEMB     166      POPC     C24      CTL2    -0.180000       12.0110           0
     19294 MEMB     166      POPC     H4R      HAL2     0.900000E-01   1.00800           0
     19295 MEMB     166      POPC     H4S      HAL2     0.900000E-01   1.00800           0
     19296 MEMB     166      POPC     C25      CTL2    -0.180000       12.0110           0
     19297 MEMB     166      POPC     H5R      HAL2     0.900000E-01   1.00800           0
     19298 MEMB     166      POPC     H5S      HAL2     0.900000E-01   1.00800           0
     19299 MEMB     166      POPC     C26      CTL2    -0.180000       12.0110           0
     19300 MEMB     166      POPC     H6R      HAL2     0.900000E-01   1.00800           0
     19301 MEMB     166      POPC     H6S      HAL2     0.900000E-01   1.00800           0
     19302 MEMB     166      POPC     C27      CTL2    -0.180000       12.0110           0
     19303 MEMB     166      POPC     H7R      HAL2     0.900000E-01   1.00800           0
     19304 MEMB     166      POPC     H7S      HAL2     0.900000E-01   1.00800           0
     19305 MEMB     166      POPC     C28      CTL2    -0.180000       12.0110           0
     19306 MEMB     166      POPC     H8R      HAL2     0.900000E-01   1.00800           0
     19307 MEMB     166      POPC     H8S      HAL2     0.900000E-01   1.00800           0
     19308 MEMB     166      POPC     C29      CEL1    -0.150000       12.0110           0
     19309 MEMB     166      POPC     H91      HEL1     0.150000       1.00800           0
     19310 MEMB     166      POPC     C210     CEL1    -0.150000       12.0110           0
     19311 MEMB     166      POPC     H101     HEL1     0.150000       1.00800           0
     19312 MEMB     166      POPC     C211     CTL2    -0.180000       12.0110           0
     19313 MEMB     166      POPC     H11R     HAL2     0.900000E-01   1.00800           0
     19314 MEMB     166      POPC     H11S     HAL2     0.900000E-01   1.00800           0
     19315 MEMB     166      POPC     C212     CTL2    -0.180000       12.0110           0
     19316 MEMB     166      POPC     H12R     HAL2     0.900000E-01   1.00800           0
     19317 MEMB     166      POPC     H12S     HAL2     0.900000E-01   1.00800           0
     19318 MEMB     166      POPC     C213     CTL2    -0.180000       12.0110           0
     19319 MEMB     166      POPC     H13R     HAL2     0.900000E-01   1.00800           0
     19320 MEMB     166      POPC     H13S     HAL2     0.900000E-01   1.00800           0
     19321 MEMB     166      POPC     C214     CTL2    -0.180000       12.0110           0
     19322 MEMB     166      POPC     H14R     HAL2     0.900000E-01   1.00800           0
     19323 MEMB     166      POPC     H14S     HAL2     0.900000E-01   1.00800           0
     19324 MEMB     166      POPC     C215     CTL2    -0.180000       12.0110           0
     19325 MEMB     166      POPC     H15R     HAL2     0.900000E-01   1.00800           0
     19326 MEMB     166      POPC     H15S     HAL2     0.900000E-01   1.00800           0
     19327 MEMB     166      POPC     C216     CTL2    -0.180000       12.0110           0
     19328 MEMB     166      POPC     H16R     HAL2     0.900000E-01   1.00800           0
     19329 MEMB     166      POPC     H16S     HAL2     0.900000E-01   1.00800           0
     19330 MEMB     166      POPC     C217     CTL2    -0.180000       12.0110           0
     19331 MEMB     166      POPC     H17R     HAL2     0.900000E-01   1.00800           0
     19332 MEMB     166      POPC     H17S     HAL2     0.900000E-01   1.00800           0
     19333 MEMB     166      POPC     C218     CTL3    -0.270000       12.0110           0
     19334 MEMB     166      POPC     H18R     HAL3     0.900000E-01   1.00800           0
     19335 MEMB     166      POPC     H18S     HAL3     0.900000E-01   1.00800           0
     19336 MEMB     166      POPC     H18T     HAL3     0.900000E-01   1.00800           0
     19337 MEMB     166      POPC     C33      CTL2    -0.180000       12.0110           0
     19338 MEMB     166      POPC     H3X      HAL2     0.900000E-01   1.00800           0
     19339 MEMB     166      POPC     H3Y      HAL2     0.900000E-01   1.00800           0
     19340 MEMB     166      POPC     C34      CTL2    -0.180000       12.0110           0
     19341 MEMB     166      POPC     H4X      HAL2     0.900000E-01   1.00800           0
     19342 MEMB     166      POPC     H4Y      HAL2     0.900000E-01   1.00800           0
     19343 MEMB     166      POPC     C35      CTL2    -0.180000       12.0110           0
     19344 MEMB     166      POPC     H5X      HAL2     0.900000E-01   1.00800           0
     19345 MEMB     166      POPC     H5Y      HAL2     0.900000E-01   1.00800           0
     19346 MEMB     166      POPC     C36      CTL2    -0.180000       12.0110           0
     19347 MEMB     166      POPC     H6X      HAL2     0.900000E-01   1.00800           0
     19348 MEMB     166      POPC     H6Y      HAL2     0.900000E-01   1.00800           0
     19349 MEMB     166      POPC     C37      CTL2    -0.180000       12.0110           0
     19350 MEMB     166      POPC     H7X      HAL2     0.900000E-01   1.00800           0
     19351 MEMB     166      POPC     H7Y      HAL2     0.900000E-01   1.00800           0
     19352 MEMB     166      POPC     C38      CTL2    -0.180000       12.0110           0
     19353 MEMB     166      POPC     H8X      HAL2     0.900000E-01   1.00800           0
     19354 MEMB     166      POPC     H8Y      HAL2     0.900000E-01   1.00800           0
     19355 MEMB     166      POPC     C39      CTL2    -0.180000       12.0110           0
     19356 MEMB     166      POPC     H9X      HAL2     0.900000E-01   1.00800           0
     19357 MEMB     166      POPC     H9Y      HAL2     0.900000E-01   1.00800           0
     19358 MEMB     166      POPC     C310     CTL2    -0.180000       12.0110           0
     19359 MEMB     166      POPC     H10X     HAL2     0.900000E-01   1.00800           0
     19360 MEMB     166      POPC     H10Y     HAL2     0.900000E-01   1.00800           0
     19361 MEMB     166      POPC     C311     CTL2    -0.180000       12.0110           0
     19362 MEMB     166      POPC     H11X     HAL2     0.900000E-01   1.00800           0
     19363 MEMB     166      POPC     H11Y     HAL2     0.900000E-01   1.00800           0
     19364 MEMB     166      POPC     C312     CTL2    -0.180000       12.0110           0
     19365 MEMB     166      POPC     H12X     HAL2     0.900000E-01   1.00800           0
     19366 MEMB     166      POPC     H12Y     HAL2     0.900000E-01   1.00800           0
     19367 MEMB     166      POPC     C313     CTL2    -0.180000       12.0110           0
     19368 MEMB     166      POPC     H13X     HAL2     0.900000E-01   1.00800           0
     19369 MEMB     166      POPC     H13Y     HAL2     0.900000E-01   1.00800           0
     19370 MEMB     166      POPC     C314     CTL2    -0.180000       12.0110           0
     19371 MEMB     166      POPC     H14X     HAL2     0.900000E-01   1.00800           0
     19372 MEMB     166      POPC     H14Y     HAL2     0.900000E-01   1.00800           0
     19373 MEMB     166      POPC     C315     CTL2    -0.180000       12.0110           0
     19374 MEMB     166      POPC     H15X     HAL2     0.900000E-01   1.00800           0
     19375 MEMB     166      POPC     H15Y     HAL2     0.900000E-01   1.00800           0
     19376 MEMB     166      POPC     C316     CTL3    -0.270000       12.0110           0
     19377 MEMB     166      POPC     H16X     HAL3     0.900000E-01   1.00800           0
     19378 MEMB     166      POPC     H16Y     HAL3     0.900000E-01   1.00800           0
     19379 MEMB     166      POPC     H16Z     HAL3     0.900000E-01   1.00800           0
     19380 MEMB     167      POPE     N        NH3L    -0.300000       14.0070           0
     19381 MEMB     167      POPE     HN1      HCL      0.330000       1.00800           0
     19382 MEMB     167      POPE     HN2      HCL      0.330000       1.00800           0
     19383 MEMB     167      POPE     HN3      HCL      0.330000       1.00800           0
     19384 MEMB     167      POPE     C12      CTL2     0.130000       12.0110           0
     19385 MEMB     167      POPE     H12A     HAL2     0.900000E-01   1.00800           0
     19386 MEMB     167      POPE     H12B     HAL2     0.900000E-01   1.00800           0
     19387 MEMB     167      POPE     C11      CTL2    -0.800000E-01   12.0110           0
     19388 MEMB     167      POPE     H11A     HAL2     0.900000E-01   1.00800           0
     19389 MEMB     167      POPE     H11B     HAL2     0.900000E-01   1.00800           0
     19390 MEMB     167      POPE     P        PL        1.50000       30.9740           0
     19391 MEMB     167      POPE     O13      O2L     -0.780000       15.9994           0
     19392 MEMB     167      POPE     O14      O2L     -0.780000       15.9994           0
     19393 MEMB     167      POPE     O11      OSLP    -0.570000       15.9994           0
     19394 MEMB     167      POPE     O12      OSLP    -0.570000       15.9994           0
     19395 MEMB     167      POPE     C1       CTL2    -0.800000E-01   12.0110           0
     19396 MEMB     167      POPE     HA       HAL2     0.900000E-01   1.00800           0
     19397 MEMB     167      POPE     HB       HAL2     0.900000E-01   1.00800           0
     19398 MEMB     167      POPE     C2       CTL1     0.170000       12.0110           0
     19399 MEMB     167      POPE     HS       HAL1     0.900000E-01   1.00800           0
     19400 MEMB     167      POPE     O21      OSL     -0.490000       15.9994           0
     19401 MEMB     167      POPE     C21      CL       0.900000       12.0110           0
     19402 MEMB     167      POPE     O22      OBL     -0.630000       15.9994           0
     19403 MEMB     167      POPE     C22      CTL2    -0.220000       12.0110           0
     19404 MEMB     167      POPE     H2R      HAL2     0.900000E-01   1.00800           0
     19405 MEMB     167      POPE     H2S      HAL2     0.900000E-01   1.00800           0
     19406 MEMB     167      POPE     C3       CTL2     0.800000E-01   12.0110           0
     19407 MEMB     167      POPE     HX       HAL2     0.900000E-01   1.00800           0
     19408 MEMB     167      POPE     HY       HAL2     0.900000E-01   1.00800           0
     19409 MEMB     167      POPE     O31      OSL     -0.490000       15.9994           0
     19410 MEMB     167      POPE     C31      CL       0.900000       12.0110           0
     19411 MEMB     167      POPE     O32      OBL     -0.630000       15.9994           0
     19412 MEMB     167      POPE     C32      CTL2    -0.220000       12.0110           0
     19413 MEMB     167      POPE     H2X      HAL2     0.900000E-01   1.00800           0
     19414 MEMB     167      POPE     H2Y      HAL2     0.900000E-01   1.00800           0
     19415 MEMB     167      POPE     C23      CTL2    -0.180000       12.0110           0
     19416 MEMB     167      POPE     H3R      HAL2     0.900000E-01   1.00800           0
     19417 MEMB     167      POPE     H3S      HAL2     0.900000E-01   1.00800           0
     19418 MEMB     167      POPE     C24      CTL2    -0.180000       12.0110           0
     19419 MEMB     167      POPE     H4R      HAL2     0.900000E-01   1.00800           0
     19420 MEMB     167      POPE     H4S      HAL2     0.900000E-01   1.00800           0
     19421 MEMB     167      POPE     C25      CTL2    -0.180000       12.0110           0
     19422 MEMB     167      POPE     H5R      HAL2     0.900000E-01   1.00800           0
     19423 MEMB     167      POPE     H5S      HAL2     0.900000E-01   1.00800           0
     19424 MEMB     167      POPE     C26      CTL2    -0.180000       12.0110           0
     19425 MEMB     167      POPE     H6R      HAL2     0.900000E-01   1.00800           0
     19426 MEMB     167      POPE     H6S      HAL2     0.900000E-01   1.00800           0
     19427 MEMB     167      POPE     C27      CTL2    -0.180000       12.0110           0
     19428 MEMB     167      POPE     H7R      HAL2     0.900000E-01   1.00800           0
     19429 MEMB     167      POPE     H7S      HAL2     0.900000E-01   1.00800           0
     19430 MEMB     167      POPE     C28      CTL2    -0.180000       12.0110           0
     19431 MEMB     167      POPE     H8R      HAL2     0.900000E-01   1.00800           0
     19432 MEMB     167      POPE     H8S      HAL2     0.900000E-01   1.00800           0
     19433 MEMB     167      POPE     C29      CEL1    -0.150000       12.0110           0
     19434 MEMB     167      POPE     H91      HEL1     0.150000       1.00800           0
     19435 MEMB     167      POPE     C210     CEL1    -0.150000       12.0110           0
     19436 MEMB     167      POPE     H101     HEL1     0.150000       1.00800           0
     19437 MEMB     167      POPE     C211     CTL2    -0.180000       12.0110           0
     19438 MEMB     167      POPE     H11R     HAL2     0.900000E-01   1.00800           0
     19439 MEMB     167      POPE     H11S     HAL2     0.900000E-01   1.00800           0
     19440 MEMB     167      POPE     C212     CTL2    -0.180000       12.0110           0
     19441 MEMB     167      POPE     H12R     HAL2     0.900000E-01   1.00800           0
     19442 MEMB     167      POPE     H12S     HAL2     0.900000E-01   1.00800           0
     19443 MEMB     167      POPE     C213     CTL2    -0.180000       12.0110           0
     19444 MEMB     167      POPE     H13R     HAL2     0.900000E-01   1.00800           0
     19445 MEMB     167      POPE     H13S     HAL2     0.900000E-01   1.00800           0
     19446 MEMB     167      POPE     C214     CTL2    -0.180000       12.0110           0
     19447 MEMB     167      POPE     H14R     HAL2     0.900000E-01   1.00800           0
     19448 MEMB     167      POPE     H14S     HAL2     0.900000E-01   1.00800           0
     19449 MEMB     167      POPE     C215     CTL2    -0.180000       12.0110           0
     19450 MEMB     167      POPE     H15R     HAL2     0.900000E-01   1.00800           0
     19451 MEMB     167      POPE     H15S     HAL2     0.900000E-01   1.00800           0
     19452 MEMB     167      POPE     C216     CTL2    -0.180000       12.0110           0
     19453 MEMB     167      POPE     H16R     HAL2     0.900000E-01   1.00800           0
     19454 MEMB     167      POPE     H16S     HAL2     0.900000E-01   1.00800           0
     19455 MEMB     167      POPE     C217     CTL2    -0.180000       12.0110           0
     19456 MEMB     167      POPE     H17R     HAL2     0.900000E-01   1.00800           0
     19457 MEMB     167      POPE     H17S     HAL2     0.900000E-01   1.00800           0
     19458 MEMB     167      POPE     C218     CTL3    -0.270000       12.0110           0
     19459 MEMB     167      POPE     H18R     HAL3     0.900000E-01   1.00800           0
     19460 MEMB     167      POPE     H18S     HAL3     0.900000E-01   1.00800           0
     19461 MEMB     167      POPE     H18T     HAL3     0.900000E-01   1.00800           0
     19462 MEMB     167      POPE     C33      CTL2    -0.180000       12.0110           0
     19463 MEMB     167      POPE     H3X      HAL2     0.900000E-01   1.00800           0
     19464 MEMB     167      POPE     H3Y      HAL2     0.900000E-01   1.00800           0
     19465 MEMB     167      POPE     C34      CTL2    -0.180000       12.0110           0
     19466 MEMB     167      POPE     H4X      HAL2     0.900000E-01   1.00800           0
     19467 MEMB     167      POPE     H4Y      HAL2     0.900000E-01   1.00800           0
     19468 MEMB     167      POPE     C35      CTL2    -0.180000       12.0110           0
     19469 MEMB     167      POPE     H5X      HAL2     0.900000E-01   1.00800           0
     19470 MEMB     167      POPE     H5Y      HAL2     0.900000E-01   1.00800           0
     19471 MEMB     167      POPE     C36      CTL2    -0.180000       12.0110           0
     19472 MEMB     167      POPE     H6X      HAL2     0.900000E-01   1.00800           0
     19473 MEMB     167      POPE     H6Y      HAL2     0.900000E-01   1.00800           0
     19474 MEMB     167      POPE     C37      CTL2    -0.180000       12.0110           0
     19475 MEMB     167      POPE     H7X      HAL2     0.900000E-01   1.00800           0
     19476 MEMB     167      POPE     H7Y      HAL2     0.900000E-01   1.00800           0
     19477 MEMB     167      POPE     C38      CTL2    -0.180000       12.0110           0
     19478 MEMB     167      POPE     H8X      HAL2     0.900000E-01   1.00800           0
     19479 MEMB     167      POPE     H8Y      HAL2     0.900000E-01   1.00800           0
     19480 MEMB     167      POPE     C39      CTL2    -0.180000       12.0110           0
     19481 MEMB     167      POPE     H9X      HAL2     0.900000E-01   1.00800           0
     19482 MEMB     167      POPE     H9Y      HAL2     0.900000E-01   1.00800           0
     19483 MEMB     167      POPE     C310     CTL2    -0.180000       12.0110           0
     19484 MEMB     167      POPE     H10X     HAL2     0.900000E-01   1.00800           0
     19485 MEMB     167      POPE     H10Y     HAL2     0.900000E-01   1.00800           0
     19486 MEMB     167      POPE     C311     CTL2    -0.180000       12.0110           0
     19487 MEMB     167      POPE     H11X     HAL2     0.900000E-01   1.00800           0
     19488 MEMB     167      POPE     H11Y     HAL2     0.900000E-01   1.00800           0
     19489 MEMB     167      POPE     C312     CTL2    -0.180000       12.0110           0
     19490 MEMB     167      POPE     H12X     HAL2     0.900000E-01   1.00800           0
     19491 MEMB     167      POPE     H12Y     HAL2     0.900000E-01   1.00800           0
     19492 MEMB     167      POPE     C313     CTL2    -0.180000       12.0110           0
     19493 MEMB     167      POPE     H13X     HAL2     0.900000E-01   1.00800           0
     19494 MEMB     167      POPE     H13Y     HAL2     0.900000E-01   1.00800           0
     19495 MEMB     167      POPE     C314     CTL2    -0.180000       12.0110           0
     19496 MEMB     167      POPE     H14X     HAL2     0.900000E-01   1.00800           0
     19497 MEMB     167      POPE     H14Y     HAL2     0.900000E-01   1.00800           0
     19498 MEMB     167      POPE     C315     CTL2    -0.180000       12.0110           0
     19499 MEMB     167      POPE     H15X     HAL2     0.900000E-01   1.00800           0
     19500 MEMB     167      POPE     H15Y     HAL2     0.900000E-01   1.00800           0
     19501 MEMB     167      POPE     C316     CTL3    -0.270000       12.0110           0
     19502 MEMB     167      POPE     H16X     HAL3     0.900000E-01   1.00800           0
     19503 MEMB     167      POPE     H16Y     HAL3     0.900000E-01   1.00800           0
     19504 MEMB     167      POPE     H16Z     HAL3     0.900000E-01   1.00800           0
     19505 MEMB     168      POPC     N        NTL     -0.600000       14.0070           0
     19506 MEMB     168      POPC     C12      CTL2    -0.100000       12.0110           0
     19507 MEMB     168      POPC     H12A     HL       0.250000       1.00800           0
     19508 MEMB     168      POPC     H12B     HL       0.250000       1.00800           0
     19509 MEMB     168      POPC     C13      CTL5    -0.350000       12.0110           0
     19510 MEMB     168      POPC     H13A     HL       0.250000       1.00800           0
     19511 MEMB     168      POPC     H13B     HL       0.250000       1.00800           0
     19512 MEMB     168      POPC     H13C     HL       0.250000       1.00800           0
     19513 MEMB     168      POPC     C14      CTL5    -0.350000       12.0110           0
     19514 MEMB     168      POPC     H14A     HL       0.250000       1.00800           0
     19515 MEMB     168      POPC     H14B     HL       0.250000       1.00800           0
     19516 MEMB     168      POPC     H14C     HL       0.250000       1.00800           0
     19517 MEMB     168      POPC     C15      CTL5    -0.350000       12.0110           0
     19518 MEMB     168      POPC     H15A     HL       0.250000       1.00800           0
     19519 MEMB     168      POPC     H15B     HL       0.250000       1.00800           0
     19520 MEMB     168      POPC     H15C     HL       0.250000       1.00800           0
     19521 MEMB     168      POPC     C11      CTL2    -0.800000E-01   12.0110           0
     19522 MEMB     168      POPC     H11A     HAL2     0.900000E-01   1.00800           0
     19523 MEMB     168      POPC     H11B     HAL2     0.900000E-01   1.00800           0
     19524 MEMB     168      POPC     P        PL        1.50000       30.9740           0
     19525 MEMB     168      POPC     O13      O2L     -0.780000       15.9994           0
     19526 MEMB     168      POPC     O14      O2L     -0.780000       15.9994           0
     19527 MEMB     168      POPC     O12      OSLP    -0.570000       15.9994           0
     19528 MEMB     168      POPC     O11      OSLP    -0.570000       15.9994           0
     19529 MEMB     168      POPC     C1       CTL2    -0.800000E-01   12.0110           0
     19530 MEMB     168      POPC     HA       HAL2     0.900000E-01   1.00800           0
     19531 MEMB     168      POPC     HB       HAL2     0.900000E-01   1.00800           0
     19532 MEMB     168      POPC     C2       CTL1     0.170000       12.0110           0
     19533 MEMB     168      POPC     HS       HAL1     0.900000E-01   1.00800           0
     19534 MEMB     168      POPC     O21      OSL     -0.490000       15.9994           0
     19535 MEMB     168      POPC     C21      CL       0.900000       12.0110           0
     19536 MEMB     168      POPC     O22      OBL     -0.630000       15.9994           0
     19537 MEMB     168      POPC     C22      CTL2    -0.220000       12.0110           0
     19538 MEMB     168      POPC     H2R      HAL2     0.900000E-01   1.00800           0
     19539 MEMB     168      POPC     H2S      HAL2     0.900000E-01   1.00800           0
     19540 MEMB     168      POPC     C3       CTL2     0.800000E-01   12.0110           0
     19541 MEMB     168      POPC     HX       HAL2     0.900000E-01   1.00800           0
     19542 MEMB     168      POPC     HY       HAL2     0.900000E-01   1.00800           0
     19543 MEMB     168      POPC     O31      OSL     -0.490000       15.9994           0
     19544 MEMB     168      POPC     C31      CL       0.900000       12.0110           0
     19545 MEMB     168      POPC     O32      OBL     -0.630000       15.9994           0
     19546 MEMB     168      POPC     C32      CTL2    -0.220000       12.0110           0
     19547 MEMB     168      POPC     H2X      HAL2     0.900000E-01   1.00800           0
     19548 MEMB     168      POPC     H2Y      HAL2     0.900000E-01   1.00800           0
     19549 MEMB     168      POPC     C23      CTL2    -0.180000       12.0110           0
     19550 MEMB     168      POPC     H3R      HAL2     0.900000E-01   1.00800           0
     19551 MEMB     168      POPC     H3S      HAL2     0.900000E-01   1.00800           0
     19552 MEMB     168      POPC     C24      CTL2    -0.180000       12.0110           0
     19553 MEMB     168      POPC     H4R      HAL2     0.900000E-01   1.00800           0
     19554 MEMB     168      POPC     H4S      HAL2     0.900000E-01   1.00800           0
     19555 MEMB     168      POPC     C25      CTL2    -0.180000       12.0110           0
     19556 MEMB     168      POPC     H5R      HAL2     0.900000E-01   1.00800           0
     19557 MEMB     168      POPC     H5S      HAL2     0.900000E-01   1.00800           0
     19558 MEMB     168      POPC     C26      CTL2    -0.180000       12.0110           0
     19559 MEMB     168      POPC     H6R      HAL2     0.900000E-01   1.00800           0
     19560 MEMB     168      POPC     H6S      HAL2     0.900000E-01   1.00800           0
     19561 MEMB     168      POPC     C27      CTL2    -0.180000       12.0110           0
     19562 MEMB     168      POPC     H7R      HAL2     0.900000E-01   1.00800           0
     19563 MEMB     168      POPC     H7S      HAL2     0.900000E-01   1.00800           0
     19564 MEMB     168      POPC     C28      CTL2    -0.180000       12.0110           0
     19565 MEMB     168      POPC     H8R      HAL2     0.900000E-01   1.00800           0
     19566 MEMB     168      POPC     H8S      HAL2     0.900000E-01   1.00800           0
     19567 MEMB     168      POPC     C29      CEL1    -0.150000       12.0110           0
     19568 MEMB     168      POPC     H91      HEL1     0.150000       1.00800           0
     19569 MEMB     168      POPC     C210     CEL1    -0.150000       12.0110           0
     19570 MEMB     168      POPC     H101     HEL1     0.150000       1.00800           0
     19571 MEMB     168      POPC     C211     CTL2    -0.180000       12.0110           0
     19572 MEMB     168      POPC     H11R     HAL2     0.900000E-01   1.00800           0
     19573 MEMB     168      POPC     H11S     HAL2     0.900000E-01   1.00800           0
     19574 MEMB     168      POPC     C212     CTL2    -0.180000       12.0110           0
     19575 MEMB     168      POPC     H12R     HAL2     0.900000E-01   1.00800           0
     19576 MEMB     168      POPC     H12S     HAL2     0.900000E-01   1.00800           0
     19577 MEMB     168      POPC     C213     CTL2    -0.180000       12.0110           0
     19578 MEMB     168      POPC     H13R     HAL2     0.900000E-01   1.00800           0
     19579 MEMB     168      POPC     H13S     HAL2     0.900000E-01   1.00800           0
     19580 MEMB     168      POPC     C214     CTL2    -0.180000       12.0110           0
     19581 MEMB     168      POPC     H14R     HAL2     0.900000E-01   1.00800           0
     19582 MEMB     168      POPC     H14S     HAL2     0.900000E-01   1.00800           0
     19583 MEMB     168      POPC     C215     CTL2    -0.180000       12.0110           0
     19584 MEMB     168      POPC     H15R     HAL2     0.900000E-01   1.00800           0
     19585 MEMB     168      POPC     H15S     HAL2     0.900000E-01   1.00800           0
     19586 MEMB     168      POPC     C216     CTL2    -0.180000       12.0110           0
     19587 MEMB     168      POPC     H16R     HAL2     0.900000E-01   1.00800           0
     19588 MEMB     168      POPC     H16S     HAL2     0.900000E-01   1.00800           0
     19589 MEMB     168      POPC     C217     CTL2    -0.180000       12.0110           0
     19590 MEMB     168      POPC     H17R     HAL2     0.900000E-01   1.00800           0
     19591 MEMB     168      POPC     H17S     HAL2     0.900000E-01   1.00800           0
     19592 MEMB     168      POPC     C218     CTL3    -0.270000       12.0110           0
     19593 MEMB     168      POPC     H18R     HAL3     0.900000E-01   1.00800           0
     19594 MEMB     168      POPC     H18S     HAL3     0.900000E-01   1.00800           0
     19595 MEMB     168      POPC     H18T     HAL3     0.900000E-01   1.00800           0
     19596 MEMB     168      POPC     C33      CTL2    -0.180000       12.0110           0
     19597 MEMB     168      POPC     H3X      HAL2     0.900000E-01   1.00800           0
     19598 MEMB     168      POPC     H3Y      HAL2     0.900000E-01   1.00800           0
     19599 MEMB     168      POPC     C34      CTL2    -0.180000       12.0110           0
     19600 MEMB     168      POPC     H4X      HAL2     0.900000E-01   1.00800           0
     19601 MEMB     168      POPC     H4Y      HAL2     0.900000E-01   1.00800           0
     19602 MEMB     168      POPC     C35      CTL2    -0.180000       12.0110           0
     19603 MEMB     168      POPC     H5X      HAL2     0.900000E-01   1.00800           0
     19604 MEMB     168      POPC     H5Y      HAL2     0.900000E-01   1.00800           0
     19605 MEMB     168      POPC     C36      CTL2    -0.180000       12.0110           0
     19606 MEMB     168      POPC     H6X      HAL2     0.900000E-01   1.00800           0
     19607 MEMB     168      POPC     H6Y      HAL2     0.900000E-01   1.00800           0
     19608 MEMB     168      POPC     C37      CTL2    -0.180000       12.0110           0
     19609 MEMB     168      POPC     H7X      HAL2     0.900000E-01   1.00800           0
     19610 MEMB     168      POPC     H7Y      HAL2     0.900000E-01   1.00800           0
     19611 MEMB     168      POPC     C38      CTL2    -0.180000       12.0110           0
     19612 MEMB     168      POPC     H8X      HAL2     0.900000E-01   1.00800           0
     19613 MEMB     168      POPC     H8Y      HAL2     0.900000E-01   1.00800           0
     19614 MEMB     168      POPC     C39      CTL2    -0.180000       12.0110           0
     19615 MEMB     168      POPC     H9X      HAL2     0.900000E-01   1.00800           0
     19616 MEMB     168      POPC     H9Y      HAL2     0.900000E-01   1.00800           0
     19617 MEMB     168      POPC     C310     CTL2    -0.180000       12.0110           0
     19618 MEMB     168      POPC     H10X     HAL2     0.900000E-01   1.00800           0
     19619 MEMB     168      POPC     H10Y     HAL2     0.900000E-01   1.00800           0
     19620 MEMB     168      POPC     C311     CTL2    -0.180000       12.0110           0
     19621 MEMB     168      POPC     H11X     HAL2     0.900000E-01   1.00800           0
     19622 MEMB     168      POPC     H11Y     HAL2     0.900000E-01   1.00800           0
     19623 MEMB     168      POPC     C312     CTL2    -0.180000       12.0110           0
     19624 MEMB     168      POPC     H12X     HAL2     0.900000E-01   1.00800           0
     19625 MEMB     168      POPC     H12Y     HAL2     0.900000E-01   1.00800           0
     19626 MEMB     168      POPC     C313     CTL2    -0.180000       12.0110           0
     19627 MEMB     168      POPC     H13X     HAL2     0.900000E-01   1.00800           0
     19628 MEMB     168      POPC     H13Y     HAL2     0.900000E-01   1.00800           0
     19629 MEMB     168      POPC     C314     CTL2    -0.180000       12.0110           0
     19630 MEMB     168      POPC     H14X     HAL2     0.900000E-01   1.00800           0
     19631 MEMB     168      POPC     H14Y     HAL2     0.900000E-01   1.00800           0
     19632 MEMB     168      POPC     C315     CTL2    -0.180000       12.0110           0
     19633 MEMB     168      POPC     H15X     HAL2     0.900000E-01   1.00800           0
     19634 MEMB     168      POPC     H15Y     HAL2     0.900000E-01   1.00800           0
     19635 MEMB     168      POPC     C316     CTL3    -0.270000       12.0110           0
     19636 MEMB     168      POPC     H16X     HAL3     0.900000E-01   1.00800           0
     19637 MEMB     168      POPC     H16Y     HAL3     0.900000E-01   1.00800           0
     19638 MEMB     168      POPC     H16Z     HAL3     0.900000E-01   1.00800           0
     19639 MEMB     169      POPC     N        NTL     -0.600000       14.0070           0
     19640 MEMB     169      POPC     C12      CTL2    -0.100000       12.0110           0
     19641 MEMB     169      POPC     H12A     HL       0.250000       1.00800           0
     19642 MEMB     169      POPC     H12B     HL       0.250000       1.00800           0
     19643 MEMB     169      POPC     C13      CTL5    -0.350000       12.0110           0
     19644 MEMB     169      POPC     H13A     HL       0.250000       1.00800           0
     19645 MEMB     169      POPC     H13B     HL       0.250000       1.00800           0
     19646 MEMB     169      POPC     H13C     HL       0.250000       1.00800           0
     19647 MEMB     169      POPC     C14      CTL5    -0.350000       12.0110           0
     19648 MEMB     169      POPC     H14A     HL       0.250000       1.00800           0
     19649 MEMB     169      POPC     H14B     HL       0.250000       1.00800           0
     19650 MEMB     169      POPC     H14C     HL       0.250000       1.00800           0
     19651 MEMB     169      POPC     C15      CTL5    -0.350000       12.0110           0
     19652 MEMB     169      POPC     H15A     HL       0.250000       1.00800           0
     19653 MEMB     169      POPC     H15B     HL       0.250000       1.00800           0
     19654 MEMB     169      POPC     H15C     HL       0.250000       1.00800           0
     19655 MEMB     169      POPC     C11      CTL2    -0.800000E-01   12.0110           0
     19656 MEMB     169      POPC     H11A     HAL2     0.900000E-01   1.00800           0
     19657 MEMB     169      POPC     H11B     HAL2     0.900000E-01   1.00800           0
     19658 MEMB     169      POPC     P        PL        1.50000       30.9740           0
     19659 MEMB     169      POPC     O13      O2L     -0.780000       15.9994           0
     19660 MEMB     169      POPC     O14      O2L     -0.780000       15.9994           0
     19661 MEMB     169      POPC     O12      OSLP    -0.570000       15.9994           0
     19662 MEMB     169      POPC     O11      OSLP    -0.570000       15.9994           0
     19663 MEMB     169      POPC     C1       CTL2    -0.800000E-01   12.0110           0
     19664 MEMB     169      POPC     HA       HAL2     0.900000E-01   1.00800           0
     19665 MEMB     169      POPC     HB       HAL2     0.900000E-01   1.00800           0
     19666 MEMB     169      POPC     C2       CTL1     0.170000       12.0110           0
     19667 MEMB     169      POPC     HS       HAL1     0.900000E-01   1.00800           0
     19668 MEMB     169      POPC     O21      OSL     -0.490000       15.9994           0
     19669 MEMB     169      POPC     C21      CL       0.900000       12.0110           0
     19670 MEMB     169      POPC     O22      OBL     -0.630000       15.9994           0
     19671 MEMB     169      POPC     C22      CTL2    -0.220000       12.0110           0
     19672 MEMB     169      POPC     H2R      HAL2     0.900000E-01   1.00800           0
     19673 MEMB     169      POPC     H2S      HAL2     0.900000E-01   1.00800           0
     19674 MEMB     169      POPC     C3       CTL2     0.800000E-01   12.0110           0
     19675 MEMB     169      POPC     HX       HAL2     0.900000E-01   1.00800           0
     19676 MEMB     169      POPC     HY       HAL2     0.900000E-01   1.00800           0
     19677 MEMB     169      POPC     O31      OSL     -0.490000       15.9994           0
     19678 MEMB     169      POPC     C31      CL       0.900000       12.0110           0
     19679 MEMB     169      POPC     O32      OBL     -0.630000       15.9994           0
     19680 MEMB     169      POPC     C32      CTL2    -0.220000       12.0110           0
     19681 MEMB     169      POPC     H2X      HAL2     0.900000E-01   1.00800           0
     19682 MEMB     169      POPC     H2Y      HAL2     0.900000E-01   1.00800           0
     19683 MEMB     169      POPC     C23      CTL2    -0.180000       12.0110           0
     19684 MEMB     169      POPC     H3R      HAL2     0.900000E-01   1.00800           0
     19685 MEMB     169      POPC     H3S      HAL2     0.900000E-01   1.00800           0
     19686 MEMB     169      POPC     C24      CTL2    -0.180000       12.0110           0
     19687 MEMB     169      POPC     H4R      HAL2     0.900000E-01   1.00800           0
     19688 MEMB     169      POPC     H4S      HAL2     0.900000E-01   1.00800           0
     19689 MEMB     169      POPC     C25      CTL2    -0.180000       12.0110           0
     19690 MEMB     169      POPC     H5R      HAL2     0.900000E-01   1.00800           0
     19691 MEMB     169      POPC     H5S      HAL2     0.900000E-01   1.00800           0
     19692 MEMB     169      POPC     C26      CTL2    -0.180000       12.0110           0
     19693 MEMB     169      POPC     H6R      HAL2     0.900000E-01   1.00800           0
     19694 MEMB     169      POPC     H6S      HAL2     0.900000E-01   1.00800           0
     19695 MEMB     169      POPC     C27      CTL2    -0.180000       12.0110           0
     19696 MEMB     169      POPC     H7R      HAL2     0.900000E-01   1.00800           0
     19697 MEMB     169      POPC     H7S      HAL2     0.900000E-01   1.00800           0
     19698 MEMB     169      POPC     C28      CTL2    -0.180000       12.0110           0
     19699 MEMB     169      POPC     H8R      HAL2     0.900000E-01   1.00800           0
     19700 MEMB     169      POPC     H8S      HAL2     0.900000E-01   1.00800           0
     19701 MEMB     169      POPC     C29      CEL1    -0.150000       12.0110           0
     19702 MEMB     169      POPC     H91      HEL1     0.150000       1.00800           0
     19703 MEMB     169      POPC     C210     CEL1    -0.150000       12.0110           0
     19704 MEMB     169      POPC     H101     HEL1     0.150000       1.00800           0
     19705 MEMB     169      POPC     C211     CTL2    -0.180000       12.0110           0
     19706 MEMB     169      POPC     H11R     HAL2     0.900000E-01   1.00800           0
     19707 MEMB     169      POPC     H11S     HAL2     0.900000E-01   1.00800           0
     19708 MEMB     169      POPC     C212     CTL2    -0.180000       12.0110           0
     19709 MEMB     169      POPC     H12R     HAL2     0.900000E-01   1.00800           0
     19710 MEMB     169      POPC     H12S     HAL2     0.900000E-01   1.00800           0
     19711 MEMB     169      POPC     C213     CTL2    -0.180000       12.0110           0
     19712 MEMB     169      POPC     H13R     HAL2     0.900000E-01   1.00800           0
     19713 MEMB     169      POPC     H13S     HAL2     0.900000E-01   1.00800           0
     19714 MEMB     169      POPC     C214     CTL2    -0.180000       12.0110           0
     19715 MEMB     169      POPC     H14R     HAL2     0.900000E-01   1.00800           0
     19716 MEMB     169      POPC     H14S     HAL2     0.900000E-01   1.00800           0
     19717 MEMB     169      POPC     C215     CTL2    -0.180000       12.0110           0
     19718 MEMB     169      POPC     H15R     HAL2     0.900000E-01   1.00800           0
     19719 MEMB     169      POPC     H15S     HAL2     0.900000E-01   1.00800           0
     19720 MEMB     169      POPC     C216     CTL2    -0.180000       12.0110           0
     19721 MEMB     169      POPC     H16R     HAL2     0.900000E-01   1.00800           0
     19722 MEMB     169      POPC     H16S     HAL2     0.900000E-01   1.00800           0
     19723 MEMB     169      POPC     C217     CTL2    -0.180000       12.0110           0
     19724 MEMB     169      POPC     H17R     HAL2     0.900000E-01   1.00800           0
     19725 MEMB     169      POPC     H17S     HAL2     0.900000E-01   1.00800           0
     19726 MEMB     169      POPC     C218     CTL3    -0.270000       12.0110           0
     19727 MEMB     169      POPC     H18R     HAL3     0.900000E-01   1.00800           0
     19728 MEMB     169      POPC     H18S     HAL3     0.900000E-01   1.00800           0
     19729 MEMB     169      POPC     H18T     HAL3     0.900000E-01   1.00800           0
     19730 MEMB     169      POPC     C33      CTL2    -0.180000       12.0110           0
     19731 MEMB     169      POPC     H3X      HAL2     0.900000E-01   1.00800           0
     19732 MEMB     169      POPC     H3Y      HAL2     0.900000E-01   1.00800           0
     19733 MEMB     169      POPC     C34      CTL2    -0.180000       12.0110           0
     19734 MEMB     169      POPC     H4X      HAL2     0.900000E-01   1.00800           0
     19735 MEMB     169      POPC     H4Y      HAL2     0.900000E-01   1.00800           0
     19736 MEMB     169      POPC     C35      CTL2    -0.180000       12.0110           0
     19737 MEMB     169      POPC     H5X      HAL2     0.900000E-01   1.00800           0
     19738 MEMB     169      POPC     H5Y      HAL2     0.900000E-01   1.00800           0
     19739 MEMB     169      POPC     C36      CTL2    -0.180000       12.0110           0
     19740 MEMB     169      POPC     H6X      HAL2     0.900000E-01   1.00800           0
     19741 MEMB     169      POPC     H6Y      HAL2     0.900000E-01   1.00800           0
     19742 MEMB     169      POPC     C37      CTL2    -0.180000       12.0110           0
     19743 MEMB     169      POPC     H7X      HAL2     0.900000E-01   1.00800           0
     19744 MEMB     169      POPC     H7Y      HAL2     0.900000E-01   1.00800           0
     19745 MEMB     169      POPC     C38      CTL2    -0.180000       12.0110           0
     19746 MEMB     169      POPC     H8X      HAL2     0.900000E-01   1.00800           0
     19747 MEMB     169      POPC     H8Y      HAL2     0.900000E-01   1.00800           0
     19748 MEMB     169      POPC     C39      CTL2    -0.180000       12.0110           0
     19749 MEMB     169      POPC     H9X      HAL2     0.900000E-01   1.00800           0
     19750 MEMB     169      POPC     H9Y      HAL2     0.900000E-01   1.00800           0
     19751 MEMB     169      POPC     C310     CTL2    -0.180000       12.0110           0
     19752 MEMB     169      POPC     H10X     HAL2     0.900000E-01   1.00800           0
     19753 MEMB     169      POPC     H10Y     HAL2     0.900000E-01   1.00800           0
     19754 MEMB     169      POPC     C311     CTL2    -0.180000       12.0110           0
     19755 MEMB     169      POPC     H11X     HAL2     0.900000E-01   1.00800           0
     19756 MEMB     169      POPC     H11Y     HAL2     0.900000E-01   1.00800           0
     19757 MEMB     169      POPC     C312     CTL2    -0.180000       12.0110           0
     19758 MEMB     169      POPC     H12X     HAL2     0.900000E-01   1.00800           0
     19759 MEMB     169      POPC     H12Y     HAL2     0.900000E-01   1.00800           0
     19760 MEMB     169      POPC     C313     CTL2    -0.180000       12.0110           0
     19761 MEMB     169      POPC     H13X     HAL2     0.900000E-01   1.00800           0
     19762 MEMB     169      POPC     H13Y     HAL2     0.900000E-01   1.00800           0
     19763 MEMB     169      POPC     C314     CTL2    -0.180000       12.0110           0
     19764 MEMB     169      POPC     H14X     HAL2     0.900000E-01   1.00800           0
     19765 MEMB     169      POPC     H14Y     HAL2     0.900000E-01   1.00800           0
     19766 MEMB     169      POPC     C315     CTL2    -0.180000       12.0110           0
     19767 MEMB     169      POPC     H15X     HAL2     0.900000E-01   1.00800           0
     19768 MEMB     169      POPC     H15Y     HAL2     0.900000E-01   1.00800           0
     19769 MEMB     169      POPC     C316     CTL3    -0.270000       12.0110           0
     19770 MEMB     169      POPC     H16X     HAL3     0.900000E-01   1.00800           0
     19771 MEMB     169      POPC     H16Y     HAL3     0.900000E-01   1.00800           0
     19772 MEMB     169      POPC     H16Z     HAL3     0.900000E-01   1.00800           0
     19773 MEMB     170      POPE     N        NH3L    -0.300000       14.0070           0
     19774 MEMB     170      POPE     HN1      HCL      0.330000       1.00800           0
     19775 MEMB     170      POPE     HN2      HCL      0.330000       1.00800           0
     19776 MEMB     170      POPE     HN3      HCL      0.330000       1.00800           0
     19777 MEMB     170      POPE     C12      CTL2     0.130000       12.0110           0
     19778 MEMB     170      POPE     H12A     HAL2     0.900000E-01   1.00800           0
     19779 MEMB     170      POPE     H12B     HAL2     0.900000E-01   1.00800           0
     19780 MEMB     170      POPE     C11      CTL2    -0.800000E-01   12.0110           0
     19781 MEMB     170      POPE     H11A     HAL2     0.900000E-01   1.00800           0
     19782 MEMB     170      POPE     H11B     HAL2     0.900000E-01   1.00800           0
     19783 MEMB     170      POPE     P        PL        1.50000       30.9740           0
     19784 MEMB     170      POPE     O13      O2L     -0.780000       15.9994           0
     19785 MEMB     170      POPE     O14      O2L     -0.780000       15.9994           0
     19786 MEMB     170      POPE     O11      OSLP    -0.570000       15.9994           0
     19787 MEMB     170      POPE     O12      OSLP    -0.570000       15.9994           0
     19788 MEMB     170      POPE     C1       CTL2    -0.800000E-01   12.0110           0
     19789 MEMB     170      POPE     HA       HAL2     0.900000E-01   1.00800           0
     19790 MEMB     170      POPE     HB       HAL2     0.900000E-01   1.00800           0
     19791 MEMB     170      POPE     C2       CTL1     0.170000       12.0110           0
     19792 MEMB     170      POPE     HS       HAL1     0.900000E-01   1.00800           0
     19793 MEMB     170      POPE     O21      OSL     -0.490000       15.9994           0
     19794 MEMB     170      POPE     C21      CL       0.900000       12.0110           0
     19795 MEMB     170      POPE     O22      OBL     -0.630000       15.9994           0
     19796 MEMB     170      POPE     C22      CTL2    -0.220000       12.0110           0
     19797 MEMB     170      POPE     H2R      HAL2     0.900000E-01   1.00800           0
     19798 MEMB     170      POPE     H2S      HAL2     0.900000E-01   1.00800           0
     19799 MEMB     170      POPE     C3       CTL2     0.800000E-01   12.0110           0
     19800 MEMB     170      POPE     HX       HAL2     0.900000E-01   1.00800           0
     19801 MEMB     170      POPE     HY       HAL2     0.900000E-01   1.00800           0
     19802 MEMB     170      POPE     O31      OSL     -0.490000       15.9994           0
     19803 MEMB     170      POPE     C31      CL       0.900000       12.0110           0
     19804 MEMB     170      POPE     O32      OBL     -0.630000       15.9994           0
     19805 MEMB     170      POPE     C32      CTL2    -0.220000       12.0110           0
     19806 MEMB     170      POPE     H2X      HAL2     0.900000E-01   1.00800           0
     19807 MEMB     170      POPE     H2Y      HAL2     0.900000E-01   1.00800           0
     19808 MEMB     170      POPE     C23      CTL2    -0.180000       12.0110           0
     19809 MEMB     170      POPE     H3R      HAL2     0.900000E-01   1.00800           0
     19810 MEMB     170      POPE     H3S      HAL2     0.900000E-01   1.00800           0
     19811 MEMB     170      POPE     C24      CTL2    -0.180000       12.0110           0
     19812 MEMB     170      POPE     H4R      HAL2     0.900000E-01   1.00800           0
     19813 MEMB     170      POPE     H4S      HAL2     0.900000E-01   1.00800           0
     19814 MEMB     170      POPE     C25      CTL2    -0.180000       12.0110           0
     19815 MEMB     170      POPE     H5R      HAL2     0.900000E-01   1.00800           0
     19816 MEMB     170      POPE     H5S      HAL2     0.900000E-01   1.00800           0
     19817 MEMB     170      POPE     C26      CTL2    -0.180000       12.0110           0
     19818 MEMB     170      POPE     H6R      HAL2     0.900000E-01   1.00800           0
     19819 MEMB     170      POPE     H6S      HAL2     0.900000E-01   1.00800           0
     19820 MEMB     170      POPE     C27      CTL2    -0.180000       12.0110           0
     19821 MEMB     170      POPE     H7R      HAL2     0.900000E-01   1.00800           0
     19822 MEMB     170      POPE     H7S      HAL2     0.900000E-01   1.00800           0
     19823 MEMB     170      POPE     C28      CTL2    -0.180000       12.0110           0
     19824 MEMB     170      POPE     H8R      HAL2     0.900000E-01   1.00800           0
     19825 MEMB     170      POPE     H8S      HAL2     0.900000E-01   1.00800           0
     19826 MEMB     170      POPE     C29      CEL1    -0.150000       12.0110           0
     19827 MEMB     170      POPE     H91      HEL1     0.150000       1.00800           0
     19828 MEMB     170      POPE     C210     CEL1    -0.150000       12.0110           0
     19829 MEMB     170      POPE     H101     HEL1     0.150000       1.00800           0
     19830 MEMB     170      POPE     C211     CTL2    -0.180000       12.0110           0
     19831 MEMB     170      POPE     H11R     HAL2     0.900000E-01   1.00800           0
     19832 MEMB     170      POPE     H11S     HAL2     0.900000E-01   1.00800           0
     19833 MEMB     170      POPE     C212     CTL2    -0.180000       12.0110           0
     19834 MEMB     170      POPE     H12R     HAL2     0.900000E-01   1.00800           0
     19835 MEMB     170      POPE     H12S     HAL2     0.900000E-01   1.00800           0
     19836 MEMB     170      POPE     C213     CTL2    -0.180000       12.0110           0
     19837 MEMB     170      POPE     H13R     HAL2     0.900000E-01   1.00800           0
     19838 MEMB     170      POPE     H13S     HAL2     0.900000E-01   1.00800           0
     19839 MEMB     170      POPE     C214     CTL2    -0.180000       12.0110           0
     19840 MEMB     170      POPE     H14R     HAL2     0.900000E-01   1.00800           0
     19841 MEMB     170      POPE     H14S     HAL2     0.900000E-01   1.00800           0
     19842 MEMB     170      POPE     C215     CTL2    -0.180000       12.0110           0
     19843 MEMB     170      POPE     H15R     HAL2     0.900000E-01   1.00800           0
     19844 MEMB     170      POPE     H15S     HAL2     0.900000E-01   1.00800           0
     19845 MEMB     170      POPE     C216     CTL2    -0.180000       12.0110           0
     19846 MEMB     170      POPE     H16R     HAL2     0.900000E-01   1.00800           0
     19847 MEMB     170      POPE     H16S     HAL2     0.900000E-01   1.00800           0
     19848 MEMB     170      POPE     C217     CTL2    -0.180000       12.0110           0
     19849 MEMB     170      POPE     H17R     HAL2     0.900000E-01   1.00800           0
     19850 MEMB     170      POPE     H17S     HAL2     0.900000E-01   1.00800           0
     19851 MEMB     170      POPE     C218     CTL3    -0.270000       12.0110           0
     19852 MEMB     170      POPE     H18R     HAL3     0.900000E-01   1.00800           0
     19853 MEMB     170      POPE     H18S     HAL3     0.900000E-01   1.00800           0
     19854 MEMB     170      POPE     H18T     HAL3     0.900000E-01   1.00800           0
     19855 MEMB     170      POPE     C33      CTL2    -0.180000       12.0110           0
     19856 MEMB     170      POPE     H3X      HAL2     0.900000E-01   1.00800           0
     19857 MEMB     170      POPE     H3Y      HAL2     0.900000E-01   1.00800           0
     19858 MEMB     170      POPE     C34      CTL2    -0.180000       12.0110           0
     19859 MEMB     170      POPE     H4X      HAL2     0.900000E-01   1.00800           0
     19860 MEMB     170      POPE     H4Y      HAL2     0.900000E-01   1.00800           0
     19861 MEMB     170      POPE     C35      CTL2    -0.180000       12.0110           0
     19862 MEMB     170      POPE     H5X      HAL2     0.900000E-01   1.00800           0
     19863 MEMB     170      POPE     H5Y      HAL2     0.900000E-01   1.00800           0
     19864 MEMB     170      POPE     C36      CTL2    -0.180000       12.0110           0
     19865 MEMB     170      POPE     H6X      HAL2     0.900000E-01   1.00800           0
     19866 MEMB     170      POPE     H6Y      HAL2     0.900000E-01   1.00800           0
     19867 MEMB     170      POPE     C37      CTL2    -0.180000       12.0110           0
     19868 MEMB     170      POPE     H7X      HAL2     0.900000E-01   1.00800           0
     19869 MEMB     170      POPE     H7Y      HAL2     0.900000E-01   1.00800           0
     19870 MEMB     170      POPE     C38      CTL2    -0.180000       12.0110           0
     19871 MEMB     170      POPE     H8X      HAL2     0.900000E-01   1.00800           0
     19872 MEMB     170      POPE     H8Y      HAL2     0.900000E-01   1.00800           0
     19873 MEMB     170      POPE     C39      CTL2    -0.180000       12.0110           0
     19874 MEMB     170      POPE     H9X      HAL2     0.900000E-01   1.00800           0
     19875 MEMB     170      POPE     H9Y      HAL2     0.900000E-01   1.00800           0
     19876 MEMB     170      POPE     C310     CTL2    -0.180000       12.0110           0
     19877 MEMB     170      POPE     H10X     HAL2     0.900000E-01   1.00800           0
     19878 MEMB     170      POPE     H10Y     HAL2     0.900000E-01   1.00800           0
     19879 MEMB     170      POPE     C311     CTL2    -0.180000       12.0110           0
     19880 MEMB     170      POPE     H11X     HAL2     0.900000E-01   1.00800           0
     19881 MEMB     170      POPE     H11Y     HAL2     0.900000E-01   1.00800           0
     19882 MEMB     170      POPE     C312     CTL2    -0.180000       12.0110           0
     19883 MEMB     170      POPE     H12X     HAL2     0.900000E-01   1.00800           0
     19884 MEMB     170      POPE     H12Y     HAL2     0.900000E-01   1.00800           0
     19885 MEMB     170      POPE     C313     CTL2    -0.180000       12.0110           0
     19886 MEMB     170      POPE     H13X     HAL2     0.900000E-01   1.00800           0
     19887 MEMB     170      POPE     H13Y     HAL2     0.900000E-01   1.00800           0
     19888 MEMB     170      POPE     C314     CTL2    -0.180000       12.0110           0
     19889 MEMB     170      POPE     H14X     HAL2     0.900000E-01   1.00800           0
     19890 MEMB     170      POPE     H14Y     HAL2     0.900000E-01   1.00800           0
     19891 MEMB     170      POPE     C315     CTL2    -0.180000       12.0110           0
     19892 MEMB     170      POPE     H15X     HAL2     0.900000E-01   1.00800           0
     19893 MEMB     170      POPE     H15Y     HAL2     0.900000E-01   1.00800           0
     19894 MEMB     170      POPE     C316     CTL3    -0.270000       12.0110           0
     19895 MEMB     170      POPE     H16X     HAL3     0.900000E-01   1.00800           0
     19896 MEMB     170      POPE     H16Y     HAL3     0.900000E-01   1.00800           0
     19897 MEMB     170      POPE     H16Z     HAL3     0.900000E-01   1.00800           0
     19898 MEMB     171      POPE     N        NH3L    -0.300000       14.0070           0
     19899 MEMB     171      POPE     HN1      HCL      0.330000       1.00800           0
     19900 MEMB     171      POPE     HN2      HCL      0.330000       1.00800           0
     19901 MEMB     171      POPE     HN3      HCL      0.330000       1.00800           0
     19902 MEMB     171      POPE     C12      CTL2     0.130000       12.0110           0
     19903 MEMB     171      POPE     H12A     HAL2     0.900000E-01   1.00800           0
     19904 MEMB     171      POPE     H12B     HAL2     0.900000E-01   1.00800           0
     19905 MEMB     171      POPE     C11      CTL2    -0.800000E-01   12.0110           0
     19906 MEMB     171      POPE     H11A     HAL2     0.900000E-01   1.00800           0
     19907 MEMB     171      POPE     H11B     HAL2     0.900000E-01   1.00800           0
     19908 MEMB     171      POPE     P        PL        1.50000       30.9740           0
     19909 MEMB     171      POPE     O13      O2L     -0.780000       15.9994           0
     19910 MEMB     171      POPE     O14      O2L     -0.780000       15.9994           0
     19911 MEMB     171      POPE     O11      OSLP    -0.570000       15.9994           0
     19912 MEMB     171      POPE     O12      OSLP    -0.570000       15.9994           0
     19913 MEMB     171      POPE     C1       CTL2    -0.800000E-01   12.0110           0
     19914 MEMB     171      POPE     HA       HAL2     0.900000E-01   1.00800           0
     19915 MEMB     171      POPE     HB       HAL2     0.900000E-01   1.00800           0
     19916 MEMB     171      POPE     C2       CTL1     0.170000       12.0110           0
     19917 MEMB     171      POPE     HS       HAL1     0.900000E-01   1.00800           0
     19918 MEMB     171      POPE     O21      OSL     -0.490000       15.9994           0
     19919 MEMB     171      POPE     C21      CL       0.900000       12.0110           0
     19920 MEMB     171      POPE     O22      OBL     -0.630000       15.9994           0
     19921 MEMB     171      POPE     C22      CTL2    -0.220000       12.0110           0
     19922 MEMB     171      POPE     H2R      HAL2     0.900000E-01   1.00800           0
     19923 MEMB     171      POPE     H2S      HAL2     0.900000E-01   1.00800           0
     19924 MEMB     171      POPE     C3       CTL2     0.800000E-01   12.0110           0
     19925 MEMB     171      POPE     HX       HAL2     0.900000E-01   1.00800           0
     19926 MEMB     171      POPE     HY       HAL2     0.900000E-01   1.00800           0
     19927 MEMB     171      POPE     O31      OSL     -0.490000       15.9994           0
     19928 MEMB     171      POPE     C31      CL       0.900000       12.0110           0
     19929 MEMB     171      POPE     O32      OBL     -0.630000       15.9994           0
     19930 MEMB     171      POPE     C32      CTL2    -0.220000       12.0110           0
     19931 MEMB     171      POPE     H2X      HAL2     0.900000E-01   1.00800           0
     19932 MEMB     171      POPE     H2Y      HAL2     0.900000E-01   1.00800           0
     19933 MEMB     171      POPE     C23      CTL2    -0.180000       12.0110           0
     19934 MEMB     171      POPE     H3R      HAL2     0.900000E-01   1.00800           0
     19935 MEMB     171      POPE     H3S      HAL2     0.900000E-01   1.00800           0
     19936 MEMB     171      POPE     C24      CTL2    -0.180000       12.0110           0
     19937 MEMB     171      POPE     H4R      HAL2     0.900000E-01   1.00800           0
     19938 MEMB     171      POPE     H4S      HAL2     0.900000E-01   1.00800           0
     19939 MEMB     171      POPE     C25      CTL2    -0.180000       12.0110           0
     19940 MEMB     171      POPE     H5R      HAL2     0.900000E-01   1.00800           0
     19941 MEMB     171      POPE     H5S      HAL2     0.900000E-01   1.00800           0
     19942 MEMB     171      POPE     C26      CTL2    -0.180000       12.0110           0
     19943 MEMB     171      POPE     H6R      HAL2     0.900000E-01   1.00800           0
     19944 MEMB     171      POPE     H6S      HAL2     0.900000E-01   1.00800           0
     19945 MEMB     171      POPE     C27      CTL2    -0.180000       12.0110           0
     19946 MEMB     171      POPE     H7R      HAL2     0.900000E-01   1.00800           0
     19947 MEMB     171      POPE     H7S      HAL2     0.900000E-01   1.00800           0
     19948 MEMB     171      POPE     C28      CTL2    -0.180000       12.0110           0
     19949 MEMB     171      POPE     H8R      HAL2     0.900000E-01   1.00800           0
     19950 MEMB     171      POPE     H8S      HAL2     0.900000E-01   1.00800           0
     19951 MEMB     171      POPE     C29      CEL1    -0.150000       12.0110           0
     19952 MEMB     171      POPE     H91      HEL1     0.150000       1.00800           0
     19953 MEMB     171      POPE     C210     CEL1    -0.150000       12.0110           0
     19954 MEMB     171      POPE     H101     HEL1     0.150000       1.00800           0
     19955 MEMB     171      POPE     C211     CTL2    -0.180000       12.0110           0
     19956 MEMB     171      POPE     H11R     HAL2     0.900000E-01   1.00800           0
     19957 MEMB     171      POPE     H11S     HAL2     0.900000E-01   1.00800           0
     19958 MEMB     171      POPE     C212     CTL2    -0.180000       12.0110           0
     19959 MEMB     171      POPE     H12R     HAL2     0.900000E-01   1.00800           0
     19960 MEMB     171      POPE     H12S     HAL2     0.900000E-01   1.00800           0
     19961 MEMB     171      POPE     C213     CTL2    -0.180000       12.0110           0
     19962 MEMB     171      POPE     H13R     HAL2     0.900000E-01   1.00800           0
     19963 MEMB     171      POPE     H13S     HAL2     0.900000E-01   1.00800           0
     19964 MEMB     171      POPE     C214     CTL2    -0.180000       12.0110           0
     19965 MEMB     171      POPE     H14R     HAL2     0.900000E-01   1.00800           0
     19966 MEMB     171      POPE     H14S     HAL2     0.900000E-01   1.00800           0
     19967 MEMB     171      POPE     C215     CTL2    -0.180000       12.0110           0
     19968 MEMB     171      POPE     H15R     HAL2     0.900000E-01   1.00800           0
     19969 MEMB     171      POPE     H15S     HAL2     0.900000E-01   1.00800           0
     19970 MEMB     171      POPE     C216     CTL2    -0.180000       12.0110           0
     19971 MEMB     171      POPE     H16R     HAL2     0.900000E-01   1.00800           0
     19972 MEMB     171      POPE     H16S     HAL2     0.900000E-01   1.00800           0
     19973 MEMB     171      POPE     C217     CTL2    -0.180000       12.0110           0
     19974 MEMB     171      POPE     H17R     HAL2     0.900000E-01   1.00800           0
     19975 MEMB     171      POPE     H17S     HAL2     0.900000E-01   1.00800           0
     19976 MEMB     171      POPE     C218     CTL3    -0.270000       12.0110           0
     19977 MEMB     171      POPE     H18R     HAL3     0.900000E-01   1.00800           0
     19978 MEMB     171      POPE     H18S     HAL3     0.900000E-01   1.00800           0
     19979 MEMB     171      POPE     H18T     HAL3     0.900000E-01   1.00800           0
     19980 MEMB     171      POPE     C33      CTL2    -0.180000       12.0110           0
     19981 MEMB     171      POPE     H3X      HAL2     0.900000E-01   1.00800           0
     19982 MEMB     171      POPE     H3Y      HAL2     0.900000E-01   1.00800           0
     19983 MEMB     171      POPE     C34      CTL2    -0.180000       12.0110           0
     19984 MEMB     171      POPE     H4X      HAL2     0.900000E-01   1.00800           0
     19985 MEMB     171      POPE     H4Y      HAL2     0.900000E-01   1.00800           0
     19986 MEMB     171      POPE     C35      CTL2    -0.180000       12.0110           0
     19987 MEMB     171      POPE     H5X      HAL2     0.900000E-01   1.00800           0
     19988 MEMB     171      POPE     H5Y      HAL2     0.900000E-01   1.00800           0
     19989 MEMB     171      POPE     C36      CTL2    -0.180000       12.0110           0
     19990 MEMB     171      POPE     H6X      HAL2     0.900000E-01   1.00800           0
     19991 MEMB     171      POPE     H6Y      HAL2     0.900000E-01   1.00800           0
     19992 MEMB     171      POPE     C37      CTL2    -0.180000       12.0110           0
     19993 MEMB     171      POPE     H7X      HAL2     0.900000E-01   1.00800           0
     19994 MEMB     171      POPE     H7Y      HAL2     0.900000E-01   1.00800           0
     19995 MEMB     171      POPE     C38      CTL2    -0.180000       12.0110           0
     19996 MEMB     171      POPE     H8X      HAL2     0.900000E-01   1.00800           0
     19997 MEMB     171      POPE     H8Y      HAL2     0.900000E-01   1.00800           0
     19998 MEMB     171      POPE     C39      CTL2    -0.180000       12.0110           0
     19999 MEMB     171      POPE     H9X      HAL2     0.900000E-01   1.00800           0
     20000 MEMB     171      POPE     H9Y      HAL2     0.900000E-01   1.00800           0
     20001 MEMB     171      POPE     C310     CTL2    -0.180000       12.0110           0
     20002 MEMB     171      POPE     H10X     HAL2     0.900000E-01   1.00800           0
     20003 MEMB     171      POPE     H10Y     HAL2     0.900000E-01   1.00800           0
     20004 MEMB     171      POPE     C311     CTL2    -0.180000       12.0110           0
     20005 MEMB     171      POPE     H11X     HAL2     0.900000E-01   1.00800           0
     20006 MEMB     171      POPE     H11Y     HAL2     0.900000E-01   1.00800           0
     20007 MEMB     171      POPE     C312     CTL2    -0.180000       12.0110           0
     20008 MEMB     171      POPE     H12X     HAL2     0.900000E-01   1.00800           0
     20009 MEMB     171      POPE     H12Y     HAL2     0.900000E-01   1.00800           0
     20010 MEMB     171      POPE     C313     CTL2    -0.180000       12.0110           0
     20011 MEMB     171      POPE     H13X     HAL2     0.900000E-01   1.00800           0
     20012 MEMB     171      POPE     H13Y     HAL2     0.900000E-01   1.00800           0
     20013 MEMB     171      POPE     C314     CTL2    -0.180000       12.0110           0
     20014 MEMB     171      POPE     H14X     HAL2     0.900000E-01   1.00800           0
     20015 MEMB     171      POPE     H14Y     HAL2     0.900000E-01   1.00800           0
     20016 MEMB     171      POPE     C315     CTL2    -0.180000       12.0110           0
     20017 MEMB     171      POPE     H15X     HAL2     0.900000E-01   1.00800           0
     20018 MEMB     171      POPE     H15Y     HAL2     0.900000E-01   1.00800           0
     20019 MEMB     171      POPE     C316     CTL3    -0.270000       12.0110           0
     20020 MEMB     171      POPE     H16X     HAL3     0.900000E-01   1.00800           0
     20021 MEMB     171      POPE     H16Y     HAL3     0.900000E-01   1.00800           0
     20022 MEMB     171      POPE     H16Z     HAL3     0.900000E-01   1.00800           0
     20023 MEMB     172      POPC     N        NTL     -0.600000       14.0070           0
     20024 MEMB     172      POPC     C12      CTL2    -0.100000       12.0110           0
     20025 MEMB     172      POPC     H12A     HL       0.250000       1.00800           0
     20026 MEMB     172      POPC     H12B     HL       0.250000       1.00800           0
     20027 MEMB     172      POPC     C13      CTL5    -0.350000       12.0110           0
     20028 MEMB     172      POPC     H13A     HL       0.250000       1.00800           0
     20029 MEMB     172      POPC     H13B     HL       0.250000       1.00800           0
     20030 MEMB     172      POPC     H13C     HL       0.250000       1.00800           0
     20031 MEMB     172      POPC     C14      CTL5    -0.350000       12.0110           0
     20032 MEMB     172      POPC     H14A     HL       0.250000       1.00800           0
     20033 MEMB     172      POPC     H14B     HL       0.250000       1.00800           0
     20034 MEMB     172      POPC     H14C     HL       0.250000       1.00800           0
     20035 MEMB     172      POPC     C15      CTL5    -0.350000       12.0110           0
     20036 MEMB     172      POPC     H15A     HL       0.250000       1.00800           0
     20037 MEMB     172      POPC     H15B     HL       0.250000       1.00800           0
     20038 MEMB     172      POPC     H15C     HL       0.250000       1.00800           0
     20039 MEMB     172      POPC     C11      CTL2    -0.800000E-01   12.0110           0
     20040 MEMB     172      POPC     H11A     HAL2     0.900000E-01   1.00800           0
     20041 MEMB     172      POPC     H11B     HAL2     0.900000E-01   1.00800           0
     20042 MEMB     172      POPC     P        PL        1.50000       30.9740           0
     20043 MEMB     172      POPC     O13      O2L     -0.780000       15.9994           0
     20044 MEMB     172      POPC     O14      O2L     -0.780000       15.9994           0
     20045 MEMB     172      POPC     O12      OSLP    -0.570000       15.9994           0
     20046 MEMB     172      POPC     O11      OSLP    -0.570000       15.9994           0
     20047 MEMB     172      POPC     C1       CTL2    -0.800000E-01   12.0110           0
     20048 MEMB     172      POPC     HA       HAL2     0.900000E-01   1.00800           0
     20049 MEMB     172      POPC     HB       HAL2     0.900000E-01   1.00800           0
     20050 MEMB     172      POPC     C2       CTL1     0.170000       12.0110           0
     20051 MEMB     172      POPC     HS       HAL1     0.900000E-01   1.00800           0
     20052 MEMB     172      POPC     O21      OSL     -0.490000       15.9994           0
     20053 MEMB     172      POPC     C21      CL       0.900000       12.0110           0
     20054 MEMB     172      POPC     O22      OBL     -0.630000       15.9994           0
     20055 MEMB     172      POPC     C22      CTL2    -0.220000       12.0110           0
     20056 MEMB     172      POPC     H2R      HAL2     0.900000E-01   1.00800           0
     20057 MEMB     172      POPC     H2S      HAL2     0.900000E-01   1.00800           0
     20058 MEMB     172      POPC     C3       CTL2     0.800000E-01   12.0110           0
     20059 MEMB     172      POPC     HX       HAL2     0.900000E-01   1.00800           0
     20060 MEMB     172      POPC     HY       HAL2     0.900000E-01   1.00800           0
     20061 MEMB     172      POPC     O31      OSL     -0.490000       15.9994           0
     20062 MEMB     172      POPC     C31      CL       0.900000       12.0110           0
     20063 MEMB     172      POPC     O32      OBL     -0.630000       15.9994           0
     20064 MEMB     172      POPC     C32      CTL2    -0.220000       12.0110           0
     20065 MEMB     172      POPC     H2X      HAL2     0.900000E-01   1.00800           0
     20066 MEMB     172      POPC     H2Y      HAL2     0.900000E-01   1.00800           0
     20067 MEMB     172      POPC     C23      CTL2    -0.180000       12.0110           0
     20068 MEMB     172      POPC     H3R      HAL2     0.900000E-01   1.00800           0
     20069 MEMB     172      POPC     H3S      HAL2     0.900000E-01   1.00800           0
     20070 MEMB     172      POPC     C24      CTL2    -0.180000       12.0110           0
     20071 MEMB     172      POPC     H4R      HAL2     0.900000E-01   1.00800           0
     20072 MEMB     172      POPC     H4S      HAL2     0.900000E-01   1.00800           0
     20073 MEMB     172      POPC     C25      CTL2    -0.180000       12.0110           0
     20074 MEMB     172      POPC     H5R      HAL2     0.900000E-01   1.00800           0
     20075 MEMB     172      POPC     H5S      HAL2     0.900000E-01   1.00800           0
     20076 MEMB     172      POPC     C26      CTL2    -0.180000       12.0110           0
     20077 MEMB     172      POPC     H6R      HAL2     0.900000E-01   1.00800           0
     20078 MEMB     172      POPC     H6S      HAL2     0.900000E-01   1.00800           0
     20079 MEMB     172      POPC     C27      CTL2    -0.180000       12.0110           0
     20080 MEMB     172      POPC     H7R      HAL2     0.900000E-01   1.00800           0
     20081 MEMB     172      POPC     H7S      HAL2     0.900000E-01   1.00800           0
     20082 MEMB     172      POPC     C28      CTL2    -0.180000       12.0110           0
     20083 MEMB     172      POPC     H8R      HAL2     0.900000E-01   1.00800           0
     20084 MEMB     172      POPC     H8S      HAL2     0.900000E-01   1.00800           0
     20085 MEMB     172      POPC     C29      CEL1    -0.150000       12.0110           0
     20086 MEMB     172      POPC     H91      HEL1     0.150000       1.00800           0
     20087 MEMB     172      POPC     C210     CEL1    -0.150000       12.0110           0
     20088 MEMB     172      POPC     H101     HEL1     0.150000       1.00800           0
     20089 MEMB     172      POPC     C211     CTL2    -0.180000       12.0110           0
     20090 MEMB     172      POPC     H11R     HAL2     0.900000E-01   1.00800           0
     20091 MEMB     172      POPC     H11S     HAL2     0.900000E-01   1.00800           0
     20092 MEMB     172      POPC     C212     CTL2    -0.180000       12.0110           0
     20093 MEMB     172      POPC     H12R     HAL2     0.900000E-01   1.00800           0
     20094 MEMB     172      POPC     H12S     HAL2     0.900000E-01   1.00800           0
     20095 MEMB     172      POPC     C213     CTL2    -0.180000       12.0110           0
     20096 MEMB     172      POPC     H13R     HAL2     0.900000E-01   1.00800           0
     20097 MEMB     172      POPC     H13S     HAL2     0.900000E-01   1.00800           0
     20098 MEMB     172      POPC     C214     CTL2    -0.180000       12.0110           0
     20099 MEMB     172      POPC     H14R     HAL2     0.900000E-01   1.00800           0
     20100 MEMB     172      POPC     H14S     HAL2     0.900000E-01   1.00800           0
     20101 MEMB     172      POPC     C215     CTL2    -0.180000       12.0110           0
     20102 MEMB     172      POPC     H15R     HAL2     0.900000E-01   1.00800           0
     20103 MEMB     172      POPC     H15S     HAL2     0.900000E-01   1.00800           0
     20104 MEMB     172      POPC     C216     CTL2    -0.180000       12.0110           0
     20105 MEMB     172      POPC     H16R     HAL2     0.900000E-01   1.00800           0
     20106 MEMB     172      POPC     H16S     HAL2     0.900000E-01   1.00800           0
     20107 MEMB     172      POPC     C217     CTL2    -0.180000       12.0110           0
     20108 MEMB     172      POPC     H17R     HAL2     0.900000E-01   1.00800           0
     20109 MEMB     172      POPC     H17S     HAL2     0.900000E-01   1.00800           0
     20110 MEMB     172      POPC     C218     CTL3    -0.270000       12.0110           0
     20111 MEMB     172      POPC     H18R     HAL3     0.900000E-01   1.00800           0
     20112 MEMB     172      POPC     H18S     HAL3     0.900000E-01   1.00800           0
     20113 MEMB     172      POPC     H18T     HAL3     0.900000E-01   1.00800           0
     20114 MEMB     172      POPC     C33      CTL2    -0.180000       12.0110           0
     20115 MEMB     172      POPC     H3X      HAL2     0.900000E-01   1.00800           0
     20116 MEMB     172      POPC     H3Y      HAL2     0.900000E-01   1.00800           0
     20117 MEMB     172      POPC     C34      CTL2    -0.180000       12.0110           0
     20118 MEMB     172      POPC     H4X      HAL2     0.900000E-01   1.00800           0
     20119 MEMB     172      POPC     H4Y      HAL2     0.900000E-01   1.00800           0
     20120 MEMB     172      POPC     C35      CTL2    -0.180000       12.0110           0
     20121 MEMB     172      POPC     H5X      HAL2     0.900000E-01   1.00800           0
     20122 MEMB     172      POPC     H5Y      HAL2     0.900000E-01   1.00800           0
     20123 MEMB     172      POPC     C36      CTL2    -0.180000       12.0110           0
     20124 MEMB     172      POPC     H6X      HAL2     0.900000E-01   1.00800           0
     20125 MEMB     172      POPC     H6Y      HAL2     0.900000E-01   1.00800           0
     20126 MEMB     172      POPC     C37      CTL2    -0.180000       12.0110           0
     20127 MEMB     172      POPC     H7X      HAL2     0.900000E-01   1.00800           0
     20128 MEMB     172      POPC     H7Y      HAL2     0.900000E-01   1.00800           0
     20129 MEMB     172      POPC     C38      CTL2    -0.180000       12.0110           0
     20130 MEMB     172      POPC     H8X      HAL2     0.900000E-01   1.00800           0
     20131 MEMB     172      POPC     H8Y      HAL2     0.900000E-01   1.00800           0
     20132 MEMB     172      POPC     C39      CTL2    -0.180000       12.0110           0
     20133 MEMB     172      POPC     H9X      HAL2     0.900000E-01   1.00800           0
     20134 MEMB     172      POPC     H9Y      HAL2     0.900000E-01   1.00800           0
     20135 MEMB     172      POPC     C310     CTL2    -0.180000       12.0110           0
     20136 MEMB     172      POPC     H10X     HAL2     0.900000E-01   1.00800           0
     20137 MEMB     172      POPC     H10Y     HAL2     0.900000E-01   1.00800           0
     20138 MEMB     172      POPC     C311     CTL2    -0.180000       12.0110           0
     20139 MEMB     172      POPC     H11X     HAL2     0.900000E-01   1.00800           0
     20140 MEMB     172      POPC     H11Y     HAL2     0.900000E-01   1.00800           0
     20141 MEMB     172      POPC     C312     CTL2    -0.180000       12.0110           0
     20142 MEMB     172      POPC     H12X     HAL2     0.900000E-01   1.00800           0
     20143 MEMB     172      POPC     H12Y     HAL2     0.900000E-01   1.00800           0
     20144 MEMB     172      POPC     C313     CTL2    -0.180000       12.0110           0
     20145 MEMB     172      POPC     H13X     HAL2     0.900000E-01   1.00800           0
     20146 MEMB     172      POPC     H13Y     HAL2     0.900000E-01   1.00800           0
     20147 MEMB     172      POPC     C314     CTL2    -0.180000       12.0110           0
     20148 MEMB     172      POPC     H14X     HAL2     0.900000E-01   1.00800           0
     20149 MEMB     172      POPC     H14Y     HAL2     0.900000E-01   1.00800           0
     20150 MEMB     172      POPC     C315     CTL2    -0.180000       12.0110           0
     20151 MEMB     172      POPC     H15X     HAL2     0.900000E-01   1.00800           0
     20152 MEMB     172      POPC     H15Y     HAL2     0.900000E-01   1.00800           0
     20153 MEMB     172      POPC     C316     CTL3    -0.270000       12.0110           0
     20154 MEMB     172      POPC     H16X     HAL3     0.900000E-01   1.00800           0
     20155 MEMB     172      POPC     H16Y     HAL3     0.900000E-01   1.00800           0
     20156 MEMB     172      POPC     H16Z     HAL3     0.900000E-01   1.00800           0
     20157 MEMB     173      POPC     N        NTL     -0.600000       14.0070           0
     20158 MEMB     173      POPC     C12      CTL2    -0.100000       12.0110           0
     20159 MEMB     173      POPC     H12A     HL       0.250000       1.00800           0
     20160 MEMB     173      POPC     H12B     HL       0.250000       1.00800           0
     20161 MEMB     173      POPC     C13      CTL5    -0.350000       12.0110           0
     20162 MEMB     173      POPC     H13A     HL       0.250000       1.00800           0
     20163 MEMB     173      POPC     H13B     HL       0.250000       1.00800           0
     20164 MEMB     173      POPC     H13C     HL       0.250000       1.00800           0
     20165 MEMB     173      POPC     C14      CTL5    -0.350000       12.0110           0
     20166 MEMB     173      POPC     H14A     HL       0.250000       1.00800           0
     20167 MEMB     173      POPC     H14B     HL       0.250000       1.00800           0
     20168 MEMB     173      POPC     H14C     HL       0.250000       1.00800           0
     20169 MEMB     173      POPC     C15      CTL5    -0.350000       12.0110           0
     20170 MEMB     173      POPC     H15A     HL       0.250000       1.00800           0
     20171 MEMB     173      POPC     H15B     HL       0.250000       1.00800           0
     20172 MEMB     173      POPC     H15C     HL       0.250000       1.00800           0
     20173 MEMB     173      POPC     C11      CTL2    -0.800000E-01   12.0110           0
     20174 MEMB     173      POPC     H11A     HAL2     0.900000E-01   1.00800           0
     20175 MEMB     173      POPC     H11B     HAL2     0.900000E-01   1.00800           0
     20176 MEMB     173      POPC     P        PL        1.50000       30.9740           0
     20177 MEMB     173      POPC     O13      O2L     -0.780000       15.9994           0
     20178 MEMB     173      POPC     O14      O2L     -0.780000       15.9994           0
     20179 MEMB     173      POPC     O12      OSLP    -0.570000       15.9994           0
     20180 MEMB     173      POPC     O11      OSLP    -0.570000       15.9994           0
     20181 MEMB     173      POPC     C1       CTL2    -0.800000E-01   12.0110           0
     20182 MEMB     173      POPC     HA       HAL2     0.900000E-01   1.00800           0
     20183 MEMB     173      POPC     HB       HAL2     0.900000E-01   1.00800           0
     20184 MEMB     173      POPC     C2       CTL1     0.170000       12.0110           0
     20185 MEMB     173      POPC     HS       HAL1     0.900000E-01   1.00800           0
     20186 MEMB     173      POPC     O21      OSL     -0.490000       15.9994           0
     20187 MEMB     173      POPC     C21      CL       0.900000       12.0110           0
     20188 MEMB     173      POPC     O22      OBL     -0.630000       15.9994           0
     20189 MEMB     173      POPC     C22      CTL2    -0.220000       12.0110           0
     20190 MEMB     173      POPC     H2R      HAL2     0.900000E-01   1.00800           0
     20191 MEMB     173      POPC     H2S      HAL2     0.900000E-01   1.00800           0
     20192 MEMB     173      POPC     C3       CTL2     0.800000E-01   12.0110           0
     20193 MEMB     173      POPC     HX       HAL2     0.900000E-01   1.00800           0
     20194 MEMB     173      POPC     HY       HAL2     0.900000E-01   1.00800           0
     20195 MEMB     173      POPC     O31      OSL     -0.490000       15.9994           0
     20196 MEMB     173      POPC     C31      CL       0.900000       12.0110           0
     20197 MEMB     173      POPC     O32      OBL     -0.630000       15.9994           0
     20198 MEMB     173      POPC     C32      CTL2    -0.220000       12.0110           0
     20199 MEMB     173      POPC     H2X      HAL2     0.900000E-01   1.00800           0
     20200 MEMB     173      POPC     H2Y      HAL2     0.900000E-01   1.00800           0
     20201 MEMB     173      POPC     C23      CTL2    -0.180000       12.0110           0
     20202 MEMB     173      POPC     H3R      HAL2     0.900000E-01   1.00800           0
     20203 MEMB     173      POPC     H3S      HAL2     0.900000E-01   1.00800           0
     20204 MEMB     173      POPC     C24      CTL2    -0.180000       12.0110           0
     20205 MEMB     173      POPC     H4R      HAL2     0.900000E-01   1.00800           0
     20206 MEMB     173      POPC     H4S      HAL2     0.900000E-01   1.00800           0
     20207 MEMB     173      POPC     C25      CTL2    -0.180000       12.0110           0
     20208 MEMB     173      POPC     H5R      HAL2     0.900000E-01   1.00800           0
     20209 MEMB     173      POPC     H5S      HAL2     0.900000E-01   1.00800           0
     20210 MEMB     173      POPC     C26      CTL2    -0.180000       12.0110           0
     20211 MEMB     173      POPC     H6R      HAL2     0.900000E-01   1.00800           0
     20212 MEMB     173      POPC     H6S      HAL2     0.900000E-01   1.00800           0
     20213 MEMB     173      POPC     C27      CTL2    -0.180000       12.0110           0
     20214 MEMB     173      POPC     H7R      HAL2     0.900000E-01   1.00800           0
     20215 MEMB     173      POPC     H7S      HAL2     0.900000E-01   1.00800           0
     20216 MEMB     173      POPC     C28      CTL2    -0.180000       12.0110           0
     20217 MEMB     173      POPC     H8R      HAL2     0.900000E-01   1.00800           0
     20218 MEMB     173      POPC     H8S      HAL2     0.900000E-01   1.00800           0
     20219 MEMB     173      POPC     C29      CEL1    -0.150000       12.0110           0
     20220 MEMB     173      POPC     H91      HEL1     0.150000       1.00800           0
     20221 MEMB     173      POPC     C210     CEL1    -0.150000       12.0110           0
     20222 MEMB     173      POPC     H101     HEL1     0.150000       1.00800           0
     20223 MEMB     173      POPC     C211     CTL2    -0.180000       12.0110           0
     20224 MEMB     173      POPC     H11R     HAL2     0.900000E-01   1.00800           0
     20225 MEMB     173      POPC     H11S     HAL2     0.900000E-01   1.00800           0
     20226 MEMB     173      POPC     C212     CTL2    -0.180000       12.0110           0
     20227 MEMB     173      POPC     H12R     HAL2     0.900000E-01   1.00800           0
     20228 MEMB     173      POPC     H12S     HAL2     0.900000E-01   1.00800           0
     20229 MEMB     173      POPC     C213     CTL2    -0.180000       12.0110           0
     20230 MEMB     173      POPC     H13R     HAL2     0.900000E-01   1.00800           0
     20231 MEMB     173      POPC     H13S     HAL2     0.900000E-01   1.00800           0
     20232 MEMB     173      POPC     C214     CTL2    -0.180000       12.0110           0
     20233 MEMB     173      POPC     H14R     HAL2     0.900000E-01   1.00800           0
     20234 MEMB     173      POPC     H14S     HAL2     0.900000E-01   1.00800           0
     20235 MEMB     173      POPC     C215     CTL2    -0.180000       12.0110           0
     20236 MEMB     173      POPC     H15R     HAL2     0.900000E-01   1.00800           0
     20237 MEMB     173      POPC     H15S     HAL2     0.900000E-01   1.00800           0
     20238 MEMB     173      POPC     C216     CTL2    -0.180000       12.0110           0
     20239 MEMB     173      POPC     H16R     HAL2     0.900000E-01   1.00800           0
     20240 MEMB     173      POPC     H16S     HAL2     0.900000E-01   1.00800           0
     20241 MEMB     173      POPC     C217     CTL2    -0.180000       12.0110           0
     20242 MEMB     173      POPC     H17R     HAL2     0.900000E-01   1.00800           0
     20243 MEMB     173      POPC     H17S     HAL2     0.900000E-01   1.00800           0
     20244 MEMB     173      POPC     C218     CTL3    -0.270000       12.0110           0
     20245 MEMB     173      POPC     H18R     HAL3     0.900000E-01   1.00800           0
     20246 MEMB     173      POPC     H18S     HAL3     0.900000E-01   1.00800           0
     20247 MEMB     173      POPC     H18T     HAL3     0.900000E-01   1.00800           0
     20248 MEMB     173      POPC     C33      CTL2    -0.180000       12.0110           0
     20249 MEMB     173      POPC     H3X      HAL2     0.900000E-01   1.00800           0
     20250 MEMB     173      POPC     H3Y      HAL2     0.900000E-01   1.00800           0
     20251 MEMB     173      POPC     C34      CTL2    -0.180000       12.0110           0
     20252 MEMB     173      POPC     H4X      HAL2     0.900000E-01   1.00800           0
     20253 MEMB     173      POPC     H4Y      HAL2     0.900000E-01   1.00800           0
     20254 MEMB     173      POPC     C35      CTL2    -0.180000       12.0110           0
     20255 MEMB     173      POPC     H5X      HAL2     0.900000E-01   1.00800           0
     20256 MEMB     173      POPC     H5Y      HAL2     0.900000E-01   1.00800           0
     20257 MEMB     173      POPC     C36      CTL2    -0.180000       12.0110           0
     20258 MEMB     173      POPC     H6X      HAL2     0.900000E-01   1.00800           0
     20259 MEMB     173      POPC     H6Y      HAL2     0.900000E-01   1.00800           0
     20260 MEMB     173      POPC     C37      CTL2    -0.180000       12.0110           0
     20261 MEMB     173      POPC     H7X      HAL2     0.900000E-01   1.00800           0
     20262 MEMB     173      POPC     H7Y      HAL2     0.900000E-01   1.00800           0
     20263 MEMB     173      POPC     C38      CTL2    -0.180000       12.0110           0
     20264 MEMB     173      POPC     H8X      HAL2     0.900000E-01   1.00800           0
     20265 MEMB     173      POPC     H8Y      HAL2     0.900000E-01   1.00800           0
     20266 MEMB     173      POPC     C39      CTL2    -0.180000       12.0110           0
     20267 MEMB     173      POPC     H9X      HAL2     0.900000E-01   1.00800           0
     20268 MEMB     173      POPC     H9Y      HAL2     0.900000E-01   1.00800           0
     20269 MEMB     173      POPC     C310     CTL2    -0.180000       12.0110           0
     20270 MEMB     173      POPC     H10X     HAL2     0.900000E-01   1.00800           0
     20271 MEMB     173      POPC     H10Y     HAL2     0.900000E-01   1.00800           0
     20272 MEMB     173      POPC     C311     CTL2    -0.180000       12.0110           0
     20273 MEMB     173      POPC     H11X     HAL2     0.900000E-01   1.00800           0
     20274 MEMB     173      POPC     H11Y     HAL2     0.900000E-01   1.00800           0
     20275 MEMB     173      POPC     C312     CTL2    -0.180000       12.0110           0
     20276 MEMB     173      POPC     H12X     HAL2     0.900000E-01   1.00800           0
     20277 MEMB     173      POPC     H12Y     HAL2     0.900000E-01   1.00800           0
     20278 MEMB     173      POPC     C313     CTL2    -0.180000       12.0110           0
     20279 MEMB     173      POPC     H13X     HAL2     0.900000E-01   1.00800           0
     20280 MEMB     173      POPC     H13Y     HAL2     0.900000E-01   1.00800           0
     20281 MEMB     173      POPC     C314     CTL2    -0.180000       12.0110           0
     20282 MEMB     173      POPC     H14X     HAL2     0.900000E-01   1.00800           0
     20283 MEMB     173      POPC     H14Y     HAL2     0.900000E-01   1.00800           0
     20284 MEMB     173      POPC     C315     CTL2    -0.180000       12.0110           0
     20285 MEMB     173      POPC     H15X     HAL2     0.900000E-01   1.00800           0
     20286 MEMB     173      POPC     H15Y     HAL2     0.900000E-01   1.00800           0
     20287 MEMB     173      POPC     C316     CTL3    -0.270000       12.0110           0
     20288 MEMB     173      POPC     H16X     HAL3     0.900000E-01   1.00800           0
     20289 MEMB     173      POPC     H16Y     HAL3     0.900000E-01   1.00800           0
     20290 MEMB     173      POPC     H16Z     HAL3     0.900000E-01   1.00800           0
     20291 MEMB     174      POPE     N        NH3L    -0.300000       14.0070           0
     20292 MEMB     174      POPE     HN1      HCL      0.330000       1.00800           0
     20293 MEMB     174      POPE     HN2      HCL      0.330000       1.00800           0
     20294 MEMB     174      POPE     HN3      HCL      0.330000       1.00800           0
     20295 MEMB     174      POPE     C12      CTL2     0.130000       12.0110           0
     20296 MEMB     174      POPE     H12A     HAL2     0.900000E-01   1.00800           0
     20297 MEMB     174      POPE     H12B     HAL2     0.900000E-01   1.00800           0
     20298 MEMB     174      POPE     C11      CTL2    -0.800000E-01   12.0110           0
     20299 MEMB     174      POPE     H11A     HAL2     0.900000E-01   1.00800           0
     20300 MEMB     174      POPE     H11B     HAL2     0.900000E-01   1.00800           0
     20301 MEMB     174      POPE     P        PL        1.50000       30.9740           0
     20302 MEMB     174      POPE     O13      O2L     -0.780000       15.9994           0
     20303 MEMB     174      POPE     O14      O2L     -0.780000       15.9994           0
     20304 MEMB     174      POPE     O11      OSLP    -0.570000       15.9994           0
     20305 MEMB     174      POPE     O12      OSLP    -0.570000       15.9994           0
     20306 MEMB     174      POPE     C1       CTL2    -0.800000E-01   12.0110           0
     20307 MEMB     174      POPE     HA       HAL2     0.900000E-01   1.00800           0
     20308 MEMB     174      POPE     HB       HAL2     0.900000E-01   1.00800           0
     20309 MEMB     174      POPE     C2       CTL1     0.170000       12.0110           0
     20310 MEMB     174      POPE     HS       HAL1     0.900000E-01   1.00800           0
     20311 MEMB     174      POPE     O21      OSL     -0.490000       15.9994           0
     20312 MEMB     174      POPE     C21      CL       0.900000       12.0110           0
     20313 MEMB     174      POPE     O22      OBL     -0.630000       15.9994           0
     20314 MEMB     174      POPE     C22      CTL2    -0.220000       12.0110           0
     20315 MEMB     174      POPE     H2R      HAL2     0.900000E-01   1.00800           0
     20316 MEMB     174      POPE     H2S      HAL2     0.900000E-01   1.00800           0
     20317 MEMB     174      POPE     C3       CTL2     0.800000E-01   12.0110           0
     20318 MEMB     174      POPE     HX       HAL2     0.900000E-01   1.00800           0
     20319 MEMB     174      POPE     HY       HAL2     0.900000E-01   1.00800           0
     20320 MEMB     174      POPE     O31      OSL     -0.490000       15.9994           0
     20321 MEMB     174      POPE     C31      CL       0.900000       12.0110           0
     20322 MEMB     174      POPE     O32      OBL     -0.630000       15.9994           0
     20323 MEMB     174      POPE     C32      CTL2    -0.220000       12.0110           0
     20324 MEMB     174      POPE     H2X      HAL2     0.900000E-01   1.00800           0
     20325 MEMB     174      POPE     H2Y      HAL2     0.900000E-01   1.00800           0
     20326 MEMB     174      POPE     C23      CTL2    -0.180000       12.0110           0
     20327 MEMB     174      POPE     H3R      HAL2     0.900000E-01   1.00800           0
     20328 MEMB     174      POPE     H3S      HAL2     0.900000E-01   1.00800           0
     20329 MEMB     174      POPE     C24      CTL2    -0.180000       12.0110           0
     20330 MEMB     174      POPE     H4R      HAL2     0.900000E-01   1.00800           0
     20331 MEMB     174      POPE     H4S      HAL2     0.900000E-01   1.00800           0
     20332 MEMB     174      POPE     C25      CTL2    -0.180000       12.0110           0
     20333 MEMB     174      POPE     H5R      HAL2     0.900000E-01   1.00800           0
     20334 MEMB     174      POPE     H5S      HAL2     0.900000E-01   1.00800           0
     20335 MEMB     174      POPE     C26      CTL2    -0.180000       12.0110           0
     20336 MEMB     174      POPE     H6R      HAL2     0.900000E-01   1.00800           0
     20337 MEMB     174      POPE     H6S      HAL2     0.900000E-01   1.00800           0
     20338 MEMB     174      POPE     C27      CTL2    -0.180000       12.0110           0
     20339 MEMB     174      POPE     H7R      HAL2     0.900000E-01   1.00800           0
     20340 MEMB     174      POPE     H7S      HAL2     0.900000E-01   1.00800           0
     20341 MEMB     174      POPE     C28      CTL2    -0.180000       12.0110           0
     20342 MEMB     174      POPE     H8R      HAL2     0.900000E-01   1.00800           0
     20343 MEMB     174      POPE     H8S      HAL2     0.900000E-01   1.00800           0
     20344 MEMB     174      POPE     C29      CEL1    -0.150000       12.0110           0
     20345 MEMB     174      POPE     H91      HEL1     0.150000       1.00800           0
     20346 MEMB     174      POPE     C210     CEL1    -0.150000       12.0110           0
     20347 MEMB     174      POPE     H101     HEL1     0.150000       1.00800           0
     20348 MEMB     174      POPE     C211     CTL2    -0.180000       12.0110           0
     20349 MEMB     174      POPE     H11R     HAL2     0.900000E-01   1.00800           0
     20350 MEMB     174      POPE     H11S     HAL2     0.900000E-01   1.00800           0
     20351 MEMB     174      POPE     C212     CTL2    -0.180000       12.0110           0
     20352 MEMB     174      POPE     H12R     HAL2     0.900000E-01   1.00800           0
     20353 MEMB     174      POPE     H12S     HAL2     0.900000E-01   1.00800           0
     20354 MEMB     174      POPE     C213     CTL2    -0.180000       12.0110           0
     20355 MEMB     174      POPE     H13R     HAL2     0.900000E-01   1.00800           0
     20356 MEMB     174      POPE     H13S     HAL2     0.900000E-01   1.00800           0
     20357 MEMB     174      POPE     C214     CTL2    -0.180000       12.0110           0
     20358 MEMB     174      POPE     H14R     HAL2     0.900000E-01   1.00800           0
     20359 MEMB     174      POPE     H14S     HAL2     0.900000E-01   1.00800           0
     20360 MEMB     174      POPE     C215     CTL2    -0.180000       12.0110           0
     20361 MEMB     174      POPE     H15R     HAL2     0.900000E-01   1.00800           0
     20362 MEMB     174      POPE     H15S     HAL2     0.900000E-01   1.00800           0
     20363 MEMB     174      POPE     C216     CTL2    -0.180000       12.0110           0
     20364 MEMB     174      POPE     H16R     HAL2     0.900000E-01   1.00800           0
     20365 MEMB     174      POPE     H16S     HAL2     0.900000E-01   1.00800           0
     20366 MEMB     174      POPE     C217     CTL2    -0.180000       12.0110           0
     20367 MEMB     174      POPE     H17R     HAL2     0.900000E-01   1.00800           0
     20368 MEMB     174      POPE     H17S     HAL2     0.900000E-01   1.00800           0
     20369 MEMB     174      POPE     C218     CTL3    -0.270000       12.0110           0
     20370 MEMB     174      POPE     H18R     HAL3     0.900000E-01   1.00800           0
     20371 MEMB     174      POPE     H18S     HAL3     0.900000E-01   1.00800           0
     20372 MEMB     174      POPE     H18T     HAL3     0.900000E-01   1.00800           0
     20373 MEMB     174      POPE     C33      CTL2    -0.180000       12.0110           0
     20374 MEMB     174      POPE     H3X      HAL2     0.900000E-01   1.00800           0
     20375 MEMB     174      POPE     H3Y      HAL2     0.900000E-01   1.00800           0
     20376 MEMB     174      POPE     C34      CTL2    -0.180000       12.0110           0
     20377 MEMB     174      POPE     H4X      HAL2     0.900000E-01   1.00800           0
     20378 MEMB     174      POPE     H4Y      HAL2     0.900000E-01   1.00800           0
     20379 MEMB     174      POPE     C35      CTL2    -0.180000       12.0110           0
     20380 MEMB     174      POPE     H5X      HAL2     0.900000E-01   1.00800           0
     20381 MEMB     174      POPE     H5Y      HAL2     0.900000E-01   1.00800           0
     20382 MEMB     174      POPE     C36      CTL2    -0.180000       12.0110           0
     20383 MEMB     174      POPE     H6X      HAL2     0.900000E-01   1.00800           0
     20384 MEMB     174      POPE     H6Y      HAL2     0.900000E-01   1.00800           0
     20385 MEMB     174      POPE     C37      CTL2    -0.180000       12.0110           0
     20386 MEMB     174      POPE     H7X      HAL2     0.900000E-01   1.00800           0
     20387 MEMB     174      POPE     H7Y      HAL2     0.900000E-01   1.00800           0
     20388 MEMB     174      POPE     C38      CTL2    -0.180000       12.0110           0
     20389 MEMB     174      POPE     H8X      HAL2     0.900000E-01   1.00800           0
     20390 MEMB     174      POPE     H8Y      HAL2     0.900000E-01   1.00800           0
     20391 MEMB     174      POPE     C39      CTL2    -0.180000       12.0110           0
     20392 MEMB     174      POPE     H9X      HAL2     0.900000E-01   1.00800           0
     20393 MEMB     174      POPE     H9Y      HAL2     0.900000E-01   1.00800           0
     20394 MEMB     174      POPE     C310     CTL2    -0.180000       12.0110           0
     20395 MEMB     174      POPE     H10X     HAL2     0.900000E-01   1.00800           0
     20396 MEMB     174      POPE     H10Y     HAL2     0.900000E-01   1.00800           0
     20397 MEMB     174      POPE     C311     CTL2    -0.180000       12.0110           0
     20398 MEMB     174      POPE     H11X     HAL2     0.900000E-01   1.00800           0
     20399 MEMB     174      POPE     H11Y     HAL2     0.900000E-01   1.00800           0
     20400 MEMB     174      POPE     C312     CTL2    -0.180000       12.0110           0
     20401 MEMB     174      POPE     H12X     HAL2     0.900000E-01   1.00800           0
     20402 MEMB     174      POPE     H12Y     HAL2     0.900000E-01   1.00800           0
     20403 MEMB     174      POPE     C313     CTL2    -0.180000       12.0110           0
     20404 MEMB     174      POPE     H13X     HAL2     0.900000E-01   1.00800           0
     20405 MEMB     174      POPE     H13Y     HAL2     0.900000E-01   1.00800           0
     20406 MEMB     174      POPE     C314     CTL2    -0.180000       12.0110           0
     20407 MEMB     174      POPE     H14X     HAL2     0.900000E-01   1.00800           0
     20408 MEMB     174      POPE     H14Y     HAL2     0.900000E-01   1.00800           0
     20409 MEMB     174      POPE     C315     CTL2    -0.180000       12.0110           0
     20410 MEMB     174      POPE     H15X     HAL2     0.900000E-01   1.00800           0
     20411 MEMB     174      POPE     H15Y     HAL2     0.900000E-01   1.00800           0
     20412 MEMB     174      POPE     C316     CTL3    -0.270000       12.0110           0
     20413 MEMB     174      POPE     H16X     HAL3     0.900000E-01   1.00800           0
     20414 MEMB     174      POPE     H16Y     HAL3     0.900000E-01   1.00800           0
     20415 MEMB     174      POPE     H16Z     HAL3     0.900000E-01   1.00800           0
     20416 MEMB     175      POPC     N        NTL     -0.600000       14.0070           0
     20417 MEMB     175      POPC     C12      CTL2    -0.100000       12.0110           0
     20418 MEMB     175      POPC     H12A     HL       0.250000       1.00800           0
     20419 MEMB     175      POPC     H12B     HL       0.250000       1.00800           0
     20420 MEMB     175      POPC     C13      CTL5    -0.350000       12.0110           0
     20421 MEMB     175      POPC     H13A     HL       0.250000       1.00800           0
     20422 MEMB     175      POPC     H13B     HL       0.250000       1.00800           0
     20423 MEMB     175      POPC     H13C     HL       0.250000       1.00800           0
     20424 MEMB     175      POPC     C14      CTL5    -0.350000       12.0110           0
     20425 MEMB     175      POPC     H14A     HL       0.250000       1.00800           0
     20426 MEMB     175      POPC     H14B     HL       0.250000       1.00800           0
     20427 MEMB     175      POPC     H14C     HL       0.250000       1.00800           0
     20428 MEMB     175      POPC     C15      CTL5    -0.350000       12.0110           0
     20429 MEMB     175      POPC     H15A     HL       0.250000       1.00800           0
     20430 MEMB     175      POPC     H15B     HL       0.250000       1.00800           0
     20431 MEMB     175      POPC     H15C     HL       0.250000       1.00800           0
     20432 MEMB     175      POPC     C11      CTL2    -0.800000E-01   12.0110           0
     20433 MEMB     175      POPC     H11A     HAL2     0.900000E-01   1.00800           0
     20434 MEMB     175      POPC     H11B     HAL2     0.900000E-01   1.00800           0
     20435 MEMB     175      POPC     P        PL        1.50000       30.9740           0
     20436 MEMB     175      POPC     O13      O2L     -0.780000       15.9994           0
     20437 MEMB     175      POPC     O14      O2L     -0.780000       15.9994           0
     20438 MEMB     175      POPC     O12      OSLP    -0.570000       15.9994           0
     20439 MEMB     175      POPC     O11      OSLP    -0.570000       15.9994           0
     20440 MEMB     175      POPC     C1       CTL2    -0.800000E-01   12.0110           0
     20441 MEMB     175      POPC     HA       HAL2     0.900000E-01   1.00800           0
     20442 MEMB     175      POPC     HB       HAL2     0.900000E-01   1.00800           0
     20443 MEMB     175      POPC     C2       CTL1     0.170000       12.0110           0
     20444 MEMB     175      POPC     HS       HAL1     0.900000E-01   1.00800           0
     20445 MEMB     175      POPC     O21      OSL     -0.490000       15.9994           0
     20446 MEMB     175      POPC     C21      CL       0.900000       12.0110           0
     20447 MEMB     175      POPC     O22      OBL     -0.630000       15.9994           0
     20448 MEMB     175      POPC     C22      CTL2    -0.220000       12.0110           0
     20449 MEMB     175      POPC     H2R      HAL2     0.900000E-01   1.00800           0
     20450 MEMB     175      POPC     H2S      HAL2     0.900000E-01   1.00800           0
     20451 MEMB     175      POPC     C3       CTL2     0.800000E-01   12.0110           0
     20452 MEMB     175      POPC     HX       HAL2     0.900000E-01   1.00800           0
     20453 MEMB     175      POPC     HY       HAL2     0.900000E-01   1.00800           0
     20454 MEMB     175      POPC     O31      OSL     -0.490000       15.9994           0
     20455 MEMB     175      POPC     C31      CL       0.900000       12.0110           0
     20456 MEMB     175      POPC     O32      OBL     -0.630000       15.9994           0
     20457 MEMB     175      POPC     C32      CTL2    -0.220000       12.0110           0
     20458 MEMB     175      POPC     H2X      HAL2     0.900000E-01   1.00800           0
     20459 MEMB     175      POPC     H2Y      HAL2     0.900000E-01   1.00800           0
     20460 MEMB     175      POPC     C23      CTL2    -0.180000       12.0110           0
     20461 MEMB     175      POPC     H3R      HAL2     0.900000E-01   1.00800           0
     20462 MEMB     175      POPC     H3S      HAL2     0.900000E-01   1.00800           0
     20463 MEMB     175      POPC     C24      CTL2    -0.180000       12.0110           0
     20464 MEMB     175      POPC     H4R      HAL2     0.900000E-01   1.00800           0
     20465 MEMB     175      POPC     H4S      HAL2     0.900000E-01   1.00800           0
     20466 MEMB     175      POPC     C25      CTL2    -0.180000       12.0110           0
     20467 MEMB     175      POPC     H5R      HAL2     0.900000E-01   1.00800           0
     20468 MEMB     175      POPC     H5S      HAL2     0.900000E-01   1.00800           0
     20469 MEMB     175      POPC     C26      CTL2    -0.180000       12.0110           0
     20470 MEMB     175      POPC     H6R      HAL2     0.900000E-01   1.00800           0
     20471 MEMB     175      POPC     H6S      HAL2     0.900000E-01   1.00800           0
     20472 MEMB     175      POPC     C27      CTL2    -0.180000       12.0110           0
     20473 MEMB     175      POPC     H7R      HAL2     0.900000E-01   1.00800           0
     20474 MEMB     175      POPC     H7S      HAL2     0.900000E-01   1.00800           0
     20475 MEMB     175      POPC     C28      CTL2    -0.180000       12.0110           0
     20476 MEMB     175      POPC     H8R      HAL2     0.900000E-01   1.00800           0
     20477 MEMB     175      POPC     H8S      HAL2     0.900000E-01   1.00800           0
     20478 MEMB     175      POPC     C29      CEL1    -0.150000       12.0110           0
     20479 MEMB     175      POPC     H91      HEL1     0.150000       1.00800           0
     20480 MEMB     175      POPC     C210     CEL1    -0.150000       12.0110           0
     20481 MEMB     175      POPC     H101     HEL1     0.150000       1.00800           0
     20482 MEMB     175      POPC     C211     CTL2    -0.180000       12.0110           0
     20483 MEMB     175      POPC     H11R     HAL2     0.900000E-01   1.00800           0
     20484 MEMB     175      POPC     H11S     HAL2     0.900000E-01   1.00800           0
     20485 MEMB     175      POPC     C212     CTL2    -0.180000       12.0110           0
     20486 MEMB     175      POPC     H12R     HAL2     0.900000E-01   1.00800           0
     20487 MEMB     175      POPC     H12S     HAL2     0.900000E-01   1.00800           0
     20488 MEMB     175      POPC     C213     CTL2    -0.180000       12.0110           0
     20489 MEMB     175      POPC     H13R     HAL2     0.900000E-01   1.00800           0
     20490 MEMB     175      POPC     H13S     HAL2     0.900000E-01   1.00800           0
     20491 MEMB     175      POPC     C214     CTL2    -0.180000       12.0110           0
     20492 MEMB     175      POPC     H14R     HAL2     0.900000E-01   1.00800           0
     20493 MEMB     175      POPC     H14S     HAL2     0.900000E-01   1.00800           0
     20494 MEMB     175      POPC     C215     CTL2    -0.180000       12.0110           0
     20495 MEMB     175      POPC     H15R     HAL2     0.900000E-01   1.00800           0
     20496 MEMB     175      POPC     H15S     HAL2     0.900000E-01   1.00800           0
     20497 MEMB     175      POPC     C216     CTL2    -0.180000       12.0110           0
     20498 MEMB     175      POPC     H16R     HAL2     0.900000E-01   1.00800           0
     20499 MEMB     175      POPC     H16S     HAL2     0.900000E-01   1.00800           0
     20500 MEMB     175      POPC     C217     CTL2    -0.180000       12.0110           0
     20501 MEMB     175      POPC     H17R     HAL2     0.900000E-01   1.00800           0
     20502 MEMB     175      POPC     H17S     HAL2     0.900000E-01   1.00800           0
     20503 MEMB     175      POPC     C218     CTL3    -0.270000       12.0110           0
     20504 MEMB     175      POPC     H18R     HAL3     0.900000E-01   1.00800           0
     20505 MEMB     175      POPC     H18S     HAL3     0.900000E-01   1.00800           0
     20506 MEMB     175      POPC     H18T     HAL3     0.900000E-01   1.00800           0
     20507 MEMB     175      POPC     C33      CTL2    -0.180000       12.0110           0
     20508 MEMB     175      POPC     H3X      HAL2     0.900000E-01   1.00800           0
     20509 MEMB     175      POPC     H3Y      HAL2     0.900000E-01   1.00800           0
     20510 MEMB     175      POPC     C34      CTL2    -0.180000       12.0110           0
     20511 MEMB     175      POPC     H4X      HAL2     0.900000E-01   1.00800           0
     20512 MEMB     175      POPC     H4Y      HAL2     0.900000E-01   1.00800           0
     20513 MEMB     175      POPC     C35      CTL2    -0.180000       12.0110           0
     20514 MEMB     175      POPC     H5X      HAL2     0.900000E-01   1.00800           0
     20515 MEMB     175      POPC     H5Y      HAL2     0.900000E-01   1.00800           0
     20516 MEMB     175      POPC     C36      CTL2    -0.180000       12.0110           0
     20517 MEMB     175      POPC     H6X      HAL2     0.900000E-01   1.00800           0
     20518 MEMB     175      POPC     H6Y      HAL2     0.900000E-01   1.00800           0
     20519 MEMB     175      POPC     C37      CTL2    -0.180000       12.0110           0
     20520 MEMB     175      POPC     H7X      HAL2     0.900000E-01   1.00800           0
     20521 MEMB     175      POPC     H7Y      HAL2     0.900000E-01   1.00800           0
     20522 MEMB     175      POPC     C38      CTL2    -0.180000       12.0110           0
     20523 MEMB     175      POPC     H8X      HAL2     0.900000E-01   1.00800           0
     20524 MEMB     175      POPC     H8Y      HAL2     0.900000E-01   1.00800           0
     20525 MEMB     175      POPC     C39      CTL2    -0.180000       12.0110           0
     20526 MEMB     175      POPC     H9X      HAL2     0.900000E-01   1.00800           0
     20527 MEMB     175      POPC     H9Y      HAL2     0.900000E-01   1.00800           0
     20528 MEMB     175      POPC     C310     CTL2    -0.180000       12.0110           0
     20529 MEMB     175      POPC     H10X     HAL2     0.900000E-01   1.00800           0
     20530 MEMB     175      POPC     H10Y     HAL2     0.900000E-01   1.00800           0
     20531 MEMB     175      POPC     C311     CTL2    -0.180000       12.0110           0
     20532 MEMB     175      POPC     H11X     HAL2     0.900000E-01   1.00800           0
     20533 MEMB     175      POPC     H11Y     HAL2     0.900000E-01   1.00800           0
     20534 MEMB     175      POPC     C312     CTL2    -0.180000       12.0110           0
     20535 MEMB     175      POPC     H12X     HAL2     0.900000E-01   1.00800           0
     20536 MEMB     175      POPC     H12Y     HAL2     0.900000E-01   1.00800           0
     20537 MEMB     175      POPC     C313     CTL2    -0.180000       12.0110           0
     20538 MEMB     175      POPC     H13X     HAL2     0.900000E-01   1.00800           0
     20539 MEMB     175      POPC     H13Y     HAL2     0.900000E-01   1.00800           0
     20540 MEMB     175      POPC     C314     CTL2    -0.180000       12.0110           0
     20541 MEMB     175      POPC     H14X     HAL2     0.900000E-01   1.00800           0
     20542 MEMB     175      POPC     H14Y     HAL2     0.900000E-01   1.00800           0
     20543 MEMB     175      POPC     C315     CTL2    -0.180000       12.0110           0
     20544 MEMB     175      POPC     H15X     HAL2     0.900000E-01   1.00800           0
     20545 MEMB     175      POPC     H15Y     HAL2     0.900000E-01   1.00800           0
     20546 MEMB     175      POPC     C316     CTL3    -0.270000       12.0110           0
     20547 MEMB     175      POPC     H16X     HAL3     0.900000E-01   1.00800           0
     20548 MEMB     175      POPC     H16Y     HAL3     0.900000E-01   1.00800           0
     20549 MEMB     175      POPC     H16Z     HAL3     0.900000E-01   1.00800           0
     20550 MEMB     176      POPC     N        NTL     -0.600000       14.0070           0
     20551 MEMB     176      POPC     C12      CTL2    -0.100000       12.0110           0
     20552 MEMB     176      POPC     H12A     HL       0.250000       1.00800           0
     20553 MEMB     176      POPC     H12B     HL       0.250000       1.00800           0
     20554 MEMB     176      POPC     C13      CTL5    -0.350000       12.0110           0
     20555 MEMB     176      POPC     H13A     HL       0.250000       1.00800           0
     20556 MEMB     176      POPC     H13B     HL       0.250000       1.00800           0
     20557 MEMB     176      POPC     H13C     HL       0.250000       1.00800           0
     20558 MEMB     176      POPC     C14      CTL5    -0.350000       12.0110           0
     20559 MEMB     176      POPC     H14A     HL       0.250000       1.00800           0
     20560 MEMB     176      POPC     H14B     HL       0.250000       1.00800           0
     20561 MEMB     176      POPC     H14C     HL       0.250000       1.00800           0
     20562 MEMB     176      POPC     C15      CTL5    -0.350000       12.0110           0
     20563 MEMB     176      POPC     H15A     HL       0.250000       1.00800           0
     20564 MEMB     176      POPC     H15B     HL       0.250000       1.00800           0
     20565 MEMB     176      POPC     H15C     HL       0.250000       1.00800           0
     20566 MEMB     176      POPC     C11      CTL2    -0.800000E-01   12.0110           0
     20567 MEMB     176      POPC     H11A     HAL2     0.900000E-01   1.00800           0
     20568 MEMB     176      POPC     H11B     HAL2     0.900000E-01   1.00800           0
     20569 MEMB     176      POPC     P        PL        1.50000       30.9740           0
     20570 MEMB     176      POPC     O13      O2L     -0.780000       15.9994           0
     20571 MEMB     176      POPC     O14      O2L     -0.780000       15.9994           0
     20572 MEMB     176      POPC     O12      OSLP    -0.570000       15.9994           0
     20573 MEMB     176      POPC     O11      OSLP    -0.570000       15.9994           0
     20574 MEMB     176      POPC     C1       CTL2    -0.800000E-01   12.0110           0
     20575 MEMB     176      POPC     HA       HAL2     0.900000E-01   1.00800           0
     20576 MEMB     176      POPC     HB       HAL2     0.900000E-01   1.00800           0
     20577 MEMB     176      POPC     C2       CTL1     0.170000       12.0110           0
     20578 MEMB     176      POPC     HS       HAL1     0.900000E-01   1.00800           0
     20579 MEMB     176      POPC     O21      OSL     -0.490000       15.9994           0
     20580 MEMB     176      POPC     C21      CL       0.900000       12.0110           0
     20581 MEMB     176      POPC     O22      OBL     -0.630000       15.9994           0
     20582 MEMB     176      POPC     C22      CTL2    -0.220000       12.0110           0
     20583 MEMB     176      POPC     H2R      HAL2     0.900000E-01   1.00800           0
     20584 MEMB     176      POPC     H2S      HAL2     0.900000E-01   1.00800           0
     20585 MEMB     176      POPC     C3       CTL2     0.800000E-01   12.0110           0
     20586 MEMB     176      POPC     HX       HAL2     0.900000E-01   1.00800           0
     20587 MEMB     176      POPC     HY       HAL2     0.900000E-01   1.00800           0
     20588 MEMB     176      POPC     O31      OSL     -0.490000       15.9994           0
     20589 MEMB     176      POPC     C31      CL       0.900000       12.0110           0
     20590 MEMB     176      POPC     O32      OBL     -0.630000       15.9994           0
     20591 MEMB     176      POPC     C32      CTL2    -0.220000       12.0110           0
     20592 MEMB     176      POPC     H2X      HAL2     0.900000E-01   1.00800           0
     20593 MEMB     176      POPC     H2Y      HAL2     0.900000E-01   1.00800           0
     20594 MEMB     176      POPC     C23      CTL2    -0.180000       12.0110           0
     20595 MEMB     176      POPC     H3R      HAL2     0.900000E-01   1.00800           0
     20596 MEMB     176      POPC     H3S      HAL2     0.900000E-01   1.00800           0
     20597 MEMB     176      POPC     C24      CTL2    -0.180000       12.0110           0
     20598 MEMB     176      POPC     H4R      HAL2     0.900000E-01   1.00800           0
     20599 MEMB     176      POPC     H4S      HAL2     0.900000E-01   1.00800           0
     20600 MEMB     176      POPC     C25      CTL2    -0.180000       12.0110           0
     20601 MEMB     176      POPC     H5R      HAL2     0.900000E-01   1.00800           0
     20602 MEMB     176      POPC     H5S      HAL2     0.900000E-01   1.00800           0
     20603 MEMB     176      POPC     C26      CTL2    -0.180000       12.0110           0
     20604 MEMB     176      POPC     H6R      HAL2     0.900000E-01   1.00800           0
     20605 MEMB     176      POPC     H6S      HAL2     0.900000E-01   1.00800           0
     20606 MEMB     176      POPC     C27      CTL2    -0.180000       12.0110           0
     20607 MEMB     176      POPC     H7R      HAL2     0.900000E-01   1.00800           0
     20608 MEMB     176      POPC     H7S      HAL2     0.900000E-01   1.00800           0
     20609 MEMB     176      POPC     C28      CTL2    -0.180000       12.0110           0
     20610 MEMB     176      POPC     H8R      HAL2     0.900000E-01   1.00800           0
     20611 MEMB     176      POPC     H8S      HAL2     0.900000E-01   1.00800           0
     20612 MEMB     176      POPC     C29      CEL1    -0.150000       12.0110           0
     20613 MEMB     176      POPC     H91      HEL1     0.150000       1.00800           0
     20614 MEMB     176      POPC     C210     CEL1    -0.150000       12.0110           0
     20615 MEMB     176      POPC     H101     HEL1     0.150000       1.00800           0
     20616 MEMB     176      POPC     C211     CTL2    -0.180000       12.0110           0
     20617 MEMB     176      POPC     H11R     HAL2     0.900000E-01   1.00800           0
     20618 MEMB     176      POPC     H11S     HAL2     0.900000E-01   1.00800           0
     20619 MEMB     176      POPC     C212     CTL2    -0.180000       12.0110           0
     20620 MEMB     176      POPC     H12R     HAL2     0.900000E-01   1.00800           0
     20621 MEMB     176      POPC     H12S     HAL2     0.900000E-01   1.00800           0
     20622 MEMB     176      POPC     C213     CTL2    -0.180000       12.0110           0
     20623 MEMB     176      POPC     H13R     HAL2     0.900000E-01   1.00800           0
     20624 MEMB     176      POPC     H13S     HAL2     0.900000E-01   1.00800           0
     20625 MEMB     176      POPC     C214     CTL2    -0.180000       12.0110           0
     20626 MEMB     176      POPC     H14R     HAL2     0.900000E-01   1.00800           0
     20627 MEMB     176      POPC     H14S     HAL2     0.900000E-01   1.00800           0
     20628 MEMB     176      POPC     C215     CTL2    -0.180000       12.0110           0
     20629 MEMB     176      POPC     H15R     HAL2     0.900000E-01   1.00800           0
     20630 MEMB     176      POPC     H15S     HAL2     0.900000E-01   1.00800           0
     20631 MEMB     176      POPC     C216     CTL2    -0.180000       12.0110           0
     20632 MEMB     176      POPC     H16R     HAL2     0.900000E-01   1.00800           0
     20633 MEMB     176      POPC     H16S     HAL2     0.900000E-01   1.00800           0
     20634 MEMB     176      POPC     C217     CTL2    -0.180000       12.0110           0
     20635 MEMB     176      POPC     H17R     HAL2     0.900000E-01   1.00800           0
     20636 MEMB     176      POPC     H17S     HAL2     0.900000E-01   1.00800           0
     20637 MEMB     176      POPC     C218     CTL3    -0.270000       12.0110           0
     20638 MEMB     176      POPC     H18R     HAL3     0.900000E-01   1.00800           0
     20639 MEMB     176      POPC     H18S     HAL3     0.900000E-01   1.00800           0
     20640 MEMB     176      POPC     H18T     HAL3     0.900000E-01   1.00800           0
     20641 MEMB     176      POPC     C33      CTL2    -0.180000       12.0110           0
     20642 MEMB     176      POPC     H3X      HAL2     0.900000E-01   1.00800           0
     20643 MEMB     176      POPC     H3Y      HAL2     0.900000E-01   1.00800           0
     20644 MEMB     176      POPC     C34      CTL2    -0.180000       12.0110           0
     20645 MEMB     176      POPC     H4X      HAL2     0.900000E-01   1.00800           0
     20646 MEMB     176      POPC     H4Y      HAL2     0.900000E-01   1.00800           0
     20647 MEMB     176      POPC     C35      CTL2    -0.180000       12.0110           0
     20648 MEMB     176      POPC     H5X      HAL2     0.900000E-01   1.00800           0
     20649 MEMB     176      POPC     H5Y      HAL2     0.900000E-01   1.00800           0
     20650 MEMB     176      POPC     C36      CTL2    -0.180000       12.0110           0
     20651 MEMB     176      POPC     H6X      HAL2     0.900000E-01   1.00800           0
     20652 MEMB     176      POPC     H6Y      HAL2     0.900000E-01   1.00800           0
     20653 MEMB     176      POPC     C37      CTL2    -0.180000       12.0110           0
     20654 MEMB     176      POPC     H7X      HAL2     0.900000E-01   1.00800           0
     20655 MEMB     176      POPC     H7Y      HAL2     0.900000E-01   1.00800           0
     20656 MEMB     176      POPC     C38      CTL2    -0.180000       12.0110           0
     20657 MEMB     176      POPC     H8X      HAL2     0.900000E-01   1.00800           0
     20658 MEMB     176      POPC     H8Y      HAL2     0.900000E-01   1.00800           0
     20659 MEMB     176      POPC     C39      CTL2    -0.180000       12.0110           0
     20660 MEMB     176      POPC     H9X      HAL2     0.900000E-01   1.00800           0
     20661 MEMB     176      POPC     H9Y      HAL2     0.900000E-01   1.00800           0
     20662 MEMB     176      POPC     C310     CTL2    -0.180000       12.0110           0
     20663 MEMB     176      POPC     H10X     HAL2     0.900000E-01   1.00800           0
     20664 MEMB     176      POPC     H10Y     HAL2     0.900000E-01   1.00800           0
     20665 MEMB     176      POPC     C311     CTL2    -0.180000       12.0110           0
     20666 MEMB     176      POPC     H11X     HAL2     0.900000E-01   1.00800           0
     20667 MEMB     176      POPC     H11Y     HAL2     0.900000E-01   1.00800           0
     20668 MEMB     176      POPC     C312     CTL2    -0.180000       12.0110           0
     20669 MEMB     176      POPC     H12X     HAL2     0.900000E-01   1.00800           0
     20670 MEMB     176      POPC     H12Y     HAL2     0.900000E-01   1.00800           0
     20671 MEMB     176      POPC     C313     CTL2    -0.180000       12.0110           0
     20672 MEMB     176      POPC     H13X     HAL2     0.900000E-01   1.00800           0
     20673 MEMB     176      POPC     H13Y     HAL2     0.900000E-01   1.00800           0
     20674 MEMB     176      POPC     C314     CTL2    -0.180000       12.0110           0
     20675 MEMB     176      POPC     H14X     HAL2     0.900000E-01   1.00800           0
     20676 MEMB     176      POPC     H14Y     HAL2     0.900000E-01   1.00800           0
     20677 MEMB     176      POPC     C315     CTL2    -0.180000       12.0110           0
     20678 MEMB     176      POPC     H15X     HAL2     0.900000E-01   1.00800           0
     20679 MEMB     176      POPC     H15Y     HAL2     0.900000E-01   1.00800           0
     20680 MEMB     176      POPC     C316     CTL3    -0.270000       12.0110           0
     20681 MEMB     176      POPC     H16X     HAL3     0.900000E-01   1.00800           0
     20682 MEMB     176      POPC     H16Y     HAL3     0.900000E-01   1.00800           0
     20683 MEMB     176      POPC     H16Z     HAL3     0.900000E-01   1.00800           0
     20684 MEMB     177      POPC     N        NTL     -0.600000       14.0070           0
     20685 MEMB     177      POPC     C12      CTL2    -0.100000       12.0110           0
     20686 MEMB     177      POPC     H12A     HL       0.250000       1.00800           0
     20687 MEMB     177      POPC     H12B     HL       0.250000       1.00800           0
     20688 MEMB     177      POPC     C13      CTL5    -0.350000       12.0110           0
     20689 MEMB     177      POPC     H13A     HL       0.250000       1.00800           0
     20690 MEMB     177      POPC     H13B     HL       0.250000       1.00800           0
     20691 MEMB     177      POPC     H13C     HL       0.250000       1.00800           0
     20692 MEMB     177      POPC     C14      CTL5    -0.350000       12.0110           0
     20693 MEMB     177      POPC     H14A     HL       0.250000       1.00800           0
     20694 MEMB     177      POPC     H14B     HL       0.250000       1.00800           0
     20695 MEMB     177      POPC     H14C     HL       0.250000       1.00800           0
     20696 MEMB     177      POPC     C15      CTL5    -0.350000       12.0110           0
     20697 MEMB     177      POPC     H15A     HL       0.250000       1.00800           0
     20698 MEMB     177      POPC     H15B     HL       0.250000       1.00800           0
     20699 MEMB     177      POPC     H15C     HL       0.250000       1.00800           0
     20700 MEMB     177      POPC     C11      CTL2    -0.800000E-01   12.0110           0
     20701 MEMB     177      POPC     H11A     HAL2     0.900000E-01   1.00800           0
     20702 MEMB     177      POPC     H11B     HAL2     0.900000E-01   1.00800           0
     20703 MEMB     177      POPC     P        PL        1.50000       30.9740           0
     20704 MEMB     177      POPC     O13      O2L     -0.780000       15.9994           0
     20705 MEMB     177      POPC     O14      O2L     -0.780000       15.9994           0
     20706 MEMB     177      POPC     O12      OSLP    -0.570000       15.9994           0
     20707 MEMB     177      POPC     O11      OSLP    -0.570000       15.9994           0
     20708 MEMB     177      POPC     C1       CTL2    -0.800000E-01   12.0110           0
     20709 MEMB     177      POPC     HA       HAL2     0.900000E-01   1.00800           0
     20710 MEMB     177      POPC     HB       HAL2     0.900000E-01   1.00800           0
     20711 MEMB     177      POPC     C2       CTL1     0.170000       12.0110           0
     20712 MEMB     177      POPC     HS       HAL1     0.900000E-01   1.00800           0
     20713 MEMB     177      POPC     O21      OSL     -0.490000       15.9994           0
     20714 MEMB     177      POPC     C21      CL       0.900000       12.0110           0
     20715 MEMB     177      POPC     O22      OBL     -0.630000       15.9994           0
     20716 MEMB     177      POPC     C22      CTL2    -0.220000       12.0110           0
     20717 MEMB     177      POPC     H2R      HAL2     0.900000E-01   1.00800           0
     20718 MEMB     177      POPC     H2S      HAL2     0.900000E-01   1.00800           0
     20719 MEMB     177      POPC     C3       CTL2     0.800000E-01   12.0110           0
     20720 MEMB     177      POPC     HX       HAL2     0.900000E-01   1.00800           0
     20721 MEMB     177      POPC     HY       HAL2     0.900000E-01   1.00800           0
     20722 MEMB     177      POPC     O31      OSL     -0.490000       15.9994           0
     20723 MEMB     177      POPC     C31      CL       0.900000       12.0110           0
     20724 MEMB     177      POPC     O32      OBL     -0.630000       15.9994           0
     20725 MEMB     177      POPC     C32      CTL2    -0.220000       12.0110           0
     20726 MEMB     177      POPC     H2X      HAL2     0.900000E-01   1.00800           0
     20727 MEMB     177      POPC     H2Y      HAL2     0.900000E-01   1.00800           0
     20728 MEMB     177      POPC     C23      CTL2    -0.180000       12.0110           0
     20729 MEMB     177      POPC     H3R      HAL2     0.900000E-01   1.00800           0
     20730 MEMB     177      POPC     H3S      HAL2     0.900000E-01   1.00800           0
     20731 MEMB     177      POPC     C24      CTL2    -0.180000       12.0110           0
     20732 MEMB     177      POPC     H4R      HAL2     0.900000E-01   1.00800           0
     20733 MEMB     177      POPC     H4S      HAL2     0.900000E-01   1.00800           0
     20734 MEMB     177      POPC     C25      CTL2    -0.180000       12.0110           0
     20735 MEMB     177      POPC     H5R      HAL2     0.900000E-01   1.00800           0
     20736 MEMB     177      POPC     H5S      HAL2     0.900000E-01   1.00800           0
     20737 MEMB     177      POPC     C26      CTL2    -0.180000       12.0110           0
     20738 MEMB     177      POPC     H6R      HAL2     0.900000E-01   1.00800           0
     20739 MEMB     177      POPC     H6S      HAL2     0.900000E-01   1.00800           0
     20740 MEMB     177      POPC     C27      CTL2    -0.180000       12.0110           0
     20741 MEMB     177      POPC     H7R      HAL2     0.900000E-01   1.00800           0
     20742 MEMB     177      POPC     H7S      HAL2     0.900000E-01   1.00800           0
     20743 MEMB     177      POPC     C28      CTL2    -0.180000       12.0110           0
     20744 MEMB     177      POPC     H8R      HAL2     0.900000E-01   1.00800           0
     20745 MEMB     177      POPC     H8S      HAL2     0.900000E-01   1.00800           0
     20746 MEMB     177      POPC     C29      CEL1    -0.150000       12.0110           0
     20747 MEMB     177      POPC     H91      HEL1     0.150000       1.00800           0
     20748 MEMB     177      POPC     C210     CEL1    -0.150000       12.0110           0
     20749 MEMB     177      POPC     H101     HEL1     0.150000       1.00800           0
     20750 MEMB     177      POPC     C211     CTL2    -0.180000       12.0110           0
     20751 MEMB     177      POPC     H11R     HAL2     0.900000E-01   1.00800           0
     20752 MEMB     177      POPC     H11S     HAL2     0.900000E-01   1.00800           0
     20753 MEMB     177      POPC     C212     CTL2    -0.180000       12.0110           0
     20754 MEMB     177      POPC     H12R     HAL2     0.900000E-01   1.00800           0
     20755 MEMB     177      POPC     H12S     HAL2     0.900000E-01   1.00800           0
     20756 MEMB     177      POPC     C213     CTL2    -0.180000       12.0110           0
     20757 MEMB     177      POPC     H13R     HAL2     0.900000E-01   1.00800           0
     20758 MEMB     177      POPC     H13S     HAL2     0.900000E-01   1.00800           0
     20759 MEMB     177      POPC     C214     CTL2    -0.180000       12.0110           0
     20760 MEMB     177      POPC     H14R     HAL2     0.900000E-01   1.00800           0
     20761 MEMB     177      POPC     H14S     HAL2     0.900000E-01   1.00800           0
     20762 MEMB     177      POPC     C215     CTL2    -0.180000       12.0110           0
     20763 MEMB     177      POPC     H15R     HAL2     0.900000E-01   1.00800           0
     20764 MEMB     177      POPC     H15S     HAL2     0.900000E-01   1.00800           0
     20765 MEMB     177      POPC     C216     CTL2    -0.180000       12.0110           0
     20766 MEMB     177      POPC     H16R     HAL2     0.900000E-01   1.00800           0
     20767 MEMB     177      POPC     H16S     HAL2     0.900000E-01   1.00800           0
     20768 MEMB     177      POPC     C217     CTL2    -0.180000       12.0110           0
     20769 MEMB     177      POPC     H17R     HAL2     0.900000E-01   1.00800           0
     20770 MEMB     177      POPC     H17S     HAL2     0.900000E-01   1.00800           0
     20771 MEMB     177      POPC     C218     CTL3    -0.270000       12.0110           0
     20772 MEMB     177      POPC     H18R     HAL3     0.900000E-01   1.00800           0
     20773 MEMB     177      POPC     H18S     HAL3     0.900000E-01   1.00800           0
     20774 MEMB     177      POPC     H18T     HAL3     0.900000E-01   1.00800           0
     20775 MEMB     177      POPC     C33      CTL2    -0.180000       12.0110           0
     20776 MEMB     177      POPC     H3X      HAL2     0.900000E-01   1.00800           0
     20777 MEMB     177      POPC     H3Y      HAL2     0.900000E-01   1.00800           0
     20778 MEMB     177      POPC     C34      CTL2    -0.180000       12.0110           0
     20779 MEMB     177      POPC     H4X      HAL2     0.900000E-01   1.00800           0
     20780 MEMB     177      POPC     H4Y      HAL2     0.900000E-01   1.00800           0
     20781 MEMB     177      POPC     C35      CTL2    -0.180000       12.0110           0
     20782 MEMB     177      POPC     H5X      HAL2     0.900000E-01   1.00800           0
     20783 MEMB     177      POPC     H5Y      HAL2     0.900000E-01   1.00800           0
     20784 MEMB     177      POPC     C36      CTL2    -0.180000       12.0110           0
     20785 MEMB     177      POPC     H6X      HAL2     0.900000E-01   1.00800           0
     20786 MEMB     177      POPC     H6Y      HAL2     0.900000E-01   1.00800           0
     20787 MEMB     177      POPC     C37      CTL2    -0.180000       12.0110           0
     20788 MEMB     177      POPC     H7X      HAL2     0.900000E-01   1.00800           0
     20789 MEMB     177      POPC     H7Y      HAL2     0.900000E-01   1.00800           0
     20790 MEMB     177      POPC     C38      CTL2    -0.180000       12.0110           0
     20791 MEMB     177      POPC     H8X      HAL2     0.900000E-01   1.00800           0
     20792 MEMB     177      POPC     H8Y      HAL2     0.900000E-01   1.00800           0
     20793 MEMB     177      POPC     C39      CTL2    -0.180000       12.0110           0
     20794 MEMB     177      POPC     H9X      HAL2     0.900000E-01   1.00800           0
     20795 MEMB     177      POPC     H9Y      HAL2     0.900000E-01   1.00800           0
     20796 MEMB     177      POPC     C310     CTL2    -0.180000       12.0110           0
     20797 MEMB     177      POPC     H10X     HAL2     0.900000E-01   1.00800           0
     20798 MEMB     177      POPC     H10Y     HAL2     0.900000E-01   1.00800           0
     20799 MEMB     177      POPC     C311     CTL2    -0.180000       12.0110           0
     20800 MEMB     177      POPC     H11X     HAL2     0.900000E-01   1.00800           0
     20801 MEMB     177      POPC     H11Y     HAL2     0.900000E-01   1.00800           0
     20802 MEMB     177      POPC     C312     CTL2    -0.180000       12.0110           0
     20803 MEMB     177      POPC     H12X     HAL2     0.900000E-01   1.00800           0
     20804 MEMB     177      POPC     H12Y     HAL2     0.900000E-01   1.00800           0
     20805 MEMB     177      POPC     C313     CTL2    -0.180000       12.0110           0
     20806 MEMB     177      POPC     H13X     HAL2     0.900000E-01   1.00800           0
     20807 MEMB     177      POPC     H13Y     HAL2     0.900000E-01   1.00800           0
     20808 MEMB     177      POPC     C314     CTL2    -0.180000       12.0110           0
     20809 MEMB     177      POPC     H14X     HAL2     0.900000E-01   1.00800           0
     20810 MEMB     177      POPC     H14Y     HAL2     0.900000E-01   1.00800           0
     20811 MEMB     177      POPC     C315     CTL2    -0.180000       12.0110           0
     20812 MEMB     177      POPC     H15X     HAL2     0.900000E-01   1.00800           0
     20813 MEMB     177      POPC     H15Y     HAL2     0.900000E-01   1.00800           0
     20814 MEMB     177      POPC     C316     CTL3    -0.270000       12.0110           0
     20815 MEMB     177      POPC     H16X     HAL3     0.900000E-01   1.00800           0
     20816 MEMB     177      POPC     H16Y     HAL3     0.900000E-01   1.00800           0
     20817 MEMB     177      POPC     H16Z     HAL3     0.900000E-01   1.00800           0
     20818 MEMB     178      POPE     N        NH3L    -0.300000       14.0070           0
     20819 MEMB     178      POPE     HN1      HCL      0.330000       1.00800           0
     20820 MEMB     178      POPE     HN2      HCL      0.330000       1.00800           0
     20821 MEMB     178      POPE     HN3      HCL      0.330000       1.00800           0
     20822 MEMB     178      POPE     C12      CTL2     0.130000       12.0110           0
     20823 MEMB     178      POPE     H12A     HAL2     0.900000E-01   1.00800           0
     20824 MEMB     178      POPE     H12B     HAL2     0.900000E-01   1.00800           0
     20825 MEMB     178      POPE     C11      CTL2    -0.800000E-01   12.0110           0
     20826 MEMB     178      POPE     H11A     HAL2     0.900000E-01   1.00800           0
     20827 MEMB     178      POPE     H11B     HAL2     0.900000E-01   1.00800           0
     20828 MEMB     178      POPE     P        PL        1.50000       30.9740           0
     20829 MEMB     178      POPE     O13      O2L     -0.780000       15.9994           0
     20830 MEMB     178      POPE     O14      O2L     -0.780000       15.9994           0
     20831 MEMB     178      POPE     O11      OSLP    -0.570000       15.9994           0
     20832 MEMB     178      POPE     O12      OSLP    -0.570000       15.9994           0
     20833 MEMB     178      POPE     C1       CTL2    -0.800000E-01   12.0110           0
     20834 MEMB     178      POPE     HA       HAL2     0.900000E-01   1.00800           0
     20835 MEMB     178      POPE     HB       HAL2     0.900000E-01   1.00800           0
     20836 MEMB     178      POPE     C2       CTL1     0.170000       12.0110           0
     20837 MEMB     178      POPE     HS       HAL1     0.900000E-01   1.00800           0
     20838 MEMB     178      POPE     O21      OSL     -0.490000       15.9994           0
     20839 MEMB     178      POPE     C21      CL       0.900000       12.0110           0
     20840 MEMB     178      POPE     O22      OBL     -0.630000       15.9994           0
     20841 MEMB     178      POPE     C22      CTL2    -0.220000       12.0110           0
     20842 MEMB     178      POPE     H2R      HAL2     0.900000E-01   1.00800           0
     20843 MEMB     178      POPE     H2S      HAL2     0.900000E-01   1.00800           0
     20844 MEMB     178      POPE     C3       CTL2     0.800000E-01   12.0110           0
     20845 MEMB     178      POPE     HX       HAL2     0.900000E-01   1.00800           0
     20846 MEMB     178      POPE     HY       HAL2     0.900000E-01   1.00800           0
     20847 MEMB     178      POPE     O31      OSL     -0.490000       15.9994           0
     20848 MEMB     178      POPE     C31      CL       0.900000       12.0110           0
     20849 MEMB     178      POPE     O32      OBL     -0.630000       15.9994           0
     20850 MEMB     178      POPE     C32      CTL2    -0.220000       12.0110           0
     20851 MEMB     178      POPE     H2X      HAL2     0.900000E-01   1.00800           0
     20852 MEMB     178      POPE     H2Y      HAL2     0.900000E-01   1.00800           0
     20853 MEMB     178      POPE     C23      CTL2    -0.180000       12.0110           0
     20854 MEMB     178      POPE     H3R      HAL2     0.900000E-01   1.00800           0
     20855 MEMB     178      POPE     H3S      HAL2     0.900000E-01   1.00800           0
     20856 MEMB     178      POPE     C24      CTL2    -0.180000       12.0110           0
     20857 MEMB     178      POPE     H4R      HAL2     0.900000E-01   1.00800           0
     20858 MEMB     178      POPE     H4S      HAL2     0.900000E-01   1.00800           0
     20859 MEMB     178      POPE     C25      CTL2    -0.180000       12.0110           0
     20860 MEMB     178      POPE     H5R      HAL2     0.900000E-01   1.00800           0
     20861 MEMB     178      POPE     H5S      HAL2     0.900000E-01   1.00800           0
     20862 MEMB     178      POPE     C26      CTL2    -0.180000       12.0110           0
     20863 MEMB     178      POPE     H6R      HAL2     0.900000E-01   1.00800           0
     20864 MEMB     178      POPE     H6S      HAL2     0.900000E-01   1.00800           0
     20865 MEMB     178      POPE     C27      CTL2    -0.180000       12.0110           0
     20866 MEMB     178      POPE     H7R      HAL2     0.900000E-01   1.00800           0
     20867 MEMB     178      POPE     H7S      HAL2     0.900000E-01   1.00800           0
     20868 MEMB     178      POPE     C28      CTL2    -0.180000       12.0110           0
     20869 MEMB     178      POPE     H8R      HAL2     0.900000E-01   1.00800           0
     20870 MEMB     178      POPE     H8S      HAL2     0.900000E-01   1.00800           0
     20871 MEMB     178      POPE     C29      CEL1    -0.150000       12.0110           0
     20872 MEMB     178      POPE     H91      HEL1     0.150000       1.00800           0
     20873 MEMB     178      POPE     C210     CEL1    -0.150000       12.0110           0
     20874 MEMB     178      POPE     H101     HEL1     0.150000       1.00800           0
     20875 MEMB     178      POPE     C211     CTL2    -0.180000       12.0110           0
     20876 MEMB     178      POPE     H11R     HAL2     0.900000E-01   1.00800           0
     20877 MEMB     178      POPE     H11S     HAL2     0.900000E-01   1.00800           0
     20878 MEMB     178      POPE     C212     CTL2    -0.180000       12.0110           0
     20879 MEMB     178      POPE     H12R     HAL2     0.900000E-01   1.00800           0
     20880 MEMB     178      POPE     H12S     HAL2     0.900000E-01   1.00800           0
     20881 MEMB     178      POPE     C213     CTL2    -0.180000       12.0110           0
     20882 MEMB     178      POPE     H13R     HAL2     0.900000E-01   1.00800           0
     20883 MEMB     178      POPE     H13S     HAL2     0.900000E-01   1.00800           0
     20884 MEMB     178      POPE     C214     CTL2    -0.180000       12.0110           0
     20885 MEMB     178      POPE     H14R     HAL2     0.900000E-01   1.00800           0
     20886 MEMB     178      POPE     H14S     HAL2     0.900000E-01   1.00800           0
     20887 MEMB     178      POPE     C215     CTL2    -0.180000       12.0110           0
     20888 MEMB     178      POPE     H15R     HAL2     0.900000E-01   1.00800           0
     20889 MEMB     178      POPE     H15S     HAL2     0.900000E-01   1.00800           0
     20890 MEMB     178      POPE     C216     CTL2    -0.180000       12.0110           0
     20891 MEMB     178      POPE     H16R     HAL2     0.900000E-01   1.00800           0
     20892 MEMB     178      POPE     H16S     HAL2     0.900000E-01   1.00800           0
     20893 MEMB     178      POPE     C217     CTL2    -0.180000       12.0110           0
     20894 MEMB     178      POPE     H17R     HAL2     0.900000E-01   1.00800           0
     20895 MEMB     178      POPE     H17S     HAL2     0.900000E-01   1.00800           0
     20896 MEMB     178      POPE     C218     CTL3    -0.270000       12.0110           0
     20897 MEMB     178      POPE     H18R     HAL3     0.900000E-01   1.00800           0
     20898 MEMB     178      POPE     H18S     HAL3     0.900000E-01   1.00800           0
     20899 MEMB     178      POPE     H18T     HAL3     0.900000E-01   1.00800           0
     20900 MEMB     178      POPE     C33      CTL2    -0.180000       12.0110           0
     20901 MEMB     178      POPE     H3X      HAL2     0.900000E-01   1.00800           0
     20902 MEMB     178      POPE     H3Y      HAL2     0.900000E-01   1.00800           0
     20903 MEMB     178      POPE     C34      CTL2    -0.180000       12.0110           0
     20904 MEMB     178      POPE     H4X      HAL2     0.900000E-01   1.00800           0
     20905 MEMB     178      POPE     H4Y      HAL2     0.900000E-01   1.00800           0
     20906 MEMB     178      POPE     C35      CTL2    -0.180000       12.0110           0
     20907 MEMB     178      POPE     H5X      HAL2     0.900000E-01   1.00800           0
     20908 MEMB     178      POPE     H5Y      HAL2     0.900000E-01   1.00800           0
     20909 MEMB     178      POPE     C36      CTL2    -0.180000       12.0110           0
     20910 MEMB     178      POPE     H6X      HAL2     0.900000E-01   1.00800           0
     20911 MEMB     178      POPE     H6Y      HAL2     0.900000E-01   1.00800           0
     20912 MEMB     178      POPE     C37      CTL2    -0.180000       12.0110           0
     20913 MEMB     178      POPE     H7X      HAL2     0.900000E-01   1.00800           0
     20914 MEMB     178      POPE     H7Y      HAL2     0.900000E-01   1.00800           0
     20915 MEMB     178      POPE     C38      CTL2    -0.180000       12.0110           0
     20916 MEMB     178      POPE     H8X      HAL2     0.900000E-01   1.00800           0
     20917 MEMB     178      POPE     H8Y      HAL2     0.900000E-01   1.00800           0
     20918 MEMB     178      POPE     C39      CTL2    -0.180000       12.0110           0
     20919 MEMB     178      POPE     H9X      HAL2     0.900000E-01   1.00800           0
     20920 MEMB     178      POPE     H9Y      HAL2     0.900000E-01   1.00800           0
     20921 MEMB     178      POPE     C310     CTL2    -0.180000       12.0110           0
     20922 MEMB     178      POPE     H10X     HAL2     0.900000E-01   1.00800           0
     20923 MEMB     178      POPE     H10Y     HAL2     0.900000E-01   1.00800           0
     20924 MEMB     178      POPE     C311     CTL2    -0.180000       12.0110           0
     20925 MEMB     178      POPE     H11X     HAL2     0.900000E-01   1.00800           0
     20926 MEMB     178      POPE     H11Y     HAL2     0.900000E-01   1.00800           0
     20927 MEMB     178      POPE     C312     CTL2    -0.180000       12.0110           0
     20928 MEMB     178      POPE     H12X     HAL2     0.900000E-01   1.00800           0
     20929 MEMB     178      POPE     H12Y     HAL2     0.900000E-01   1.00800           0
     20930 MEMB     178      POPE     C313     CTL2    -0.180000       12.0110           0
     20931 MEMB     178      POPE     H13X     HAL2     0.900000E-01   1.00800           0
     20932 MEMB     178      POPE     H13Y     HAL2     0.900000E-01   1.00800           0
     20933 MEMB     178      POPE     C314     CTL2    -0.180000       12.0110           0
     20934 MEMB     178      POPE     H14X     HAL2     0.900000E-01   1.00800           0
     20935 MEMB     178      POPE     H14Y     HAL2     0.900000E-01   1.00800           0
     20936 MEMB     178      POPE     C315     CTL2    -0.180000       12.0110           0
     20937 MEMB     178      POPE     H15X     HAL2     0.900000E-01   1.00800           0
     20938 MEMB     178      POPE     H15Y     HAL2     0.900000E-01   1.00800           0
     20939 MEMB     178      POPE     C316     CTL3    -0.270000       12.0110           0
     20940 MEMB     178      POPE     H16X     HAL3     0.900000E-01   1.00800           0
     20941 MEMB     178      POPE     H16Y     HAL3     0.900000E-01   1.00800           0
     20942 MEMB     178      POPE     H16Z     HAL3     0.900000E-01   1.00800           0
     20943 MEMB     179      CHL1     C3       CRL1     0.140000       12.0110           0
     20944 MEMB     179      CHL1     H3       HGA1     0.900000E-01   1.00800           0
     20945 MEMB     179      CHL1     O3       OHL     -0.660000       15.9994           0
     20946 MEMB     179      CHL1     H3'      HOL      0.430000       1.00800           0
     20947 MEMB     179      CHL1     C4       CRL2    -0.180000       12.0110           0
     20948 MEMB     179      CHL1     H4A      HGA2     0.900000E-01   1.00800           0
     20949 MEMB     179      CHL1     H4B      HGA2     0.900000E-01   1.00800           0
     20950 MEMB     179      CHL1     C5       CEL1      0.00000       12.0110           0
     20951 MEMB     179      CHL1     C6       CEL1    -0.150000       12.0110           0
     20952 MEMB     179      CHL1     H6       HEL1     0.150000       1.00800           0
     20953 MEMB     179      CHL1     C7       CRL2    -0.180000       12.0110           0
     20954 MEMB     179      CHL1     H7A      HGA2     0.900000E-01   1.00800           0
     20955 MEMB     179      CHL1     H7B      HGA2     0.900000E-01   1.00800           0
     20956 MEMB     179      CHL1     C8       CRL1    -0.900000E-01   12.0110           0
     20957 MEMB     179      CHL1     H8       HGA1     0.900000E-01   1.00800           0
     20958 MEMB     179      CHL1     C14      CRL1    -0.900000E-01   12.0110           0
     20959 MEMB     179      CHL1     H14      HGA1     0.900000E-01   1.00800           0
     20960 MEMB     179      CHL1     C15      CRL2    -0.180000       12.0110           0
     20961 MEMB     179      CHL1     H15A     HGA2     0.900000E-01   1.00800           0
     20962 MEMB     179      CHL1     H15B     HGA2     0.900000E-01   1.00800           0
     20963 MEMB     179      CHL1     C16      CRL2    -0.180000       12.0110           0
     20964 MEMB     179      CHL1     H16A     HGA2     0.900000E-01   1.00800           0
     20965 MEMB     179      CHL1     H16B     HGA2     0.900000E-01   1.00800           0
     20966 MEMB     179      CHL1     C17      CRL1    -0.900000E-01   12.0110           0
     20967 MEMB     179      CHL1     H17      HGA1     0.900000E-01   1.00800           0
     20968 MEMB     179      CHL1     C13      CRL1      0.00000       12.0110           0
     20969 MEMB     179      CHL1     C18      CTL3    -0.270000       12.0110           0
     20970 MEMB     179      CHL1     H18A     HAL3     0.900000E-01   1.00800           0
     20971 MEMB     179      CHL1     H18B     HAL3     0.900000E-01   1.00800           0
     20972 MEMB     179      CHL1     H18C     HAL3     0.900000E-01   1.00800           0
     20973 MEMB     179      CHL1     C12      CRL2    -0.180000       12.0110           0
     20974 MEMB     179      CHL1     H12A     HGA2     0.900000E-01   1.00800           0
     20975 MEMB     179      CHL1     H12B     HGA2     0.900000E-01   1.00800           0
     20976 MEMB     179      CHL1     C11      CRL2    -0.180000       12.0110           0
     20977 MEMB     179      CHL1     H11A     HGA2     0.900000E-01   1.00800           0
     20978 MEMB     179      CHL1     H11B     HGA2     0.900000E-01   1.00800           0
     20979 MEMB     179      CHL1     C9       CRL1    -0.900000E-01   12.0110           0
     20980 MEMB     179      CHL1     H9       HGA1     0.900000E-01   1.00800           0
     20981 MEMB     179      CHL1     C10      CRL1      0.00000       12.0110           0
     20982 MEMB     179      CHL1     C19      CTL3    -0.270000       12.0110           0
     20983 MEMB     179      CHL1     H19A     HAL3     0.900000E-01   1.00800           0
     20984 MEMB     179      CHL1     H19B     HAL3     0.900000E-01   1.00800           0
     20985 MEMB     179      CHL1     H19C     HAL3     0.900000E-01   1.00800           0
     20986 MEMB     179      CHL1     C1       CRL2    -0.180000       12.0110           0
     20987 MEMB     179      CHL1     H1A      HGA2     0.900000E-01   1.00800           0
     20988 MEMB     179      CHL1     H1B      HGA2     0.900000E-01   1.00800           0
     20989 MEMB     179      CHL1     C2       CRL2    -0.180000       12.0110           0
     20990 MEMB     179      CHL1     H2A      HGA2     0.900000E-01   1.00800           0
     20991 MEMB     179      CHL1     H2B      HGA2     0.900000E-01   1.00800           0
     20992 MEMB     179      CHL1     C20      CTL1    -0.900000E-01   12.0110           0
     20993 MEMB     179      CHL1     H20      HAL1     0.900000E-01   1.00800           0
     20994 MEMB     179      CHL1     C21      CTL3    -0.270000       12.0110           0
     20995 MEMB     179      CHL1     H21A     HAL3     0.900000E-01   1.00800           0
     20996 MEMB     179      CHL1     H21B     HAL3     0.900000E-01   1.00800           0
     20997 MEMB     179      CHL1     H21C     HAL3     0.900000E-01   1.00800           0
     20998 MEMB     179      CHL1     C22      CTL2    -0.180000       12.0110           0
     20999 MEMB     179      CHL1     H22A     HAL2     0.900000E-01   1.00800           0
     21000 MEMB     179      CHL1     H22B     HAL2     0.900000E-01   1.00800           0
     21001 MEMB     179      CHL1     C23      CTL2    -0.180000       12.0110           0
     21002 MEMB     179      CHL1     H23A     HAL2     0.900000E-01   1.00800           0
     21003 MEMB     179      CHL1     H23B     HAL2     0.900000E-01   1.00800           0
     21004 MEMB     179      CHL1     C24      CTL2    -0.180000       12.0110           0
     21005 MEMB     179      CHL1     H24A     HAL2     0.900000E-01   1.00800           0
     21006 MEMB     179      CHL1     H24B     HAL2     0.900000E-01   1.00800           0
     21007 MEMB     179      CHL1     C25      CTL1    -0.900000E-01   12.0110           0
     21008 MEMB     179      CHL1     H25      HAL1     0.900000E-01   1.00800           0
     21009 MEMB     179      CHL1     C26      CTL3    -0.270000       12.0110           0
     21010 MEMB     179      CHL1     H26A     HAL3     0.900000E-01   1.00800           0
     21011 MEMB     179      CHL1     H26B     HAL3     0.900000E-01   1.00800           0
     21012 MEMB     179      CHL1     H26C     HAL3     0.900000E-01   1.00800           0
     21013 MEMB     179      CHL1     C27      CTL3    -0.270000       12.0110           0
     21014 MEMB     179      CHL1     H27A     HAL3     0.900000E-01   1.00800           0
     21015 MEMB     179      CHL1     H27B     HAL3     0.900000E-01   1.00800           0
     21016 MEMB     179      CHL1     H27C     HAL3     0.900000E-01   1.00800           0
     21017 MEMB     180      CHL1     C3       CRL1     0.140000       12.0110           0
     21018 MEMB     180      CHL1     H3       HGA1     0.900000E-01   1.00800           0
     21019 MEMB     180      CHL1     O3       OHL     -0.660000       15.9994           0
     21020 MEMB     180      CHL1     H3'      HOL      0.430000       1.00800           0
     21021 MEMB     180      CHL1     C4       CRL2    -0.180000       12.0110           0
     21022 MEMB     180      CHL1     H4A      HGA2     0.900000E-01   1.00800           0
     21023 MEMB     180      CHL1     H4B      HGA2     0.900000E-01   1.00800           0
     21024 MEMB     180      CHL1     C5       CEL1      0.00000       12.0110           0
     21025 MEMB     180      CHL1     C6       CEL1    -0.150000       12.0110           0
     21026 MEMB     180      CHL1     H6       HEL1     0.150000       1.00800           0
     21027 MEMB     180      CHL1     C7       CRL2    -0.180000       12.0110           0
     21028 MEMB     180      CHL1     H7A      HGA2     0.900000E-01   1.00800           0
     21029 MEMB     180      CHL1     H7B      HGA2     0.900000E-01   1.00800           0
     21030 MEMB     180      CHL1     C8       CRL1    -0.900000E-01   12.0110           0
     21031 MEMB     180      CHL1     H8       HGA1     0.900000E-01   1.00800           0
     21032 MEMB     180      CHL1     C14      CRL1    -0.900000E-01   12.0110           0
     21033 MEMB     180      CHL1     H14      HGA1     0.900000E-01   1.00800           0
     21034 MEMB     180      CHL1     C15      CRL2    -0.180000       12.0110           0
     21035 MEMB     180      CHL1     H15A     HGA2     0.900000E-01   1.00800           0
     21036 MEMB     180      CHL1     H15B     HGA2     0.900000E-01   1.00800           0
     21037 MEMB     180      CHL1     C16      CRL2    -0.180000       12.0110           0
     21038 MEMB     180      CHL1     H16A     HGA2     0.900000E-01   1.00800           0
     21039 MEMB     180      CHL1     H16B     HGA2     0.900000E-01   1.00800           0
     21040 MEMB     180      CHL1     C17      CRL1    -0.900000E-01   12.0110           0
     21041 MEMB     180      CHL1     H17      HGA1     0.900000E-01   1.00800           0
     21042 MEMB     180      CHL1     C13      CRL1      0.00000       12.0110           0
     21043 MEMB     180      CHL1     C18      CTL3    -0.270000       12.0110           0
     21044 MEMB     180      CHL1     H18A     HAL3     0.900000E-01   1.00800           0
     21045 MEMB     180      CHL1     H18B     HAL3     0.900000E-01   1.00800           0
     21046 MEMB     180      CHL1     H18C     HAL3     0.900000E-01   1.00800           0
     21047 MEMB     180      CHL1     C12      CRL2    -0.180000       12.0110           0
     21048 MEMB     180      CHL1     H12A     HGA2     0.900000E-01   1.00800           0
     21049 MEMB     180      CHL1     H12B     HGA2     0.900000E-01   1.00800           0
     21050 MEMB     180      CHL1     C11      CRL2    -0.180000       12.0110           0
     21051 MEMB     180      CHL1     H11A     HGA2     0.900000E-01   1.00800           0
     21052 MEMB     180      CHL1     H11B     HGA2     0.900000E-01   1.00800           0
     21053 MEMB     180      CHL1     C9       CRL1    -0.900000E-01   12.0110           0
     21054 MEMB     180      CHL1     H9       HGA1     0.900000E-01   1.00800           0
     21055 MEMB     180      CHL1     C10      CRL1      0.00000       12.0110           0
     21056 MEMB     180      CHL1     C19      CTL3    -0.270000       12.0110           0
     21057 MEMB     180      CHL1     H19A     HAL3     0.900000E-01   1.00800           0
     21058 MEMB     180      CHL1     H19B     HAL3     0.900000E-01   1.00800           0
     21059 MEMB     180      CHL1     H19C     HAL3     0.900000E-01   1.00800           0
     21060 MEMB     180      CHL1     C1       CRL2    -0.180000       12.0110           0
     21061 MEMB     180      CHL1     H1A      HGA2     0.900000E-01   1.00800           0
     21062 MEMB     180      CHL1     H1B      HGA2     0.900000E-01   1.00800           0
     21063 MEMB     180      CHL1     C2       CRL2    -0.180000       12.0110           0
     21064 MEMB     180      CHL1     H2A      HGA2     0.900000E-01   1.00800           0
     21065 MEMB     180      CHL1     H2B      HGA2     0.900000E-01   1.00800           0
     21066 MEMB     180      CHL1     C20      CTL1    -0.900000E-01   12.0110           0
     21067 MEMB     180      CHL1     H20      HAL1     0.900000E-01   1.00800           0
     21068 MEMB     180      CHL1     C21      CTL3    -0.270000       12.0110           0
     21069 MEMB     180      CHL1     H21A     HAL3     0.900000E-01   1.00800           0
     21070 MEMB     180      CHL1     H21B     HAL3     0.900000E-01   1.00800           0
     21071 MEMB     180      CHL1     H21C     HAL3     0.900000E-01   1.00800           0
     21072 MEMB     180      CHL1     C22      CTL2    -0.180000       12.0110           0
     21073 MEMB     180      CHL1     H22A     HAL2     0.900000E-01   1.00800           0
     21074 MEMB     180      CHL1     H22B     HAL2     0.900000E-01   1.00800           0
     21075 MEMB     180      CHL1     C23      CTL2    -0.180000       12.0110           0
     21076 MEMB     180      CHL1     H23A     HAL2     0.900000E-01   1.00800           0
     21077 MEMB     180      CHL1     H23B     HAL2     0.900000E-01   1.00800           0
     21078 MEMB     180      CHL1     C24      CTL2    -0.180000       12.0110           0
     21079 MEMB     180      CHL1     H24A     HAL2     0.900000E-01   1.00800           0
     21080 MEMB     180      CHL1     H24B     HAL2     0.900000E-01   1.00800           0
     21081 MEMB     180      CHL1     C25      CTL1    -0.900000E-01   12.0110           0
     21082 MEMB     180      CHL1     H25      HAL1     0.900000E-01   1.00800           0
     21083 MEMB     180      CHL1     C26      CTL3    -0.270000       12.0110           0
     21084 MEMB     180      CHL1     H26A     HAL3     0.900000E-01   1.00800           0
     21085 MEMB     180      CHL1     H26B     HAL3     0.900000E-01   1.00800           0
     21086 MEMB     180      CHL1     H26C     HAL3     0.900000E-01   1.00800           0
     21087 MEMB     180      CHL1     C27      CTL3    -0.270000       12.0110           0
     21088 MEMB     180      CHL1     H27A     HAL3     0.900000E-01   1.00800           0
     21089 MEMB     180      CHL1     H27B     HAL3     0.900000E-01   1.00800           0
     21090 MEMB     180      CHL1     H27C     HAL3     0.900000E-01   1.00800           0
     21091 MEMB     181      CHL1     C3       CRL1     0.140000       12.0110           0
     21092 MEMB     181      CHL1     H3       HGA1     0.900000E-01   1.00800           0
     21093 MEMB     181      CHL1     O3       OHL     -0.660000       15.9994           0
     21094 MEMB     181      CHL1     H3'      HOL      0.430000       1.00800           0
     21095 MEMB     181      CHL1     C4       CRL2    -0.180000       12.0110           0
     21096 MEMB     181      CHL1     H4A      HGA2     0.900000E-01   1.00800           0
     21097 MEMB     181      CHL1     H4B      HGA2     0.900000E-01   1.00800           0
     21098 MEMB     181      CHL1     C5       CEL1      0.00000       12.0110           0
     21099 MEMB     181      CHL1     C6       CEL1    -0.150000       12.0110           0
     21100 MEMB     181      CHL1     H6       HEL1     0.150000       1.00800           0
     21101 MEMB     181      CHL1     C7       CRL2    -0.180000       12.0110           0
     21102 MEMB     181      CHL1     H7A      HGA2     0.900000E-01   1.00800           0
     21103 MEMB     181      CHL1     H7B      HGA2     0.900000E-01   1.00800           0
     21104 MEMB     181      CHL1     C8       CRL1    -0.900000E-01   12.0110           0
     21105 MEMB     181      CHL1     H8       HGA1     0.900000E-01   1.00800           0
     21106 MEMB     181      CHL1     C14      CRL1    -0.900000E-01   12.0110           0
     21107 MEMB     181      CHL1     H14      HGA1     0.900000E-01   1.00800           0
     21108 MEMB     181      CHL1     C15      CRL2    -0.180000       12.0110           0
     21109 MEMB     181      CHL1     H15A     HGA2     0.900000E-01   1.00800           0
     21110 MEMB     181      CHL1     H15B     HGA2     0.900000E-01   1.00800           0
     21111 MEMB     181      CHL1     C16      CRL2    -0.180000       12.0110           0
     21112 MEMB     181      CHL1     H16A     HGA2     0.900000E-01   1.00800           0
     21113 MEMB     181      CHL1     H16B     HGA2     0.900000E-01   1.00800           0
     21114 MEMB     181      CHL1     C17      CRL1    -0.900000E-01   12.0110           0
     21115 MEMB     181      CHL1     H17      HGA1     0.900000E-01   1.00800           0
     21116 MEMB     181      CHL1     C13      CRL1      0.00000       12.0110           0
     21117 MEMB     181      CHL1     C18      CTL3    -0.270000       12.0110           0
     21118 MEMB     181      CHL1     H18A     HAL3     0.900000E-01   1.00800           0
     21119 MEMB     181      CHL1     H18B     HAL3     0.900000E-01   1.00800           0
     21120 MEMB     181      CHL1     H18C     HAL3     0.900000E-01   1.00800           0
     21121 MEMB     181      CHL1     C12      CRL2    -0.180000       12.0110           0
     21122 MEMB     181      CHL1     H12A     HGA2     0.900000E-01   1.00800           0
     21123 MEMB     181      CHL1     H12B     HGA2     0.900000E-01   1.00800           0
     21124 MEMB     181      CHL1     C11      CRL2    -0.180000       12.0110           0
     21125 MEMB     181      CHL1     H11A     HGA2     0.900000E-01   1.00800           0
     21126 MEMB     181      CHL1     H11B     HGA2     0.900000E-01   1.00800           0
     21127 MEMB     181      CHL1     C9       CRL1    -0.900000E-01   12.0110           0
     21128 MEMB     181      CHL1     H9       HGA1     0.900000E-01   1.00800           0
     21129 MEMB     181      CHL1     C10      CRL1      0.00000       12.0110           0
     21130 MEMB     181      CHL1     C19      CTL3    -0.270000       12.0110           0
     21131 MEMB     181      CHL1     H19A     HAL3     0.900000E-01   1.00800           0
     21132 MEMB     181      CHL1     H19B     HAL3     0.900000E-01   1.00800           0
     21133 MEMB     181      CHL1     H19C     HAL3     0.900000E-01   1.00800           0
     21134 MEMB     181      CHL1     C1       CRL2    -0.180000       12.0110           0
     21135 MEMB     181      CHL1     H1A      HGA2     0.900000E-01   1.00800           0
     21136 MEMB     181      CHL1     H1B      HGA2     0.900000E-01   1.00800           0
     21137 MEMB     181      CHL1     C2       CRL2    -0.180000       12.0110           0
     21138 MEMB     181      CHL1     H2A      HGA2     0.900000E-01   1.00800           0
     21139 MEMB     181      CHL1     H2B      HGA2     0.900000E-01   1.00800           0
     21140 MEMB     181      CHL1     C20      CTL1    -0.900000E-01   12.0110           0
     21141 MEMB     181      CHL1     H20      HAL1     0.900000E-01   1.00800           0
     21142 MEMB     181      CHL1     C21      CTL3    -0.270000       12.0110           0
     21143 MEMB     181      CHL1     H21A     HAL3     0.900000E-01   1.00800           0
     21144 MEMB     181      CHL1     H21B     HAL3     0.900000E-01   1.00800           0
     21145 MEMB     181      CHL1     H21C     HAL3     0.900000E-01   1.00800           0
     21146 MEMB     181      CHL1     C22      CTL2    -0.180000       12.0110           0
     21147 MEMB     181      CHL1     H22A     HAL2     0.900000E-01   1.00800           0
     21148 MEMB     181      CHL1     H22B     HAL2     0.900000E-01   1.00800           0
     21149 MEMB     181      CHL1     C23      CTL2    -0.180000       12.0110           0
     21150 MEMB     181      CHL1     H23A     HAL2     0.900000E-01   1.00800           0
     21151 MEMB     181      CHL1     H23B     HAL2     0.900000E-01   1.00800           0
     21152 MEMB     181      CHL1     C24      CTL2    -0.180000       12.0110           0
     21153 MEMB     181      CHL1     H24A     HAL2     0.900000E-01   1.00800           0
     21154 MEMB     181      CHL1     H24B     HAL2     0.900000E-01   1.00800           0
     21155 MEMB     181      CHL1     C25      CTL1    -0.900000E-01   12.0110           0
     21156 MEMB     181      CHL1     H25      HAL1     0.900000E-01   1.00800           0
     21157 MEMB     181      CHL1     C26      CTL3    -0.270000       12.0110           0
     21158 MEMB     181      CHL1     H26A     HAL3     0.900000E-01   1.00800           0
     21159 MEMB     181      CHL1     H26B     HAL3     0.900000E-01   1.00800           0
     21160 MEMB     181      CHL1     H26C     HAL3     0.900000E-01   1.00800           0
     21161 MEMB     181      CHL1     C27      CTL3    -0.270000       12.0110           0
     21162 MEMB     181      CHL1     H27A     HAL3     0.900000E-01   1.00800           0
     21163 MEMB     181      CHL1     H27B     HAL3     0.900000E-01   1.00800           0
     21164 MEMB     181      CHL1     H27C     HAL3     0.900000E-01   1.00800           0
     21165 MEMB     182      CHL1     C3       CRL1     0.140000       12.0110           0
     21166 MEMB     182      CHL1     H3       HGA1     0.900000E-01   1.00800           0
     21167 MEMB     182      CHL1     O3       OHL     -0.660000       15.9994           0
     21168 MEMB     182      CHL1     H3'      HOL      0.430000       1.00800           0
     21169 MEMB     182      CHL1     C4       CRL2    -0.180000       12.0110           0
     21170 MEMB     182      CHL1     H4A      HGA2     0.900000E-01   1.00800           0
     21171 MEMB     182      CHL1     H4B      HGA2     0.900000E-01   1.00800           0
     21172 MEMB     182      CHL1     C5       CEL1      0.00000       12.0110           0
     21173 MEMB     182      CHL1     C6       CEL1    -0.150000       12.0110           0
     21174 MEMB     182      CHL1     H6       HEL1     0.150000       1.00800           0
     21175 MEMB     182      CHL1     C7       CRL2    -0.180000       12.0110           0
     21176 MEMB     182      CHL1     H7A      HGA2     0.900000E-01   1.00800           0
     21177 MEMB     182      CHL1     H7B      HGA2     0.900000E-01   1.00800           0
     21178 MEMB     182      CHL1     C8       CRL1    -0.900000E-01   12.0110           0
     21179 MEMB     182      CHL1     H8       HGA1     0.900000E-01   1.00800           0
     21180 MEMB     182      CHL1     C14      CRL1    -0.900000E-01   12.0110           0
     21181 MEMB     182      CHL1     H14      HGA1     0.900000E-01   1.00800           0
     21182 MEMB     182      CHL1     C15      CRL2    -0.180000       12.0110           0
     21183 MEMB     182      CHL1     H15A     HGA2     0.900000E-01   1.00800           0
     21184 MEMB     182      CHL1     H15B     HGA2     0.900000E-01   1.00800           0
     21185 MEMB     182      CHL1     C16      CRL2    -0.180000       12.0110           0
     21186 MEMB     182      CHL1     H16A     HGA2     0.900000E-01   1.00800           0
     21187 MEMB     182      CHL1     H16B     HGA2     0.900000E-01   1.00800           0
     21188 MEMB     182      CHL1     C17      CRL1    -0.900000E-01   12.0110           0
     21189 MEMB     182      CHL1     H17      HGA1     0.900000E-01   1.00800           0
     21190 MEMB     182      CHL1     C13      CRL1      0.00000       12.0110           0
     21191 MEMB     182      CHL1     C18      CTL3    -0.270000       12.0110           0
     21192 MEMB     182      CHL1     H18A     HAL3     0.900000E-01   1.00800           0
     21193 MEMB     182      CHL1     H18B     HAL3     0.900000E-01   1.00800           0
     21194 MEMB     182      CHL1     H18C     HAL3     0.900000E-01   1.00800           0
     21195 MEMB     182      CHL1     C12      CRL2    -0.180000       12.0110           0
     21196 MEMB     182      CHL1     H12A     HGA2     0.900000E-01   1.00800           0
     21197 MEMB     182      CHL1     H12B     HGA2     0.900000E-01   1.00800           0
     21198 MEMB     182      CHL1     C11      CRL2    -0.180000       12.0110           0
     21199 MEMB     182      CHL1     H11A     HGA2     0.900000E-01   1.00800           0
     21200 MEMB     182      CHL1     H11B     HGA2     0.900000E-01   1.00800           0
     21201 MEMB     182      CHL1     C9       CRL1    -0.900000E-01   12.0110           0
     21202 MEMB     182      CHL1     H9       HGA1     0.900000E-01   1.00800           0
     21203 MEMB     182      CHL1     C10      CRL1      0.00000       12.0110           0
     21204 MEMB     182      CHL1     C19      CTL3    -0.270000       12.0110           0
     21205 MEMB     182      CHL1     H19A     HAL3     0.900000E-01   1.00800           0
     21206 MEMB     182      CHL1     H19B     HAL3     0.900000E-01   1.00800           0
     21207 MEMB     182      CHL1     H19C     HAL3     0.900000E-01   1.00800           0
     21208 MEMB     182      CHL1     C1       CRL2    -0.180000       12.0110           0
     21209 MEMB     182      CHL1     H1A      HGA2     0.900000E-01   1.00800           0
     21210 MEMB     182      CHL1     H1B      HGA2     0.900000E-01   1.00800           0
     21211 MEMB     182      CHL1     C2       CRL2    -0.180000       12.0110           0
     21212 MEMB     182      CHL1     H2A      HGA2     0.900000E-01   1.00800           0
     21213 MEMB     182      CHL1     H2B      HGA2     0.900000E-01   1.00800           0
     21214 MEMB     182      CHL1     C20      CTL1    -0.900000E-01   12.0110           0
     21215 MEMB     182      CHL1     H20      HAL1     0.900000E-01   1.00800           0
     21216 MEMB     182      CHL1     C21      CTL3    -0.270000       12.0110           0
     21217 MEMB     182      CHL1     H21A     HAL3     0.900000E-01   1.00800           0
     21218 MEMB     182      CHL1     H21B     HAL3     0.900000E-01   1.00800           0
     21219 MEMB     182      CHL1     H21C     HAL3     0.900000E-01   1.00800           0
     21220 MEMB     182      CHL1     C22      CTL2    -0.180000       12.0110           0
     21221 MEMB     182      CHL1     H22A     HAL2     0.900000E-01   1.00800           0
     21222 MEMB     182      CHL1     H22B     HAL2     0.900000E-01   1.00800           0
     21223 MEMB     182      CHL1     C23      CTL2    -0.180000       12.0110           0
     21224 MEMB     182      CHL1     H23A     HAL2     0.900000E-01   1.00800           0
     21225 MEMB     182      CHL1     H23B     HAL2     0.900000E-01   1.00800           0
     21226 MEMB     182      CHL1     C24      CTL2    -0.180000       12.0110           0
     21227 MEMB     182      CHL1     H24A     HAL2     0.900000E-01   1.00800           0
     21228 MEMB     182      CHL1     H24B     HAL2     0.900000E-01   1.00800           0
     21229 MEMB     182      CHL1     C25      CTL1    -0.900000E-01   12.0110           0
     21230 MEMB     182      CHL1     H25      HAL1     0.900000E-01   1.00800           0
     21231 MEMB     182      CHL1     C26      CTL3    -0.270000       12.0110           0
     21232 MEMB     182      CHL1     H26A     HAL3     0.900000E-01   1.00800           0
     21233 MEMB     182      CHL1     H26B     HAL3     0.900000E-01   1.00800           0
     21234 MEMB     182      CHL1     H26C     HAL3     0.900000E-01   1.00800           0
     21235 MEMB     182      CHL1     C27      CTL3    -0.270000       12.0110           0
     21236 MEMB     182      CHL1     H27A     HAL3     0.900000E-01   1.00800           0
     21237 MEMB     182      CHL1     H27B     HAL3     0.900000E-01   1.00800           0
     21238 MEMB     182      CHL1     H27C     HAL3     0.900000E-01   1.00800           0
     21239 MEMB     183      CHL1     C3       CRL1     0.140000       12.0110           0
     21240 MEMB     183      CHL1     H3       HGA1     0.900000E-01   1.00800           0
     21241 MEMB     183      CHL1     O3       OHL     -0.660000       15.9994           0
     21242 MEMB     183      CHL1     H3'      HOL      0.430000       1.00800           0
     21243 MEMB     183      CHL1     C4       CRL2    -0.180000       12.0110           0
     21244 MEMB     183      CHL1     H4A      HGA2     0.900000E-01   1.00800           0
     21245 MEMB     183      CHL1     H4B      HGA2     0.900000E-01   1.00800           0
     21246 MEMB     183      CHL1     C5       CEL1      0.00000       12.0110           0
     21247 MEMB     183      CHL1     C6       CEL1    -0.150000       12.0110           0
     21248 MEMB     183      CHL1     H6       HEL1     0.150000       1.00800           0
     21249 MEMB     183      CHL1     C7       CRL2    -0.180000       12.0110           0
     21250 MEMB     183      CHL1     H7A      HGA2     0.900000E-01   1.00800           0
     21251 MEMB     183      CHL1     H7B      HGA2     0.900000E-01   1.00800           0
     21252 MEMB     183      CHL1     C8       CRL1    -0.900000E-01   12.0110           0
     21253 MEMB     183      CHL1     H8       HGA1     0.900000E-01   1.00800           0
     21254 MEMB     183      CHL1     C14      CRL1    -0.900000E-01   12.0110           0
     21255 MEMB     183      CHL1     H14      HGA1     0.900000E-01   1.00800           0
     21256 MEMB     183      CHL1     C15      CRL2    -0.180000       12.0110           0
     21257 MEMB     183      CHL1     H15A     HGA2     0.900000E-01   1.00800           0
     21258 MEMB     183      CHL1     H15B     HGA2     0.900000E-01   1.00800           0
     21259 MEMB     183      CHL1     C16      CRL2    -0.180000       12.0110           0
     21260 MEMB     183      CHL1     H16A     HGA2     0.900000E-01   1.00800           0
     21261 MEMB     183      CHL1     H16B     HGA2     0.900000E-01   1.00800           0
     21262 MEMB     183      CHL1     C17      CRL1    -0.900000E-01   12.0110           0
     21263 MEMB     183      CHL1     H17      HGA1     0.900000E-01   1.00800           0
     21264 MEMB     183      CHL1     C13      CRL1      0.00000       12.0110           0
     21265 MEMB     183      CHL1     C18      CTL3    -0.270000       12.0110           0
     21266 MEMB     183      CHL1     H18A     HAL3     0.900000E-01   1.00800           0
     21267 MEMB     183      CHL1     H18B     HAL3     0.900000E-01   1.00800           0
     21268 MEMB     183      CHL1     H18C     HAL3     0.900000E-01   1.00800           0
     21269 MEMB     183      CHL1     C12      CRL2    -0.180000       12.0110           0
     21270 MEMB     183      CHL1     H12A     HGA2     0.900000E-01   1.00800           0
     21271 MEMB     183      CHL1     H12B     HGA2     0.900000E-01   1.00800           0
     21272 MEMB     183      CHL1     C11      CRL2    -0.180000       12.0110           0
     21273 MEMB     183      CHL1     H11A     HGA2     0.900000E-01   1.00800           0
     21274 MEMB     183      CHL1     H11B     HGA2     0.900000E-01   1.00800           0
     21275 MEMB     183      CHL1     C9       CRL1    -0.900000E-01   12.0110           0
     21276 MEMB     183      CHL1     H9       HGA1     0.900000E-01   1.00800           0
     21277 MEMB     183      CHL1     C10      CRL1      0.00000       12.0110           0
     21278 MEMB     183      CHL1     C19      CTL3    -0.270000       12.0110           0
     21279 MEMB     183      CHL1     H19A     HAL3     0.900000E-01   1.00800           0
     21280 MEMB     183      CHL1     H19B     HAL3     0.900000E-01   1.00800           0
     21281 MEMB     183      CHL1     H19C     HAL3     0.900000E-01   1.00800           0
     21282 MEMB     183      CHL1     C1       CRL2    -0.180000       12.0110           0
     21283 MEMB     183      CHL1     H1A      HGA2     0.900000E-01   1.00800           0
     21284 MEMB     183      CHL1     H1B      HGA2     0.900000E-01   1.00800           0
     21285 MEMB     183      CHL1     C2       CRL2    -0.180000       12.0110           0
     21286 MEMB     183      CHL1     H2A      HGA2     0.900000E-01   1.00800           0
     21287 MEMB     183      CHL1     H2B      HGA2     0.900000E-01   1.00800           0
     21288 MEMB     183      CHL1     C20      CTL1    -0.900000E-01   12.0110           0
     21289 MEMB     183      CHL1     H20      HAL1     0.900000E-01   1.00800           0
     21290 MEMB     183      CHL1     C21      CTL3    -0.270000       12.0110           0
     21291 MEMB     183      CHL1     H21A     HAL3     0.900000E-01   1.00800           0
     21292 MEMB     183      CHL1     H21B     HAL3     0.900000E-01   1.00800           0
     21293 MEMB     183      CHL1     H21C     HAL3     0.900000E-01   1.00800           0
     21294 MEMB     183      CHL1     C22      CTL2    -0.180000       12.0110           0
     21295 MEMB     183      CHL1     H22A     HAL2     0.900000E-01   1.00800           0
     21296 MEMB     183      CHL1     H22B     HAL2     0.900000E-01   1.00800           0
     21297 MEMB     183      CHL1     C23      CTL2    -0.180000       12.0110           0
     21298 MEMB     183      CHL1     H23A     HAL2     0.900000E-01   1.00800           0
     21299 MEMB     183      CHL1     H23B     HAL2     0.900000E-01   1.00800           0
     21300 MEMB     183      CHL1     C24      CTL2    -0.180000       12.0110           0
     21301 MEMB     183      CHL1     H24A     HAL2     0.900000E-01   1.00800           0
     21302 MEMB     183      CHL1     H24B     HAL2     0.900000E-01   1.00800           0
     21303 MEMB     183      CHL1     C25      CTL1    -0.900000E-01   12.0110           0
     21304 MEMB     183      CHL1     H25      HAL1     0.900000E-01   1.00800           0
     21305 MEMB     183      CHL1     C26      CTL3    -0.270000       12.0110           0
     21306 MEMB     183      CHL1     H26A     HAL3     0.900000E-01   1.00800           0
     21307 MEMB     183      CHL1     H26B     HAL3     0.900000E-01   1.00800           0
     21308 MEMB     183      CHL1     H26C     HAL3     0.900000E-01   1.00800           0
     21309 MEMB     183      CHL1     C27      CTL3    -0.270000       12.0110           0
     21310 MEMB     183      CHL1     H27A     HAL3     0.900000E-01   1.00800           0
     21311 MEMB     183      CHL1     H27B     HAL3     0.900000E-01   1.00800           0
     21312 MEMB     183      CHL1     H27C     HAL3     0.900000E-01   1.00800           0
     21313 MEMB     184      CHL1     C3       CRL1     0.140000       12.0110           0
     21314 MEMB     184      CHL1     H3       HGA1     0.900000E-01   1.00800           0
     21315 MEMB     184      CHL1     O3       OHL     -0.660000       15.9994           0
     21316 MEMB     184      CHL1     H3'      HOL      0.430000       1.00800           0
     21317 MEMB     184      CHL1     C4       CRL2    -0.180000       12.0110           0
     21318 MEMB     184      CHL1     H4A      HGA2     0.900000E-01   1.00800           0
     21319 MEMB     184      CHL1     H4B      HGA2     0.900000E-01   1.00800           0
     21320 MEMB     184      CHL1     C5       CEL1      0.00000       12.0110           0
     21321 MEMB     184      CHL1     C6       CEL1    -0.150000       12.0110           0
     21322 MEMB     184      CHL1     H6       HEL1     0.150000       1.00800           0
     21323 MEMB     184      CHL1     C7       CRL2    -0.180000       12.0110           0
     21324 MEMB     184      CHL1     H7A      HGA2     0.900000E-01   1.00800           0
     21325 MEMB     184      CHL1     H7B      HGA2     0.900000E-01   1.00800           0
     21326 MEMB     184      CHL1     C8       CRL1    -0.900000E-01   12.0110           0
     21327 MEMB     184      CHL1     H8       HGA1     0.900000E-01   1.00800           0
     21328 MEMB     184      CHL1     C14      CRL1    -0.900000E-01   12.0110           0
     21329 MEMB     184      CHL1     H14      HGA1     0.900000E-01   1.00800           0
     21330 MEMB     184      CHL1     C15      CRL2    -0.180000       12.0110           0
     21331 MEMB     184      CHL1     H15A     HGA2     0.900000E-01   1.00800           0
     21332 MEMB     184      CHL1     H15B     HGA2     0.900000E-01   1.00800           0
     21333 MEMB     184      CHL1     C16      CRL2    -0.180000       12.0110           0
     21334 MEMB     184      CHL1     H16A     HGA2     0.900000E-01   1.00800           0
     21335 MEMB     184      CHL1     H16B     HGA2     0.900000E-01   1.00800           0
     21336 MEMB     184      CHL1     C17      CRL1    -0.900000E-01   12.0110           0
     21337 MEMB     184      CHL1     H17      HGA1     0.900000E-01   1.00800           0
     21338 MEMB     184      CHL1     C13      CRL1      0.00000       12.0110           0
     21339 MEMB     184      CHL1     C18      CTL3    -0.270000       12.0110           0
     21340 MEMB     184      CHL1     H18A     HAL3     0.900000E-01   1.00800           0
     21341 MEMB     184      CHL1     H18B     HAL3     0.900000E-01   1.00800           0
     21342 MEMB     184      CHL1     H18C     HAL3     0.900000E-01   1.00800           0
     21343 MEMB     184      CHL1     C12      CRL2    -0.180000       12.0110           0
     21344 MEMB     184      CHL1     H12A     HGA2     0.900000E-01   1.00800           0
     21345 MEMB     184      CHL1     H12B     HGA2     0.900000E-01   1.00800           0
     21346 MEMB     184      CHL1     C11      CRL2    -0.180000       12.0110           0
     21347 MEMB     184      CHL1     H11A     HGA2     0.900000E-01   1.00800           0
     21348 MEMB     184      CHL1     H11B     HGA2     0.900000E-01   1.00800           0
     21349 MEMB     184      CHL1     C9       CRL1    -0.900000E-01   12.0110           0
     21350 MEMB     184      CHL1     H9       HGA1     0.900000E-01   1.00800           0
     21351 MEMB     184      CHL1     C10      CRL1      0.00000       12.0110           0
     21352 MEMB     184      CHL1     C19      CTL3    -0.270000       12.0110           0
     21353 MEMB     184      CHL1     H19A     HAL3     0.900000E-01   1.00800           0
     21354 MEMB     184      CHL1     H19B     HAL3     0.900000E-01   1.00800           0
     21355 MEMB     184      CHL1     H19C     HAL3     0.900000E-01   1.00800           0
     21356 MEMB     184      CHL1     C1       CRL2    -0.180000       12.0110           0
     21357 MEMB     184      CHL1     H1A      HGA2     0.900000E-01   1.00800           0
     21358 MEMB     184      CHL1     H1B      HGA2     0.900000E-01   1.00800           0
     21359 MEMB     184      CHL1     C2       CRL2    -0.180000       12.0110           0
     21360 MEMB     184      CHL1     H2A      HGA2     0.900000E-01   1.00800           0
     21361 MEMB     184      CHL1     H2B      HGA2     0.900000E-01   1.00800           0
     21362 MEMB     184      CHL1     C20      CTL1    -0.900000E-01   12.0110           0
     21363 MEMB     184      CHL1     H20      HAL1     0.900000E-01   1.00800           0
     21364 MEMB     184      CHL1     C21      CTL3    -0.270000       12.0110           0
     21365 MEMB     184      CHL1     H21A     HAL3     0.900000E-01   1.00800           0
     21366 MEMB     184      CHL1     H21B     HAL3     0.900000E-01   1.00800           0
     21367 MEMB     184      CHL1     H21C     HAL3     0.900000E-01   1.00800           0
     21368 MEMB     184      CHL1     C22      CTL2    -0.180000       12.0110           0
     21369 MEMB     184      CHL1     H22A     HAL2     0.900000E-01   1.00800           0
     21370 MEMB     184      CHL1     H22B     HAL2     0.900000E-01   1.00800           0
     21371 MEMB     184      CHL1     C23      CTL2    -0.180000       12.0110           0
     21372 MEMB     184      CHL1     H23A     HAL2     0.900000E-01   1.00800           0
     21373 MEMB     184      CHL1     H23B     HAL2     0.900000E-01   1.00800           0
     21374 MEMB     184      CHL1     C24      CTL2    -0.180000       12.0110           0
     21375 MEMB     184      CHL1     H24A     HAL2     0.900000E-01   1.00800           0
     21376 MEMB     184      CHL1     H24B     HAL2     0.900000E-01   1.00800           0
     21377 MEMB     184      CHL1     C25      CTL1    -0.900000E-01   12.0110           0
     21378 MEMB     184      CHL1     H25      HAL1     0.900000E-01   1.00800           0
     21379 MEMB     184      CHL1     C26      CTL3    -0.270000       12.0110           0
     21380 MEMB     184      CHL1     H26A     HAL3     0.900000E-01   1.00800           0
     21381 MEMB     184      CHL1     H26B     HAL3     0.900000E-01   1.00800           0
     21382 MEMB     184      CHL1     H26C     HAL3     0.900000E-01   1.00800           0
     21383 MEMB     184      CHL1     C27      CTL3    -0.270000       12.0110           0
     21384 MEMB     184      CHL1     H27A     HAL3     0.900000E-01   1.00800           0
     21385 MEMB     184      CHL1     H27B     HAL3     0.900000E-01   1.00800           0
     21386 MEMB     184      CHL1     H27C     HAL3     0.900000E-01   1.00800           0
     21387 MEMB     185      CHL1     C3       CRL1     0.140000       12.0110           0
     21388 MEMB     185      CHL1     H3       HGA1     0.900000E-01   1.00800           0
     21389 MEMB     185      CHL1     O3       OHL     -0.660000       15.9994           0
     21390 MEMB     185      CHL1     H3'      HOL      0.430000       1.00800           0
     21391 MEMB     185      CHL1     C4       CRL2    -0.180000       12.0110           0
     21392 MEMB     185      CHL1     H4A      HGA2     0.900000E-01   1.00800           0
     21393 MEMB     185      CHL1     H4B      HGA2     0.900000E-01   1.00800           0
     21394 MEMB     185      CHL1     C5       CEL1      0.00000       12.0110           0
     21395 MEMB     185      CHL1     C6       CEL1    -0.150000       12.0110           0
     21396 MEMB     185      CHL1     H6       HEL1     0.150000       1.00800           0
     21397 MEMB     185      CHL1     C7       CRL2    -0.180000       12.0110           0
     21398 MEMB     185      CHL1     H7A      HGA2     0.900000E-01   1.00800           0
     21399 MEMB     185      CHL1     H7B      HGA2     0.900000E-01   1.00800           0
     21400 MEMB     185      CHL1     C8       CRL1    -0.900000E-01   12.0110           0
     21401 MEMB     185      CHL1     H8       HGA1     0.900000E-01   1.00800           0
     21402 MEMB     185      CHL1     C14      CRL1    -0.900000E-01   12.0110           0
     21403 MEMB     185      CHL1     H14      HGA1     0.900000E-01   1.00800           0
     21404 MEMB     185      CHL1     C15      CRL2    -0.180000       12.0110           0
     21405 MEMB     185      CHL1     H15A     HGA2     0.900000E-01   1.00800           0
     21406 MEMB     185      CHL1     H15B     HGA2     0.900000E-01   1.00800           0
     21407 MEMB     185      CHL1     C16      CRL2    -0.180000       12.0110           0
     21408 MEMB     185      CHL1     H16A     HGA2     0.900000E-01   1.00800           0
     21409 MEMB     185      CHL1     H16B     HGA2     0.900000E-01   1.00800           0
     21410 MEMB     185      CHL1     C17      CRL1    -0.900000E-01   12.0110           0
     21411 MEMB     185      CHL1     H17      HGA1     0.900000E-01   1.00800           0
     21412 MEMB     185      CHL1     C13      CRL1      0.00000       12.0110           0
     21413 MEMB     185      CHL1     C18      CTL3    -0.270000       12.0110           0
     21414 MEMB     185      CHL1     H18A     HAL3     0.900000E-01   1.00800           0
     21415 MEMB     185      CHL1     H18B     HAL3     0.900000E-01   1.00800           0
     21416 MEMB     185      CHL1     H18C     HAL3     0.900000E-01   1.00800           0
     21417 MEMB     185      CHL1     C12      CRL2    -0.180000       12.0110           0
     21418 MEMB     185      CHL1     H12A     HGA2     0.900000E-01   1.00800           0
     21419 MEMB     185      CHL1     H12B     HGA2     0.900000E-01   1.00800           0
     21420 MEMB     185      CHL1     C11      CRL2    -0.180000       12.0110           0
     21421 MEMB     185      CHL1     H11A     HGA2     0.900000E-01   1.00800           0
     21422 MEMB     185      CHL1     H11B     HGA2     0.900000E-01   1.00800           0
     21423 MEMB     185      CHL1     C9       CRL1    -0.900000E-01   12.0110           0
     21424 MEMB     185      CHL1     H9       HGA1     0.900000E-01   1.00800           0
     21425 MEMB     185      CHL1     C10      CRL1      0.00000       12.0110           0
     21426 MEMB     185      CHL1     C19      CTL3    -0.270000       12.0110           0
     21427 MEMB     185      CHL1     H19A     HAL3     0.900000E-01   1.00800           0
     21428 MEMB     185      CHL1     H19B     HAL3     0.900000E-01   1.00800           0
     21429 MEMB     185      CHL1     H19C     HAL3     0.900000E-01   1.00800           0
     21430 MEMB     185      CHL1     C1       CRL2    -0.180000       12.0110           0
     21431 MEMB     185      CHL1     H1A      HGA2     0.900000E-01   1.00800           0
     21432 MEMB     185      CHL1     H1B      HGA2     0.900000E-01   1.00800           0
     21433 MEMB     185      CHL1     C2       CRL2    -0.180000       12.0110           0
     21434 MEMB     185      CHL1     H2A      HGA2     0.900000E-01   1.00800           0
     21435 MEMB     185      CHL1     H2B      HGA2     0.900000E-01   1.00800           0
     21436 MEMB     185      CHL1     C20      CTL1    -0.900000E-01   12.0110           0
     21437 MEMB     185      CHL1     H20      HAL1     0.900000E-01   1.00800           0
     21438 MEMB     185      CHL1     C21      CTL3    -0.270000       12.0110           0
     21439 MEMB     185      CHL1     H21A     HAL3     0.900000E-01   1.00800           0
     21440 MEMB     185      CHL1     H21B     HAL3     0.900000E-01   1.00800           0
     21441 MEMB     185      CHL1     H21C     HAL3     0.900000E-01   1.00800           0
     21442 MEMB     185      CHL1     C22      CTL2    -0.180000       12.0110           0
     21443 MEMB     185      CHL1     H22A     HAL2     0.900000E-01   1.00800           0
     21444 MEMB     185      CHL1     H22B     HAL2     0.900000E-01   1.00800           0
     21445 MEMB     185      CHL1     C23      CTL2    -0.180000       12.0110           0
     21446 MEMB     185      CHL1     H23A     HAL2     0.900000E-01   1.00800           0
     21447 MEMB     185      CHL1     H23B     HAL2     0.900000E-01   1.00800           0
     21448 MEMB     185      CHL1     C24      CTL2    -0.180000       12.0110           0
     21449 MEMB     185      CHL1     H24A     HAL2     0.900000E-01   1.00800           0
     21450 MEMB     185      CHL1     H24B     HAL2     0.900000E-01   1.00800           0
     21451 MEMB     185      CHL1     C25      CTL1    -0.900000E-01   12.0110           0
     21452 MEMB     185      CHL1     H25      HAL1     0.900000E-01   1.00800           0
     21453 MEMB     185      CHL1     C26      CTL3    -0.270000       12.0110           0
     21454 MEMB     185      CHL1     H26A     HAL3     0.900000E-01   1.00800           0
     21455 MEMB     185      CHL1     H26B     HAL3     0.900000E-01   1.00800           0
     21456 MEMB     185      CHL1     H26C     HAL3     0.900000E-01   1.00800           0
     21457 MEMB     185      CHL1     C27      CTL3    -0.270000       12.0110           0
     21458 MEMB     185      CHL1     H27A     HAL3     0.900000E-01   1.00800           0
     21459 MEMB     185      CHL1     H27B     HAL3     0.900000E-01   1.00800           0
     21460 MEMB     185      CHL1     H27C     HAL3     0.900000E-01   1.00800           0
     21461 MEMB     186      CHL1     C3       CRL1     0.140000       12.0110           0
     21462 MEMB     186      CHL1     H3       HGA1     0.900000E-01   1.00800           0
     21463 MEMB     186      CHL1     O3       OHL     -0.660000       15.9994           0
     21464 MEMB     186      CHL1     H3'      HOL      0.430000       1.00800           0
     21465 MEMB     186      CHL1     C4       CRL2    -0.180000       12.0110           0
     21466 MEMB     186      CHL1     H4A      HGA2     0.900000E-01   1.00800           0
     21467 MEMB     186      CHL1     H4B      HGA2     0.900000E-01   1.00800           0
     21468 MEMB     186      CHL1     C5       CEL1      0.00000       12.0110           0
     21469 MEMB     186      CHL1     C6       CEL1    -0.150000       12.0110           0
     21470 MEMB     186      CHL1     H6       HEL1     0.150000       1.00800           0
     21471 MEMB     186      CHL1     C7       CRL2    -0.180000       12.0110           0
     21472 MEMB     186      CHL1     H7A      HGA2     0.900000E-01   1.00800           0
     21473 MEMB     186      CHL1     H7B      HGA2     0.900000E-01   1.00800           0
     21474 MEMB     186      CHL1     C8       CRL1    -0.900000E-01   12.0110           0
     21475 MEMB     186      CHL1     H8       HGA1     0.900000E-01   1.00800           0
     21476 MEMB     186      CHL1     C14      CRL1    -0.900000E-01   12.0110           0
     21477 MEMB     186      CHL1     H14      HGA1     0.900000E-01   1.00800           0
     21478 MEMB     186      CHL1     C15      CRL2    -0.180000       12.0110           0
     21479 MEMB     186      CHL1     H15A     HGA2     0.900000E-01   1.00800           0
     21480 MEMB     186      CHL1     H15B     HGA2     0.900000E-01   1.00800           0
     21481 MEMB     186      CHL1     C16      CRL2    -0.180000       12.0110           0
     21482 MEMB     186      CHL1     H16A     HGA2     0.900000E-01   1.00800           0
     21483 MEMB     186      CHL1     H16B     HGA2     0.900000E-01   1.00800           0
     21484 MEMB     186      CHL1     C17      CRL1    -0.900000E-01   12.0110           0
     21485 MEMB     186      CHL1     H17      HGA1     0.900000E-01   1.00800           0
     21486 MEMB     186      CHL1     C13      CRL1      0.00000       12.0110           0
     21487 MEMB     186      CHL1     C18      CTL3    -0.270000       12.0110           0
     21488 MEMB     186      CHL1     H18A     HAL3     0.900000E-01   1.00800           0
     21489 MEMB     186      CHL1     H18B     HAL3     0.900000E-01   1.00800           0
     21490 MEMB     186      CHL1     H18C     HAL3     0.900000E-01   1.00800           0
     21491 MEMB     186      CHL1     C12      CRL2    -0.180000       12.0110           0
     21492 MEMB     186      CHL1     H12A     HGA2     0.900000E-01   1.00800           0
     21493 MEMB     186      CHL1     H12B     HGA2     0.900000E-01   1.00800           0
     21494 MEMB     186      CHL1     C11      CRL2    -0.180000       12.0110           0
     21495 MEMB     186      CHL1     H11A     HGA2     0.900000E-01   1.00800           0
     21496 MEMB     186      CHL1     H11B     HGA2     0.900000E-01   1.00800           0
     21497 MEMB     186      CHL1     C9       CRL1    -0.900000E-01   12.0110           0
     21498 MEMB     186      CHL1     H9       HGA1     0.900000E-01   1.00800           0
     21499 MEMB     186      CHL1     C10      CRL1      0.00000       12.0110           0
     21500 MEMB     186      CHL1     C19      CTL3    -0.270000       12.0110           0
     21501 MEMB     186      CHL1     H19A     HAL3     0.900000E-01   1.00800           0
     21502 MEMB     186      CHL1     H19B     HAL3     0.900000E-01   1.00800           0
     21503 MEMB     186      CHL1     H19C     HAL3     0.900000E-01   1.00800           0
     21504 MEMB     186      CHL1     C1       CRL2    -0.180000       12.0110           0
     21505 MEMB     186      CHL1     H1A      HGA2     0.900000E-01   1.00800           0
     21506 MEMB     186      CHL1     H1B      HGA2     0.900000E-01   1.00800           0
     21507 MEMB     186      CHL1     C2       CRL2    -0.180000       12.0110           0
     21508 MEMB     186      CHL1     H2A      HGA2     0.900000E-01   1.00800           0
     21509 MEMB     186      CHL1     H2B      HGA2     0.900000E-01   1.00800           0
     21510 MEMB     186      CHL1     C20      CTL1    -0.900000E-01   12.0110           0
     21511 MEMB     186      CHL1     H20      HAL1     0.900000E-01   1.00800           0
     21512 MEMB     186      CHL1     C21      CTL3    -0.270000       12.0110           0
     21513 MEMB     186      CHL1     H21A     HAL3     0.900000E-01   1.00800           0
     21514 MEMB     186      CHL1     H21B     HAL3     0.900000E-01   1.00800           0
     21515 MEMB     186      CHL1     H21C     HAL3     0.900000E-01   1.00800           0
     21516 MEMB     186      CHL1     C22      CTL2    -0.180000       12.0110           0
     21517 MEMB     186      CHL1     H22A     HAL2     0.900000E-01   1.00800           0
     21518 MEMB     186      CHL1     H22B     HAL2     0.900000E-01   1.00800           0
     21519 MEMB     186      CHL1     C23      CTL2    -0.180000       12.0110           0
     21520 MEMB     186      CHL1     H23A     HAL2     0.900000E-01   1.00800           0
     21521 MEMB     186      CHL1     H23B     HAL2     0.900000E-01   1.00800           0
     21522 MEMB     186      CHL1     C24      CTL2    -0.180000       12.0110           0
     21523 MEMB     186      CHL1     H24A     HAL2     0.900000E-01   1.00800           0
     21524 MEMB     186      CHL1     H24B     HAL2     0.900000E-01   1.00800           0
     21525 MEMB     186      CHL1     C25      CTL1    -0.900000E-01   12.0110           0
     21526 MEMB     186      CHL1     H25      HAL1     0.900000E-01   1.00800           0
     21527 MEMB     186      CHL1     C26      CTL3    -0.270000       12.0110           0
     21528 MEMB     186      CHL1     H26A     HAL3     0.900000E-01   1.00800           0
     21529 MEMB     186      CHL1     H26B     HAL3     0.900000E-01   1.00800           0
     21530 MEMB     186      CHL1     H26C     HAL3     0.900000E-01   1.00800           0
     21531 MEMB     186      CHL1     C27      CTL3    -0.270000       12.0110           0
     21532 MEMB     186      CHL1     H27A     HAL3     0.900000E-01   1.00800           0
     21533 MEMB     186      CHL1     H27B     HAL3     0.900000E-01   1.00800           0
     21534 MEMB     186      CHL1     H27C     HAL3     0.900000E-01   1.00800           0
     21535 MEMB     187      CHL1     C3       CRL1     0.140000       12.0110           0
     21536 MEMB     187      CHL1     H3       HGA1     0.900000E-01   1.00800           0
     21537 MEMB     187      CHL1     O3       OHL     -0.660000       15.9994           0
     21538 MEMB     187      CHL1     H3'      HOL      0.430000       1.00800           0
     21539 MEMB     187      CHL1     C4       CRL2    -0.180000       12.0110           0
     21540 MEMB     187      CHL1     H4A      HGA2     0.900000E-01   1.00800           0
     21541 MEMB     187      CHL1     H4B      HGA2     0.900000E-01   1.00800           0
     21542 MEMB     187      CHL1     C5       CEL1      0.00000       12.0110           0
     21543 MEMB     187      CHL1     C6       CEL1    -0.150000       12.0110           0
     21544 MEMB     187      CHL1     H6       HEL1     0.150000       1.00800           0
     21545 MEMB     187      CHL1     C7       CRL2    -0.180000       12.0110           0
     21546 MEMB     187      CHL1     H7A      HGA2     0.900000E-01   1.00800           0
     21547 MEMB     187      CHL1     H7B      HGA2     0.900000E-01   1.00800           0
     21548 MEMB     187      CHL1     C8       CRL1    -0.900000E-01   12.0110           0
     21549 MEMB     187      CHL1     H8       HGA1     0.900000E-01   1.00800           0
     21550 MEMB     187      CHL1     C14      CRL1    -0.900000E-01   12.0110           0
     21551 MEMB     187      CHL1     H14      HGA1     0.900000E-01   1.00800           0
     21552 MEMB     187      CHL1     C15      CRL2    -0.180000       12.0110           0
     21553 MEMB     187      CHL1     H15A     HGA2     0.900000E-01   1.00800           0
     21554 MEMB     187      CHL1     H15B     HGA2     0.900000E-01   1.00800           0
     21555 MEMB     187      CHL1     C16      CRL2    -0.180000       12.0110           0
     21556 MEMB     187      CHL1     H16A     HGA2     0.900000E-01   1.00800           0
     21557 MEMB     187      CHL1     H16B     HGA2     0.900000E-01   1.00800           0
     21558 MEMB     187      CHL1     C17      CRL1    -0.900000E-01   12.0110           0
     21559 MEMB     187      CHL1     H17      HGA1     0.900000E-01   1.00800           0
     21560 MEMB     187      CHL1     C13      CRL1      0.00000       12.0110           0
     21561 MEMB     187      CHL1     C18      CTL3    -0.270000       12.0110           0
     21562 MEMB     187      CHL1     H18A     HAL3     0.900000E-01   1.00800           0
     21563 MEMB     187      CHL1     H18B     HAL3     0.900000E-01   1.00800           0
     21564 MEMB     187      CHL1     H18C     HAL3     0.900000E-01   1.00800           0
     21565 MEMB     187      CHL1     C12      CRL2    -0.180000       12.0110           0
     21566 MEMB     187      CHL1     H12A     HGA2     0.900000E-01   1.00800           0
     21567 MEMB     187      CHL1     H12B     HGA2     0.900000E-01   1.00800           0
     21568 MEMB     187      CHL1     C11      CRL2    -0.180000       12.0110           0
     21569 MEMB     187      CHL1     H11A     HGA2     0.900000E-01   1.00800           0
     21570 MEMB     187      CHL1     H11B     HGA2     0.900000E-01   1.00800           0
     21571 MEMB     187      CHL1     C9       CRL1    -0.900000E-01   12.0110           0
     21572 MEMB     187      CHL1     H9       HGA1     0.900000E-01   1.00800           0
     21573 MEMB     187      CHL1     C10      CRL1      0.00000       12.0110           0
     21574 MEMB     187      CHL1     C19      CTL3    -0.270000       12.0110           0
     21575 MEMB     187      CHL1     H19A     HAL3     0.900000E-01   1.00800           0
     21576 MEMB     187      CHL1     H19B     HAL3     0.900000E-01   1.00800           0
     21577 MEMB     187      CHL1     H19C     HAL3     0.900000E-01   1.00800           0
     21578 MEMB     187      CHL1     C1       CRL2    -0.180000       12.0110           0
     21579 MEMB     187      CHL1     H1A      HGA2     0.900000E-01   1.00800           0
     21580 MEMB     187      CHL1     H1B      HGA2     0.900000E-01   1.00800           0
     21581 MEMB     187      CHL1     C2       CRL2    -0.180000       12.0110           0
     21582 MEMB     187      CHL1     H2A      HGA2     0.900000E-01   1.00800           0
     21583 MEMB     187      CHL1     H2B      HGA2     0.900000E-01   1.00800           0
     21584 MEMB     187      CHL1     C20      CTL1    -0.900000E-01   12.0110           0
     21585 MEMB     187      CHL1     H20      HAL1     0.900000E-01   1.00800           0
     21586 MEMB     187      CHL1     C21      CTL3    -0.270000       12.0110           0
     21587 MEMB     187      CHL1     H21A     HAL3     0.900000E-01   1.00800           0
     21588 MEMB     187      CHL1     H21B     HAL3     0.900000E-01   1.00800           0
     21589 MEMB     187      CHL1     H21C     HAL3     0.900000E-01   1.00800           0
     21590 MEMB     187      CHL1     C22      CTL2    -0.180000       12.0110           0
     21591 MEMB     187      CHL1     H22A     HAL2     0.900000E-01   1.00800           0
     21592 MEMB     187      CHL1     H22B     HAL2     0.900000E-01   1.00800           0
     21593 MEMB     187      CHL1     C23      CTL2    -0.180000       12.0110           0
     21594 MEMB     187      CHL1     H23A     HAL2     0.900000E-01   1.00800           0
     21595 MEMB     187      CHL1     H23B     HAL2     0.900000E-01   1.00800           0
     21596 MEMB     187      CHL1     C24      CTL2    -0.180000       12.0110           0
     21597 MEMB     187      CHL1     H24A     HAL2     0.900000E-01   1.00800           0
     21598 MEMB     187      CHL1     H24B     HAL2     0.900000E-01   1.00800           0
     21599 MEMB     187      CHL1     C25      CTL1    -0.900000E-01   12.0110           0
     21600 MEMB     187      CHL1     H25      HAL1     0.900000E-01   1.00800           0
     21601 MEMB     187      CHL1     C26      CTL3    -0.270000       12.0110           0
     21602 MEMB     187      CHL1     H26A     HAL3     0.900000E-01   1.00800           0
     21603 MEMB     187      CHL1     H26B     HAL3     0.900000E-01   1.00800           0
     21604 MEMB     187      CHL1     H26C     HAL3     0.900000E-01   1.00800           0
     21605 MEMB     187      CHL1     C27      CTL3    -0.270000       12.0110           0
     21606 MEMB     187      CHL1     H27A     HAL3     0.900000E-01   1.00800           0
     21607 MEMB     187      CHL1     H27B     HAL3     0.900000E-01   1.00800           0
     21608 MEMB     187      CHL1     H27C     HAL3     0.900000E-01   1.00800           0
     21609 MEMB     188      CHL1     C3       CRL1     0.140000       12.0110           0
     21610 MEMB     188      CHL1     H3       HGA1     0.900000E-01   1.00800           0
     21611 MEMB     188      CHL1     O3       OHL     -0.660000       15.9994           0
     21612 MEMB     188      CHL1     H3'      HOL      0.430000       1.00800           0
     21613 MEMB     188      CHL1     C4       CRL2    -0.180000       12.0110           0
     21614 MEMB     188      CHL1     H4A      HGA2     0.900000E-01   1.00800           0
     21615 MEMB     188      CHL1     H4B      HGA2     0.900000E-01   1.00800           0
     21616 MEMB     188      CHL1     C5       CEL1      0.00000       12.0110           0
     21617 MEMB     188      CHL1     C6       CEL1    -0.150000       12.0110           0
     21618 MEMB     188      CHL1     H6       HEL1     0.150000       1.00800           0
     21619 MEMB     188      CHL1     C7       CRL2    -0.180000       12.0110           0
     21620 MEMB     188      CHL1     H7A      HGA2     0.900000E-01   1.00800           0
     21621 MEMB     188      CHL1     H7B      HGA2     0.900000E-01   1.00800           0
     21622 MEMB     188      CHL1     C8       CRL1    -0.900000E-01   12.0110           0
     21623 MEMB     188      CHL1     H8       HGA1     0.900000E-01   1.00800           0
     21624 MEMB     188      CHL1     C14      CRL1    -0.900000E-01   12.0110           0
     21625 MEMB     188      CHL1     H14      HGA1     0.900000E-01   1.00800           0
     21626 MEMB     188      CHL1     C15      CRL2    -0.180000       12.0110           0
     21627 MEMB     188      CHL1     H15A     HGA2     0.900000E-01   1.00800           0
     21628 MEMB     188      CHL1     H15B     HGA2     0.900000E-01   1.00800           0
     21629 MEMB     188      CHL1     C16      CRL2    -0.180000       12.0110           0
     21630 MEMB     188      CHL1     H16A     HGA2     0.900000E-01   1.00800           0
     21631 MEMB     188      CHL1     H16B     HGA2     0.900000E-01   1.00800           0
     21632 MEMB     188      CHL1     C17      CRL1    -0.900000E-01   12.0110           0
     21633 MEMB     188      CHL1     H17      HGA1     0.900000E-01   1.00800           0
     21634 MEMB     188      CHL1     C13      CRL1      0.00000       12.0110           0
     21635 MEMB     188      CHL1     C18      CTL3    -0.270000       12.0110           0
     21636 MEMB     188      CHL1     H18A     HAL3     0.900000E-01   1.00800           0
     21637 MEMB     188      CHL1     H18B     HAL3     0.900000E-01   1.00800           0
     21638 MEMB     188      CHL1     H18C     HAL3     0.900000E-01   1.00800           0
     21639 MEMB     188      CHL1     C12      CRL2    -0.180000       12.0110           0
     21640 MEMB     188      CHL1     H12A     HGA2     0.900000E-01   1.00800           0
     21641 MEMB     188      CHL1     H12B     HGA2     0.900000E-01   1.00800           0
     21642 MEMB     188      CHL1     C11      CRL2    -0.180000       12.0110           0
     21643 MEMB     188      CHL1     H11A     HGA2     0.900000E-01   1.00800           0
     21644 MEMB     188      CHL1     H11B     HGA2     0.900000E-01   1.00800           0
     21645 MEMB     188      CHL1     C9       CRL1    -0.900000E-01   12.0110           0
     21646 MEMB     188      CHL1     H9       HGA1     0.900000E-01   1.00800           0
     21647 MEMB     188      CHL1     C10      CRL1      0.00000       12.0110           0
     21648 MEMB     188      CHL1     C19      CTL3    -0.270000       12.0110           0
     21649 MEMB     188      CHL1     H19A     HAL3     0.900000E-01   1.00800           0
     21650 MEMB     188      CHL1     H19B     HAL3     0.900000E-01   1.00800           0
     21651 MEMB     188      CHL1     H19C     HAL3     0.900000E-01   1.00800           0
     21652 MEMB     188      CHL1     C1       CRL2    -0.180000       12.0110           0
     21653 MEMB     188      CHL1     H1A      HGA2     0.900000E-01   1.00800           0
     21654 MEMB     188      CHL1     H1B      HGA2     0.900000E-01   1.00800           0
     21655 MEMB     188      CHL1     C2       CRL2    -0.180000       12.0110           0
     21656 MEMB     188      CHL1     H2A      HGA2     0.900000E-01   1.00800           0
     21657 MEMB     188      CHL1     H2B      HGA2     0.900000E-01   1.00800           0
     21658 MEMB     188      CHL1     C20      CTL1    -0.900000E-01   12.0110           0
     21659 MEMB     188      CHL1     H20      HAL1     0.900000E-01   1.00800           0
     21660 MEMB     188      CHL1     C21      CTL3    -0.270000       12.0110           0
     21661 MEMB     188      CHL1     H21A     HAL3     0.900000E-01   1.00800           0
     21662 MEMB     188      CHL1     H21B     HAL3     0.900000E-01   1.00800           0
     21663 MEMB     188      CHL1     H21C     HAL3     0.900000E-01   1.00800           0
     21664 MEMB     188      CHL1     C22      CTL2    -0.180000       12.0110           0
     21665 MEMB     188      CHL1     H22A     HAL2     0.900000E-01   1.00800           0
     21666 MEMB     188      CHL1     H22B     HAL2     0.900000E-01   1.00800           0
     21667 MEMB     188      CHL1     C23      CTL2    -0.180000       12.0110           0
     21668 MEMB     188      CHL1     H23A     HAL2     0.900000E-01   1.00800           0
     21669 MEMB     188      CHL1     H23B     HAL2     0.900000E-01   1.00800           0
     21670 MEMB     188      CHL1     C24      CTL2    -0.180000       12.0110           0
     21671 MEMB     188      CHL1     H24A     HAL2     0.900000E-01   1.00800           0
     21672 MEMB     188      CHL1     H24B     HAL2     0.900000E-01   1.00800           0
     21673 MEMB     188      CHL1     C25      CTL1    -0.900000E-01   12.0110           0
     21674 MEMB     188      CHL1     H25      HAL1     0.900000E-01   1.00800           0
     21675 MEMB     188      CHL1     C26      CTL3    -0.270000       12.0110           0
     21676 MEMB     188      CHL1     H26A     HAL3     0.900000E-01   1.00800           0
     21677 MEMB     188      CHL1     H26B     HAL3     0.900000E-01   1.00800           0
     21678 MEMB     188      CHL1     H26C     HAL3     0.900000E-01   1.00800           0
     21679 MEMB     188      CHL1     C27      CTL3    -0.270000       12.0110           0
     21680 MEMB     188      CHL1     H27A     HAL3     0.900000E-01   1.00800           0
     21681 MEMB     188      CHL1     H27B     HAL3     0.900000E-01   1.00800           0
     21682 MEMB     188      CHL1     H27C     HAL3     0.900000E-01   1.00800           0
     21683 MEMB     189      CHL1     C3       CRL1     0.140000       12.0110           0
     21684 MEMB     189      CHL1     H3       HGA1     0.900000E-01   1.00800           0
     21685 MEMB     189      CHL1     O3       OHL     -0.660000       15.9994           0
     21686 MEMB     189      CHL1     H3'      HOL      0.430000       1.00800           0
     21687 MEMB     189      CHL1     C4       CRL2    -0.180000       12.0110           0
     21688 MEMB     189      CHL1     H4A      HGA2     0.900000E-01   1.00800           0
     21689 MEMB     189      CHL1     H4B      HGA2     0.900000E-01   1.00800           0
     21690 MEMB     189      CHL1     C5       CEL1      0.00000       12.0110           0
     21691 MEMB     189      CHL1     C6       CEL1    -0.150000       12.0110           0
     21692 MEMB     189      CHL1     H6       HEL1     0.150000       1.00800           0
     21693 MEMB     189      CHL1     C7       CRL2    -0.180000       12.0110           0
     21694 MEMB     189      CHL1     H7A      HGA2     0.900000E-01   1.00800           0
     21695 MEMB     189      CHL1     H7B      HGA2     0.900000E-01   1.00800           0
     21696 MEMB     189      CHL1     C8       CRL1    -0.900000E-01   12.0110           0
     21697 MEMB     189      CHL1     H8       HGA1     0.900000E-01   1.00800           0
     21698 MEMB     189      CHL1     C14      CRL1    -0.900000E-01   12.0110           0
     21699 MEMB     189      CHL1     H14      HGA1     0.900000E-01   1.00800           0
     21700 MEMB     189      CHL1     C15      CRL2    -0.180000       12.0110           0
     21701 MEMB     189      CHL1     H15A     HGA2     0.900000E-01   1.00800           0
     21702 MEMB     189      CHL1     H15B     HGA2     0.900000E-01   1.00800           0
     21703 MEMB     189      CHL1     C16      CRL2    -0.180000       12.0110           0
     21704 MEMB     189      CHL1     H16A     HGA2     0.900000E-01   1.00800           0
     21705 MEMB     189      CHL1     H16B     HGA2     0.900000E-01   1.00800           0
     21706 MEMB     189      CHL1     C17      CRL1    -0.900000E-01   12.0110           0
     21707 MEMB     189      CHL1     H17      HGA1     0.900000E-01   1.00800           0
     21708 MEMB     189      CHL1     C13      CRL1      0.00000       12.0110           0
     21709 MEMB     189      CHL1     C18      CTL3    -0.270000       12.0110           0
     21710 MEMB     189      CHL1     H18A     HAL3     0.900000E-01   1.00800           0
     21711 MEMB     189      CHL1     H18B     HAL3     0.900000E-01   1.00800           0
     21712 MEMB     189      CHL1     H18C     HAL3     0.900000E-01   1.00800           0
     21713 MEMB     189      CHL1     C12      CRL2    -0.180000       12.0110           0
     21714 MEMB     189      CHL1     H12A     HGA2     0.900000E-01   1.00800           0
     21715 MEMB     189      CHL1     H12B     HGA2     0.900000E-01   1.00800           0
     21716 MEMB     189      CHL1     C11      CRL2    -0.180000       12.0110           0
     21717 MEMB     189      CHL1     H11A     HGA2     0.900000E-01   1.00800           0
     21718 MEMB     189      CHL1     H11B     HGA2     0.900000E-01   1.00800           0
     21719 MEMB     189      CHL1     C9       CRL1    -0.900000E-01   12.0110           0
     21720 MEMB     189      CHL1     H9       HGA1     0.900000E-01   1.00800           0
     21721 MEMB     189      CHL1     C10      CRL1      0.00000       12.0110           0
     21722 MEMB     189      CHL1     C19      CTL3    -0.270000       12.0110           0
     21723 MEMB     189      CHL1     H19A     HAL3     0.900000E-01   1.00800           0
     21724 MEMB     189      CHL1     H19B     HAL3     0.900000E-01   1.00800           0
     21725 MEMB     189      CHL1     H19C     HAL3     0.900000E-01   1.00800           0
     21726 MEMB     189      CHL1     C1       CRL2    -0.180000       12.0110           0
     21727 MEMB     189      CHL1     H1A      HGA2     0.900000E-01   1.00800           0
     21728 MEMB     189      CHL1     H1B      HGA2     0.900000E-01   1.00800           0
     21729 MEMB     189      CHL1     C2       CRL2    -0.180000       12.0110           0
     21730 MEMB     189      CHL1     H2A      HGA2     0.900000E-01   1.00800           0
     21731 MEMB     189      CHL1     H2B      HGA2     0.900000E-01   1.00800           0
     21732 MEMB     189      CHL1     C20      CTL1    -0.900000E-01   12.0110           0
     21733 MEMB     189      CHL1     H20      HAL1     0.900000E-01   1.00800           0
     21734 MEMB     189      CHL1     C21      CTL3    -0.270000       12.0110           0
     21735 MEMB     189      CHL1     H21A     HAL3     0.900000E-01   1.00800           0
     21736 MEMB     189      CHL1     H21B     HAL3     0.900000E-01   1.00800           0
     21737 MEMB     189      CHL1     H21C     HAL3     0.900000E-01   1.00800           0
     21738 MEMB     189      CHL1     C22      CTL2    -0.180000       12.0110           0
     21739 MEMB     189      CHL1     H22A     HAL2     0.900000E-01   1.00800           0
     21740 MEMB     189      CHL1     H22B     HAL2     0.900000E-01   1.00800           0
     21741 MEMB     189      CHL1     C23      CTL2    -0.180000       12.0110           0
     21742 MEMB     189      CHL1     H23A     HAL2     0.900000E-01   1.00800           0
     21743 MEMB     189      CHL1     H23B     HAL2     0.900000E-01   1.00800           0
     21744 MEMB     189      CHL1     C24      CTL2    -0.180000       12.0110           0
     21745 MEMB     189      CHL1     H24A     HAL2     0.900000E-01   1.00800           0
     21746 MEMB     189      CHL1     H24B     HAL2     0.900000E-01   1.00800           0
     21747 MEMB     189      CHL1     C25      CTL1    -0.900000E-01   12.0110           0
     21748 MEMB     189      CHL1     H25      HAL1     0.900000E-01   1.00800           0
     21749 MEMB     189      CHL1     C26      CTL3    -0.270000       12.0110           0
     21750 MEMB     189      CHL1     H26A     HAL3     0.900000E-01   1.00800           0
     21751 MEMB     189      CHL1     H26B     HAL3     0.900000E-01   1.00800           0
     21752 MEMB     189      CHL1     H26C     HAL3     0.900000E-01   1.00800           0
     21753 MEMB     189      CHL1     C27      CTL3    -0.270000       12.0110           0
     21754 MEMB     189      CHL1     H27A     HAL3     0.900000E-01   1.00800           0
     21755 MEMB     189      CHL1     H27B     HAL3     0.900000E-01   1.00800           0
     21756 MEMB     189      CHL1     H27C     HAL3     0.900000E-01   1.00800           0
     21757 MEMB     190      CHL1     C3       CRL1     0.140000       12.0110           0
     21758 MEMB     190      CHL1     H3       HGA1     0.900000E-01   1.00800           0
     21759 MEMB     190      CHL1     O3       OHL     -0.660000       15.9994           0
     21760 MEMB     190      CHL1     H3'      HOL      0.430000       1.00800           0
     21761 MEMB     190      CHL1     C4       CRL2    -0.180000       12.0110           0
     21762 MEMB     190      CHL1     H4A      HGA2     0.900000E-01   1.00800           0
     21763 MEMB     190      CHL1     H4B      HGA2     0.900000E-01   1.00800           0
     21764 MEMB     190      CHL1     C5       CEL1      0.00000       12.0110           0
     21765 MEMB     190      CHL1     C6       CEL1    -0.150000       12.0110           0
     21766 MEMB     190      CHL1     H6       HEL1     0.150000       1.00800           0
     21767 MEMB     190      CHL1     C7       CRL2    -0.180000       12.0110           0
     21768 MEMB     190      CHL1     H7A      HGA2     0.900000E-01   1.00800           0
     21769 MEMB     190      CHL1     H7B      HGA2     0.900000E-01   1.00800           0
     21770 MEMB     190      CHL1     C8       CRL1    -0.900000E-01   12.0110           0
     21771 MEMB     190      CHL1     H8       HGA1     0.900000E-01   1.00800           0
     21772 MEMB     190      CHL1     C14      CRL1    -0.900000E-01   12.0110           0
     21773 MEMB     190      CHL1     H14      HGA1     0.900000E-01   1.00800           0
     21774 MEMB     190      CHL1     C15      CRL2    -0.180000       12.0110           0
     21775 MEMB     190      CHL1     H15A     HGA2     0.900000E-01   1.00800           0
     21776 MEMB     190      CHL1     H15B     HGA2     0.900000E-01   1.00800           0
     21777 MEMB     190      CHL1     C16      CRL2    -0.180000       12.0110           0
     21778 MEMB     190      CHL1     H16A     HGA2     0.900000E-01   1.00800           0
     21779 MEMB     190      CHL1     H16B     HGA2     0.900000E-01   1.00800           0
     21780 MEMB     190      CHL1     C17      CRL1    -0.900000E-01   12.0110           0
     21781 MEMB     190      CHL1     H17      HGA1     0.900000E-01   1.00800           0
     21782 MEMB     190      CHL1     C13      CRL1      0.00000       12.0110           0
     21783 MEMB     190      CHL1     C18      CTL3    -0.270000       12.0110           0
     21784 MEMB     190      CHL1     H18A     HAL3     0.900000E-01   1.00800           0
     21785 MEMB     190      CHL1     H18B     HAL3     0.900000E-01   1.00800           0
     21786 MEMB     190      CHL1     H18C     HAL3     0.900000E-01   1.00800           0
     21787 MEMB     190      CHL1     C12      CRL2    -0.180000       12.0110           0
     21788 MEMB     190      CHL1     H12A     HGA2     0.900000E-01   1.00800           0
     21789 MEMB     190      CHL1     H12B     HGA2     0.900000E-01   1.00800           0
     21790 MEMB     190      CHL1     C11      CRL2    -0.180000       12.0110           0
     21791 MEMB     190      CHL1     H11A     HGA2     0.900000E-01   1.00800           0
     21792 MEMB     190      CHL1     H11B     HGA2     0.900000E-01   1.00800           0
     21793 MEMB     190      CHL1     C9       CRL1    -0.900000E-01   12.0110           0
     21794 MEMB     190      CHL1     H9       HGA1     0.900000E-01   1.00800           0
     21795 MEMB     190      CHL1     C10      CRL1      0.00000       12.0110           0
     21796 MEMB     190      CHL1     C19      CTL3    -0.270000       12.0110           0
     21797 MEMB     190      CHL1     H19A     HAL3     0.900000E-01   1.00800           0
     21798 MEMB     190      CHL1     H19B     HAL3     0.900000E-01   1.00800           0
     21799 MEMB     190      CHL1     H19C     HAL3     0.900000E-01   1.00800           0
     21800 MEMB     190      CHL1     C1       CRL2    -0.180000       12.0110           0
     21801 MEMB     190      CHL1     H1A      HGA2     0.900000E-01   1.00800           0
     21802 MEMB     190      CHL1     H1B      HGA2     0.900000E-01   1.00800           0
     21803 MEMB     190      CHL1     C2       CRL2    -0.180000       12.0110           0
     21804 MEMB     190      CHL1     H2A      HGA2     0.900000E-01   1.00800           0
     21805 MEMB     190      CHL1     H2B      HGA2     0.900000E-01   1.00800           0
     21806 MEMB     190      CHL1     C20      CTL1    -0.900000E-01   12.0110           0
     21807 MEMB     190      CHL1     H20      HAL1     0.900000E-01   1.00800           0
     21808 MEMB     190      CHL1     C21      CTL3    -0.270000       12.0110           0
     21809 MEMB     190      CHL1     H21A     HAL3     0.900000E-01   1.00800           0
     21810 MEMB     190      CHL1     H21B     HAL3     0.900000E-01   1.00800           0
     21811 MEMB     190      CHL1     H21C     HAL3     0.900000E-01   1.00800           0
     21812 MEMB     190      CHL1     C22      CTL2    -0.180000       12.0110           0
     21813 MEMB     190      CHL1     H22A     HAL2     0.900000E-01   1.00800           0
     21814 MEMB     190      CHL1     H22B     HAL2     0.900000E-01   1.00800           0
     21815 MEMB     190      CHL1     C23      CTL2    -0.180000       12.0110           0
     21816 MEMB     190      CHL1     H23A     HAL2     0.900000E-01   1.00800           0
     21817 MEMB     190      CHL1     H23B     HAL2     0.900000E-01   1.00800           0
     21818 MEMB     190      CHL1     C24      CTL2    -0.180000       12.0110           0
     21819 MEMB     190      CHL1     H24A     HAL2     0.900000E-01   1.00800           0
     21820 MEMB     190      CHL1     H24B     HAL2     0.900000E-01   1.00800           0
     21821 MEMB     190      CHL1     C25      CTL1    -0.900000E-01   12.0110           0
     21822 MEMB     190      CHL1     H25      HAL1     0.900000E-01   1.00800           0
     21823 MEMB     190      CHL1     C26      CTL3    -0.270000       12.0110           0
     21824 MEMB     190      CHL1     H26A     HAL3     0.900000E-01   1.00800           0
     21825 MEMB     190      CHL1     H26B     HAL3     0.900000E-01   1.00800           0
     21826 MEMB     190      CHL1     H26C     HAL3     0.900000E-01   1.00800           0
     21827 MEMB     190      CHL1     C27      CTL3    -0.270000       12.0110           0
     21828 MEMB     190      CHL1     H27A     HAL3     0.900000E-01   1.00800           0
     21829 MEMB     190      CHL1     H27B     HAL3     0.900000E-01   1.00800           0
     21830 MEMB     190      CHL1     H27C     HAL3     0.900000E-01   1.00800           0
     21831 MEMB     191      CHL1     C3       CRL1     0.140000       12.0110           0
     21832 MEMB     191      CHL1     H3       HGA1     0.900000E-01   1.00800           0
     21833 MEMB     191      CHL1     O3       OHL     -0.660000       15.9994           0
     21834 MEMB     191      CHL1     H3'      HOL      0.430000       1.00800           0
     21835 MEMB     191      CHL1     C4       CRL2    -0.180000       12.0110           0
     21836 MEMB     191      CHL1     H4A      HGA2     0.900000E-01   1.00800           0
     21837 MEMB     191      CHL1     H4B      HGA2     0.900000E-01   1.00800           0
     21838 MEMB     191      CHL1     C5       CEL1      0.00000       12.0110           0
     21839 MEMB     191      CHL1     C6       CEL1    -0.150000       12.0110           0
     21840 MEMB     191      CHL1     H6       HEL1     0.150000       1.00800           0
     21841 MEMB     191      CHL1     C7       CRL2    -0.180000       12.0110           0
     21842 MEMB     191      CHL1     H7A      HGA2     0.900000E-01   1.00800           0
     21843 MEMB     191      CHL1     H7B      HGA2     0.900000E-01   1.00800           0
     21844 MEMB     191      CHL1     C8       CRL1    -0.900000E-01   12.0110           0
     21845 MEMB     191      CHL1     H8       HGA1     0.900000E-01   1.00800           0
     21846 MEMB     191      CHL1     C14      CRL1    -0.900000E-01   12.0110           0
     21847 MEMB     191      CHL1     H14      HGA1     0.900000E-01   1.00800           0
     21848 MEMB     191      CHL1     C15      CRL2    -0.180000       12.0110           0
     21849 MEMB     191      CHL1     H15A     HGA2     0.900000E-01   1.00800           0
     21850 MEMB     191      CHL1     H15B     HGA2     0.900000E-01   1.00800           0
     21851 MEMB     191      CHL1     C16      CRL2    -0.180000       12.0110           0
     21852 MEMB     191      CHL1     H16A     HGA2     0.900000E-01   1.00800           0
     21853 MEMB     191      CHL1     H16B     HGA2     0.900000E-01   1.00800           0
     21854 MEMB     191      CHL1     C17      CRL1    -0.900000E-01   12.0110           0
     21855 MEMB     191      CHL1     H17      HGA1     0.900000E-01   1.00800           0
     21856 MEMB     191      CHL1     C13      CRL1      0.00000       12.0110           0
     21857 MEMB     191      CHL1     C18      CTL3    -0.270000       12.0110           0
     21858 MEMB     191      CHL1     H18A     HAL3     0.900000E-01   1.00800           0
     21859 MEMB     191      CHL1     H18B     HAL3     0.900000E-01   1.00800           0
     21860 MEMB     191      CHL1     H18C     HAL3     0.900000E-01   1.00800           0
     21861 MEMB     191      CHL1     C12      CRL2    -0.180000       12.0110           0
     21862 MEMB     191      CHL1     H12A     HGA2     0.900000E-01   1.00800           0
     21863 MEMB     191      CHL1     H12B     HGA2     0.900000E-01   1.00800           0
     21864 MEMB     191      CHL1     C11      CRL2    -0.180000       12.0110           0
     21865 MEMB     191      CHL1     H11A     HGA2     0.900000E-01   1.00800           0
     21866 MEMB     191      CHL1     H11B     HGA2     0.900000E-01   1.00800           0
     21867 MEMB     191      CHL1     C9       CRL1    -0.900000E-01   12.0110           0
     21868 MEMB     191      CHL1     H9       HGA1     0.900000E-01   1.00800           0
     21869 MEMB     191      CHL1     C10      CRL1      0.00000       12.0110           0
     21870 MEMB     191      CHL1     C19      CTL3    -0.270000       12.0110           0
     21871 MEMB     191      CHL1     H19A     HAL3     0.900000E-01   1.00800           0
     21872 MEMB     191      CHL1     H19B     HAL3     0.900000E-01   1.00800           0
     21873 MEMB     191      CHL1     H19C     HAL3     0.900000E-01   1.00800           0
     21874 MEMB     191      CHL1     C1       CRL2    -0.180000       12.0110           0
     21875 MEMB     191      CHL1     H1A      HGA2     0.900000E-01   1.00800           0
     21876 MEMB     191      CHL1     H1B      HGA2     0.900000E-01   1.00800           0
     21877 MEMB     191      CHL1     C2       CRL2    -0.180000       12.0110           0
     21878 MEMB     191      CHL1     H2A      HGA2     0.900000E-01   1.00800           0
     21879 MEMB     191      CHL1     H2B      HGA2     0.900000E-01   1.00800           0
     21880 MEMB     191      CHL1     C20      CTL1    -0.900000E-01   12.0110           0
     21881 MEMB     191      CHL1     H20      HAL1     0.900000E-01   1.00800           0
     21882 MEMB     191      CHL1     C21      CTL3    -0.270000       12.0110           0
     21883 MEMB     191      CHL1     H21A     HAL3     0.900000E-01   1.00800           0
     21884 MEMB     191      CHL1     H21B     HAL3     0.900000E-01   1.00800           0
     21885 MEMB     191      CHL1     H21C     HAL3     0.900000E-01   1.00800           0
     21886 MEMB     191      CHL1     C22      CTL2    -0.180000       12.0110           0
     21887 MEMB     191      CHL1     H22A     HAL2     0.900000E-01   1.00800           0
     21888 MEMB     191      CHL1     H22B     HAL2     0.900000E-01   1.00800           0
     21889 MEMB     191      CHL1     C23      CTL2    -0.180000       12.0110           0
     21890 MEMB     191      CHL1     H23A     HAL2     0.900000E-01   1.00800           0
     21891 MEMB     191      CHL1     H23B     HAL2     0.900000E-01   1.00800           0
     21892 MEMB     191      CHL1     C24      CTL2    -0.180000       12.0110           0
     21893 MEMB     191      CHL1     H24A     HAL2     0.900000E-01   1.00800           0
     21894 MEMB     191      CHL1     H24B     HAL2     0.900000E-01   1.00800           0
     21895 MEMB     191      CHL1     C25      CTL1    -0.900000E-01   12.0110           0
     21896 MEMB     191      CHL1     H25      HAL1     0.900000E-01   1.00800           0
     21897 MEMB     191      CHL1     C26      CTL3    -0.270000       12.0110           0
     21898 MEMB     191      CHL1     H26A     HAL3     0.900000E-01   1.00800           0
     21899 MEMB     191      CHL1     H26B     HAL3     0.900000E-01   1.00800           0
     21900 MEMB     191      CHL1     H26C     HAL3     0.900000E-01   1.00800           0
     21901 MEMB     191      CHL1     C27      CTL3    -0.270000       12.0110           0
     21902 MEMB     191      CHL1     H27A     HAL3     0.900000E-01   1.00800           0
     21903 MEMB     191      CHL1     H27B     HAL3     0.900000E-01   1.00800           0
     21904 MEMB     191      CHL1     H27C     HAL3     0.900000E-01   1.00800           0
     21905 MEMB     192      CHL1     C3       CRL1     0.140000       12.0110           0
     21906 MEMB     192      CHL1     H3       HGA1     0.900000E-01   1.00800           0
     21907 MEMB     192      CHL1     O3       OHL     -0.660000       15.9994           0
     21908 MEMB     192      CHL1     H3'      HOL      0.430000       1.00800           0
     21909 MEMB     192      CHL1     C4       CRL2    -0.180000       12.0110           0
     21910 MEMB     192      CHL1     H4A      HGA2     0.900000E-01   1.00800           0
     21911 MEMB     192      CHL1     H4B      HGA2     0.900000E-01   1.00800           0
     21912 MEMB     192      CHL1     C5       CEL1      0.00000       12.0110           0
     21913 MEMB     192      CHL1     C6       CEL1    -0.150000       12.0110           0
     21914 MEMB     192      CHL1     H6       HEL1     0.150000       1.00800           0
     21915 MEMB     192      CHL1     C7       CRL2    -0.180000       12.0110           0
     21916 MEMB     192      CHL1     H7A      HGA2     0.900000E-01   1.00800           0
     21917 MEMB     192      CHL1     H7B      HGA2     0.900000E-01   1.00800           0
     21918 MEMB     192      CHL1     C8       CRL1    -0.900000E-01   12.0110           0
     21919 MEMB     192      CHL1     H8       HGA1     0.900000E-01   1.00800           0
     21920 MEMB     192      CHL1     C14      CRL1    -0.900000E-01   12.0110           0
     21921 MEMB     192      CHL1     H14      HGA1     0.900000E-01   1.00800           0
     21922 MEMB     192      CHL1     C15      CRL2    -0.180000       12.0110           0
     21923 MEMB     192      CHL1     H15A     HGA2     0.900000E-01   1.00800           0
     21924 MEMB     192      CHL1     H15B     HGA2     0.900000E-01   1.00800           0
     21925 MEMB     192      CHL1     C16      CRL2    -0.180000       12.0110           0
     21926 MEMB     192      CHL1     H16A     HGA2     0.900000E-01   1.00800           0
     21927 MEMB     192      CHL1     H16B     HGA2     0.900000E-01   1.00800           0
     21928 MEMB     192      CHL1     C17      CRL1    -0.900000E-01   12.0110           0
     21929 MEMB     192      CHL1     H17      HGA1     0.900000E-01   1.00800           0
     21930 MEMB     192      CHL1     C13      CRL1      0.00000       12.0110           0
     21931 MEMB     192      CHL1     C18      CTL3    -0.270000       12.0110           0
     21932 MEMB     192      CHL1     H18A     HAL3     0.900000E-01   1.00800           0
     21933 MEMB     192      CHL1     H18B     HAL3     0.900000E-01   1.00800           0
     21934 MEMB     192      CHL1     H18C     HAL3     0.900000E-01   1.00800           0
     21935 MEMB     192      CHL1     C12      CRL2    -0.180000       12.0110           0
     21936 MEMB     192      CHL1     H12A     HGA2     0.900000E-01   1.00800           0
     21937 MEMB     192      CHL1     H12B     HGA2     0.900000E-01   1.00800           0
     21938 MEMB     192      CHL1     C11      CRL2    -0.180000       12.0110           0
     21939 MEMB     192      CHL1     H11A     HGA2     0.900000E-01   1.00800           0
     21940 MEMB     192      CHL1     H11B     HGA2     0.900000E-01   1.00800           0
     21941 MEMB     192      CHL1     C9       CRL1    -0.900000E-01   12.0110           0
     21942 MEMB     192      CHL1     H9       HGA1     0.900000E-01   1.00800           0
     21943 MEMB     192      CHL1     C10      CRL1      0.00000       12.0110           0
     21944 MEMB     192      CHL1     C19      CTL3    -0.270000       12.0110           0
     21945 MEMB     192      CHL1     H19A     HAL3     0.900000E-01   1.00800           0
     21946 MEMB     192      CHL1     H19B     HAL3     0.900000E-01   1.00800           0
     21947 MEMB     192      CHL1     H19C     HAL3     0.900000E-01   1.00800           0
     21948 MEMB     192      CHL1     C1       CRL2    -0.180000       12.0110           0
     21949 MEMB     192      CHL1     H1A      HGA2     0.900000E-01   1.00800           0
     21950 MEMB     192      CHL1     H1B      HGA2     0.900000E-01   1.00800           0
     21951 MEMB     192      CHL1     C2       CRL2    -0.180000       12.0110           0
     21952 MEMB     192      CHL1     H2A      HGA2     0.900000E-01   1.00800           0
     21953 MEMB     192      CHL1     H2B      HGA2     0.900000E-01   1.00800           0
     21954 MEMB     192      CHL1     C20      CTL1    -0.900000E-01   12.0110           0
     21955 MEMB     192      CHL1     H20      HAL1     0.900000E-01   1.00800           0
     21956 MEMB     192      CHL1     C21      CTL3    -0.270000       12.0110           0
     21957 MEMB     192      CHL1     H21A     HAL3     0.900000E-01   1.00800           0
     21958 MEMB     192      CHL1     H21B     HAL3     0.900000E-01   1.00800           0
     21959 MEMB     192      CHL1     H21C     HAL3     0.900000E-01   1.00800           0
     21960 MEMB     192      CHL1     C22      CTL2    -0.180000       12.0110           0
     21961 MEMB     192      CHL1     H22A     HAL2     0.900000E-01   1.00800           0
     21962 MEMB     192      CHL1     H22B     HAL2     0.900000E-01   1.00800           0
     21963 MEMB     192      CHL1     C23      CTL2    -0.180000       12.0110           0
     21964 MEMB     192      CHL1     H23A     HAL2     0.900000E-01   1.00800           0
     21965 MEMB     192      CHL1     H23B     HAL2     0.900000E-01   1.00800           0
     21966 MEMB     192      CHL1     C24      CTL2    -0.180000       12.0110           0
     21967 MEMB     192      CHL1     H24A     HAL2     0.900000E-01   1.00800           0
     21968 MEMB     192      CHL1     H24B     HAL2     0.900000E-01   1.00800           0
     21969 MEMB     192      CHL1     C25      CTL1    -0.900000E-01   12.0110           0
     21970 MEMB     192      CHL1     H25      HAL1     0.900000E-01   1.00800           0
     21971 MEMB     192      CHL1     C26      CTL3    -0.270000       12.0110           0
     21972 MEMB     192      CHL1     H26A     HAL3     0.900000E-01   1.00800           0
     21973 MEMB     192      CHL1     H26B     HAL3     0.900000E-01   1.00800           0
     21974 MEMB     192      CHL1     H26C     HAL3     0.900000E-01   1.00800           0
     21975 MEMB     192      CHL1     C27      CTL3    -0.270000       12.0110           0
     21976 MEMB     192      CHL1     H27A     HAL3     0.900000E-01   1.00800           0
     21977 MEMB     192      CHL1     H27B     HAL3     0.900000E-01   1.00800           0
     21978 MEMB     192      CHL1     H27C     HAL3     0.900000E-01   1.00800           0
     21979 MEMB     193      CHL1     C3       CRL1     0.140000       12.0110           0
     21980 MEMB     193      CHL1     H3       HGA1     0.900000E-01   1.00800           0
     21981 MEMB     193      CHL1     O3       OHL     -0.660000       15.9994           0
     21982 MEMB     193      CHL1     H3'      HOL      0.430000       1.00800           0
     21983 MEMB     193      CHL1     C4       CRL2    -0.180000       12.0110           0
     21984 MEMB     193      CHL1     H4A      HGA2     0.900000E-01   1.00800           0
     21985 MEMB     193      CHL1     H4B      HGA2     0.900000E-01   1.00800           0
     21986 MEMB     193      CHL1     C5       CEL1      0.00000       12.0110           0
     21987 MEMB     193      CHL1     C6       CEL1    -0.150000       12.0110           0
     21988 MEMB     193      CHL1     H6       HEL1     0.150000       1.00800           0
     21989 MEMB     193      CHL1     C7       CRL2    -0.180000       12.0110           0
     21990 MEMB     193      CHL1     H7A      HGA2     0.900000E-01   1.00800           0
     21991 MEMB     193      CHL1     H7B      HGA2     0.900000E-01   1.00800           0
     21992 MEMB     193      CHL1     C8       CRL1    -0.900000E-01   12.0110           0
     21993 MEMB     193      CHL1     H8       HGA1     0.900000E-01   1.00800           0
     21994 MEMB     193      CHL1     C14      CRL1    -0.900000E-01   12.0110           0
     21995 MEMB     193      CHL1     H14      HGA1     0.900000E-01   1.00800           0
     21996 MEMB     193      CHL1     C15      CRL2    -0.180000       12.0110           0
     21997 MEMB     193      CHL1     H15A     HGA2     0.900000E-01   1.00800           0
     21998 MEMB     193      CHL1     H15B     HGA2     0.900000E-01   1.00800           0
     21999 MEMB     193      CHL1     C16      CRL2    -0.180000       12.0110           0
     22000 MEMB     193      CHL1     H16A     HGA2     0.900000E-01   1.00800           0
     22001 MEMB     193      CHL1     H16B     HGA2     0.900000E-01   1.00800           0
     22002 MEMB     193      CHL1     C17      CRL1    -0.900000E-01   12.0110           0
     22003 MEMB     193      CHL1     H17      HGA1     0.900000E-01   1.00800           0
     22004 MEMB     193      CHL1     C13      CRL1      0.00000       12.0110           0
     22005 MEMB     193      CHL1     C18      CTL3    -0.270000       12.0110           0
     22006 MEMB     193      CHL1     H18A     HAL3     0.900000E-01   1.00800           0
     22007 MEMB     193      CHL1     H18B     HAL3     0.900000E-01   1.00800           0
     22008 MEMB     193      CHL1     H18C     HAL3     0.900000E-01   1.00800           0
     22009 MEMB     193      CHL1     C12      CRL2    -0.180000       12.0110           0
     22010 MEMB     193      CHL1     H12A     HGA2     0.900000E-01   1.00800           0
     22011 MEMB     193      CHL1     H12B     HGA2     0.900000E-01   1.00800           0
     22012 MEMB     193      CHL1     C11      CRL2    -0.180000       12.0110           0
     22013 MEMB     193      CHL1     H11A     HGA2     0.900000E-01   1.00800           0
     22014 MEMB     193      CHL1     H11B     HGA2     0.900000E-01   1.00800           0
     22015 MEMB     193      CHL1     C9       CRL1    -0.900000E-01   12.0110           0
     22016 MEMB     193      CHL1     H9       HGA1     0.900000E-01   1.00800           0
     22017 MEMB     193      CHL1     C10      CRL1      0.00000       12.0110           0
     22018 MEMB     193      CHL1     C19      CTL3    -0.270000       12.0110           0
     22019 MEMB     193      CHL1     H19A     HAL3     0.900000E-01   1.00800           0
     22020 MEMB     193      CHL1     H19B     HAL3     0.900000E-01   1.00800           0
     22021 MEMB     193      CHL1     H19C     HAL3     0.900000E-01   1.00800           0
     22022 MEMB     193      CHL1     C1       CRL2    -0.180000       12.0110           0
     22023 MEMB     193      CHL1     H1A      HGA2     0.900000E-01   1.00800           0
     22024 MEMB     193      CHL1     H1B      HGA2     0.900000E-01   1.00800           0
     22025 MEMB     193      CHL1     C2       CRL2    -0.180000       12.0110           0
     22026 MEMB     193      CHL1     H2A      HGA2     0.900000E-01   1.00800           0
     22027 MEMB     193      CHL1     H2B      HGA2     0.900000E-01   1.00800           0
     22028 MEMB     193      CHL1     C20      CTL1    -0.900000E-01   12.0110           0
     22029 MEMB     193      CHL1     H20      HAL1     0.900000E-01   1.00800           0
     22030 MEMB     193      CHL1     C21      CTL3    -0.270000       12.0110           0
     22031 MEMB     193      CHL1     H21A     HAL3     0.900000E-01   1.00800           0
     22032 MEMB     193      CHL1     H21B     HAL3     0.900000E-01   1.00800           0
     22033 MEMB     193      CHL1     H21C     HAL3     0.900000E-01   1.00800           0
     22034 MEMB     193      CHL1     C22      CTL2    -0.180000       12.0110           0
     22035 MEMB     193      CHL1     H22A     HAL2     0.900000E-01   1.00800           0
     22036 MEMB     193      CHL1     H22B     HAL2     0.900000E-01   1.00800           0
     22037 MEMB     193      CHL1     C23      CTL2    -0.180000       12.0110           0
     22038 MEMB     193      CHL1     H23A     HAL2     0.900000E-01   1.00800           0
     22039 MEMB     193      CHL1     H23B     HAL2     0.900000E-01   1.00800           0
     22040 MEMB     193      CHL1     C24      CTL2    -0.180000       12.0110           0
     22041 MEMB     193      CHL1     H24A     HAL2     0.900000E-01   1.00800           0
     22042 MEMB     193      CHL1     H24B     HAL2     0.900000E-01   1.00800           0
     22043 MEMB     193      CHL1     C25      CTL1    -0.900000E-01   12.0110           0
     22044 MEMB     193      CHL1     H25      HAL1     0.900000E-01   1.00800           0
     22045 MEMB     193      CHL1     C26      CTL3    -0.270000       12.0110           0
     22046 MEMB     193      CHL1     H26A     HAL3     0.900000E-01   1.00800           0
     22047 MEMB     193      CHL1     H26B     HAL3     0.900000E-01   1.00800           0
     22048 MEMB     193      CHL1     H26C     HAL3     0.900000E-01   1.00800           0
     22049 MEMB     193      CHL1     C27      CTL3    -0.270000       12.0110           0
     22050 MEMB     193      CHL1     H27A     HAL3     0.900000E-01   1.00800           0
     22051 MEMB     193      CHL1     H27B     HAL3     0.900000E-01   1.00800           0
     22052 MEMB     193      CHL1     H27C     HAL3     0.900000E-01   1.00800           0
     22053 MEMB     194      CHL1     C3       CRL1     0.140000       12.0110           0
     22054 MEMB     194      CHL1     H3       HGA1     0.900000E-01   1.00800           0
     22055 MEMB     194      CHL1     O3       OHL     -0.660000       15.9994           0
     22056 MEMB     194      CHL1     H3'      HOL      0.430000       1.00800           0
     22057 MEMB     194      CHL1     C4       CRL2    -0.180000       12.0110           0
     22058 MEMB     194      CHL1     H4A      HGA2     0.900000E-01   1.00800           0
     22059 MEMB     194      CHL1     H4B      HGA2     0.900000E-01   1.00800           0
     22060 MEMB     194      CHL1     C5       CEL1      0.00000       12.0110           0
     22061 MEMB     194      CHL1     C6       CEL1    -0.150000       12.0110           0
     22062 MEMB     194      CHL1     H6       HEL1     0.150000       1.00800           0
     22063 MEMB     194      CHL1     C7       CRL2    -0.180000       12.0110           0
     22064 MEMB     194      CHL1     H7A      HGA2     0.900000E-01   1.00800           0
     22065 MEMB     194      CHL1     H7B      HGA2     0.900000E-01   1.00800           0
     22066 MEMB     194      CHL1     C8       CRL1    -0.900000E-01   12.0110           0
     22067 MEMB     194      CHL1     H8       HGA1     0.900000E-01   1.00800           0
     22068 MEMB     194      CHL1     C14      CRL1    -0.900000E-01   12.0110           0
     22069 MEMB     194      CHL1     H14      HGA1     0.900000E-01   1.00800           0
     22070 MEMB     194      CHL1     C15      CRL2    -0.180000       12.0110           0
     22071 MEMB     194      CHL1     H15A     HGA2     0.900000E-01   1.00800           0
     22072 MEMB     194      CHL1     H15B     HGA2     0.900000E-01   1.00800           0
     22073 MEMB     194      CHL1     C16      CRL2    -0.180000       12.0110           0
     22074 MEMB     194      CHL1     H16A     HGA2     0.900000E-01   1.00800           0
     22075 MEMB     194      CHL1     H16B     HGA2     0.900000E-01   1.00800           0
     22076 MEMB     194      CHL1     C17      CRL1    -0.900000E-01   12.0110           0
     22077 MEMB     194      CHL1     H17      HGA1     0.900000E-01   1.00800           0
     22078 MEMB     194      CHL1     C13      CRL1      0.00000       12.0110           0
     22079 MEMB     194      CHL1     C18      CTL3    -0.270000       12.0110           0
     22080 MEMB     194      CHL1     H18A     HAL3     0.900000E-01   1.00800           0
     22081 MEMB     194      CHL1     H18B     HAL3     0.900000E-01   1.00800           0
     22082 MEMB     194      CHL1     H18C     HAL3     0.900000E-01   1.00800           0
     22083 MEMB     194      CHL1     C12      CRL2    -0.180000       12.0110           0
     22084 MEMB     194      CHL1     H12A     HGA2     0.900000E-01   1.00800           0
     22085 MEMB     194      CHL1     H12B     HGA2     0.900000E-01   1.00800           0
     22086 MEMB     194      CHL1     C11      CRL2    -0.180000       12.0110           0
     22087 MEMB     194      CHL1     H11A     HGA2     0.900000E-01   1.00800           0
     22088 MEMB     194      CHL1     H11B     HGA2     0.900000E-01   1.00800           0
     22089 MEMB     194      CHL1     C9       CRL1    -0.900000E-01   12.0110           0
     22090 MEMB     194      CHL1     H9       HGA1     0.900000E-01   1.00800           0
     22091 MEMB     194      CHL1     C10      CRL1      0.00000       12.0110           0
     22092 MEMB     194      CHL1     C19      CTL3    -0.270000       12.0110           0
     22093 MEMB     194      CHL1     H19A     HAL3     0.900000E-01   1.00800           0
     22094 MEMB     194      CHL1     H19B     HAL3     0.900000E-01   1.00800           0
     22095 MEMB     194      CHL1     H19C     HAL3     0.900000E-01   1.00800           0
     22096 MEMB     194      CHL1     C1       CRL2    -0.180000       12.0110           0
     22097 MEMB     194      CHL1     H1A      HGA2     0.900000E-01   1.00800           0
     22098 MEMB     194      CHL1     H1B      HGA2     0.900000E-01   1.00800           0
     22099 MEMB     194      CHL1     C2       CRL2    -0.180000       12.0110           0
     22100 MEMB     194      CHL1     H2A      HGA2     0.900000E-01   1.00800           0
     22101 MEMB     194      CHL1     H2B      HGA2     0.900000E-01   1.00800           0
     22102 MEMB     194      CHL1     C20      CTL1    -0.900000E-01   12.0110           0
     22103 MEMB     194      CHL1     H20      HAL1     0.900000E-01   1.00800           0
     22104 MEMB     194      CHL1     C21      CTL3    -0.270000       12.0110           0
     22105 MEMB     194      CHL1     H21A     HAL3     0.900000E-01   1.00800           0
     22106 MEMB     194      CHL1     H21B     HAL3     0.900000E-01   1.00800           0
     22107 MEMB     194      CHL1     H21C     HAL3     0.900000E-01   1.00800           0
     22108 MEMB     194      CHL1     C22      CTL2    -0.180000       12.0110           0
     22109 MEMB     194      CHL1     H22A     HAL2     0.900000E-01   1.00800           0
     22110 MEMB     194      CHL1     H22B     HAL2     0.900000E-01   1.00800           0
     22111 MEMB     194      CHL1     C23      CTL2    -0.180000       12.0110           0
     22112 MEMB     194      CHL1     H23A     HAL2     0.900000E-01   1.00800           0
     22113 MEMB     194      CHL1     H23B     HAL2     0.900000E-01   1.00800           0
     22114 MEMB     194      CHL1     C24      CTL2    -0.180000       12.0110           0
     22115 MEMB     194      CHL1     H24A     HAL2     0.900000E-01   1.00800           0
     22116 MEMB     194      CHL1     H24B     HAL2     0.900000E-01   1.00800           0
     22117 MEMB     194      CHL1     C25      CTL1    -0.900000E-01   12.0110           0
     22118 MEMB     194      CHL1     H25      HAL1     0.900000E-01   1.00800           0
     22119 MEMB     194      CHL1     C26      CTL3    -0.270000       12.0110           0
     22120 MEMB     194      CHL1     H26A     HAL3     0.900000E-01   1.00800           0
     22121 MEMB     194      CHL1     H26B     HAL3     0.900000E-01   1.00800           0
     22122 MEMB     194      CHL1     H26C     HAL3     0.900000E-01   1.00800           0
     22123 MEMB     194      CHL1     C27      CTL3    -0.270000       12.0110           0
     22124 MEMB     194      CHL1     H27A     HAL3     0.900000E-01   1.00800           0
     22125 MEMB     194      CHL1     H27B     HAL3     0.900000E-01   1.00800           0
     22126 MEMB     194      CHL1     H27C     HAL3     0.900000E-01   1.00800           0
     22127 MEMB     195      CHL1     C3       CRL1     0.140000       12.0110           0
     22128 MEMB     195      CHL1     H3       HGA1     0.900000E-01   1.00800           0
     22129 MEMB     195      CHL1     O3       OHL     -0.660000       15.9994           0
     22130 MEMB     195      CHL1     H3'      HOL      0.430000       1.00800           0
     22131 MEMB     195      CHL1     C4       CRL2    -0.180000       12.0110           0
     22132 MEMB     195      CHL1     H4A      HGA2     0.900000E-01   1.00800           0
     22133 MEMB     195      CHL1     H4B      HGA2     0.900000E-01   1.00800           0
     22134 MEMB     195      CHL1     C5       CEL1      0.00000       12.0110           0
     22135 MEMB     195      CHL1     C6       CEL1    -0.150000       12.0110           0
     22136 MEMB     195      CHL1     H6       HEL1     0.150000       1.00800           0
     22137 MEMB     195      CHL1     C7       CRL2    -0.180000       12.0110           0
     22138 MEMB     195      CHL1     H7A      HGA2     0.900000E-01   1.00800           0
     22139 MEMB     195      CHL1     H7B      HGA2     0.900000E-01   1.00800           0
     22140 MEMB     195      CHL1     C8       CRL1    -0.900000E-01   12.0110           0
     22141 MEMB     195      CHL1     H8       HGA1     0.900000E-01   1.00800           0
     22142 MEMB     195      CHL1     C14      CRL1    -0.900000E-01   12.0110           0
     22143 MEMB     195      CHL1     H14      HGA1     0.900000E-01   1.00800           0
     22144 MEMB     195      CHL1     C15      CRL2    -0.180000       12.0110           0
     22145 MEMB     195      CHL1     H15A     HGA2     0.900000E-01   1.00800           0
     22146 MEMB     195      CHL1     H15B     HGA2     0.900000E-01   1.00800           0
     22147 MEMB     195      CHL1     C16      CRL2    -0.180000       12.0110           0
     22148 MEMB     195      CHL1     H16A     HGA2     0.900000E-01   1.00800           0
     22149 MEMB     195      CHL1     H16B     HGA2     0.900000E-01   1.00800           0
     22150 MEMB     195      CHL1     C17      CRL1    -0.900000E-01   12.0110           0
     22151 MEMB     195      CHL1     H17      HGA1     0.900000E-01   1.00800           0
     22152 MEMB     195      CHL1     C13      CRL1      0.00000       12.0110           0
     22153 MEMB     195      CHL1     C18      CTL3    -0.270000       12.0110           0
     22154 MEMB     195      CHL1     H18A     HAL3     0.900000E-01   1.00800           0
     22155 MEMB     195      CHL1     H18B     HAL3     0.900000E-01   1.00800           0
     22156 MEMB     195      CHL1     H18C     HAL3     0.900000E-01   1.00800           0
     22157 MEMB     195      CHL1     C12      CRL2    -0.180000       12.0110           0
     22158 MEMB     195      CHL1     H12A     HGA2     0.900000E-01   1.00800           0
     22159 MEMB     195      CHL1     H12B     HGA2     0.900000E-01   1.00800           0
     22160 MEMB     195      CHL1     C11      CRL2    -0.180000       12.0110           0
     22161 MEMB     195      CHL1     H11A     HGA2     0.900000E-01   1.00800           0
     22162 MEMB     195      CHL1     H11B     HGA2     0.900000E-01   1.00800           0
     22163 MEMB     195      CHL1     C9       CRL1    -0.900000E-01   12.0110           0
     22164 MEMB     195      CHL1     H9       HGA1     0.900000E-01   1.00800           0
     22165 MEMB     195      CHL1     C10      CRL1      0.00000       12.0110           0
     22166 MEMB     195      CHL1     C19      CTL3    -0.270000       12.0110           0
     22167 MEMB     195      CHL1     H19A     HAL3     0.900000E-01   1.00800           0
     22168 MEMB     195      CHL1     H19B     HAL3     0.900000E-01   1.00800           0
     22169 MEMB     195      CHL1     H19C     HAL3     0.900000E-01   1.00800           0
     22170 MEMB     195      CHL1     C1       CRL2    -0.180000       12.0110           0
     22171 MEMB     195      CHL1     H1A      HGA2     0.900000E-01   1.00800           0
     22172 MEMB     195      CHL1     H1B      HGA2     0.900000E-01   1.00800           0
     22173 MEMB     195      CHL1     C2       CRL2    -0.180000       12.0110           0
     22174 MEMB     195      CHL1     H2A      HGA2     0.900000E-01   1.00800           0
     22175 MEMB     195      CHL1     H2B      HGA2     0.900000E-01   1.00800           0
     22176 MEMB     195      CHL1     C20      CTL1    -0.900000E-01   12.0110           0
     22177 MEMB     195      CHL1     H20      HAL1     0.900000E-01   1.00800           0
     22178 MEMB     195      CHL1     C21      CTL3    -0.270000       12.0110           0
     22179 MEMB     195      CHL1     H21A     HAL3     0.900000E-01   1.00800           0
     22180 MEMB     195      CHL1     H21B     HAL3     0.900000E-01   1.00800           0
     22181 MEMB     195      CHL1     H21C     HAL3     0.900000E-01   1.00800           0
     22182 MEMB     195      CHL1     C22      CTL2    -0.180000       12.0110           0
     22183 MEMB     195      CHL1     H22A     HAL2     0.900000E-01   1.00800           0
     22184 MEMB     195      CHL1     H22B     HAL2     0.900000E-01   1.00800           0
     22185 MEMB     195      CHL1     C23      CTL2    -0.180000       12.0110           0
     22186 MEMB     195      CHL1     H23A     HAL2     0.900000E-01   1.00800           0
     22187 MEMB     195      CHL1     H23B     HAL2     0.900000E-01   1.00800           0
     22188 MEMB     195      CHL1     C24      CTL2    -0.180000       12.0110           0
     22189 MEMB     195      CHL1     H24A     HAL2     0.900000E-01   1.00800           0
     22190 MEMB     195      CHL1     H24B     HAL2     0.900000E-01   1.00800           0
     22191 MEMB     195      CHL1     C25      CTL1    -0.900000E-01   12.0110           0
     22192 MEMB     195      CHL1     H25      HAL1     0.900000E-01   1.00800           0
     22193 MEMB     195      CHL1     C26      CTL3    -0.270000       12.0110           0
     22194 MEMB     195      CHL1     H26A     HAL3     0.900000E-01   1.00800           0
     22195 MEMB     195      CHL1     H26B     HAL3     0.900000E-01   1.00800           0
     22196 MEMB     195      CHL1     H26C     HAL3     0.900000E-01   1.00800           0
     22197 MEMB     195      CHL1     C27      CTL3    -0.270000       12.0110           0
     22198 MEMB     195      CHL1     H27A     HAL3     0.900000E-01   1.00800           0
     22199 MEMB     195      CHL1     H27B     HAL3     0.900000E-01   1.00800           0
     22200 MEMB     195      CHL1     H27C     HAL3     0.900000E-01   1.00800           0
     22201 MEMB     196      CHL1     C3       CRL1     0.140000       12.0110           0
     22202 MEMB     196      CHL1     H3       HGA1     0.900000E-01   1.00800           0
     22203 MEMB     196      CHL1     O3       OHL     -0.660000       15.9994           0
     22204 MEMB     196      CHL1     H3'      HOL      0.430000       1.00800           0
     22205 MEMB     196      CHL1     C4       CRL2    -0.180000       12.0110           0
     22206 MEMB     196      CHL1     H4A      HGA2     0.900000E-01   1.00800           0
     22207 MEMB     196      CHL1     H4B      HGA2     0.900000E-01   1.00800           0
     22208 MEMB     196      CHL1     C5       CEL1      0.00000       12.0110           0
     22209 MEMB     196      CHL1     C6       CEL1    -0.150000       12.0110           0
     22210 MEMB     196      CHL1     H6       HEL1     0.150000       1.00800           0
     22211 MEMB     196      CHL1     C7       CRL2    -0.180000       12.0110           0
     22212 MEMB     196      CHL1     H7A      HGA2     0.900000E-01   1.00800           0
     22213 MEMB     196      CHL1     H7B      HGA2     0.900000E-01   1.00800           0
     22214 MEMB     196      CHL1     C8       CRL1    -0.900000E-01   12.0110           0
     22215 MEMB     196      CHL1     H8       HGA1     0.900000E-01   1.00800           0
     22216 MEMB     196      CHL1     C14      CRL1    -0.900000E-01   12.0110           0
     22217 MEMB     196      CHL1     H14      HGA1     0.900000E-01   1.00800           0
     22218 MEMB     196      CHL1     C15      CRL2    -0.180000       12.0110           0
     22219 MEMB     196      CHL1     H15A     HGA2     0.900000E-01   1.00800           0
     22220 MEMB     196      CHL1     H15B     HGA2     0.900000E-01   1.00800           0
     22221 MEMB     196      CHL1     C16      CRL2    -0.180000       12.0110           0
     22222 MEMB     196      CHL1     H16A     HGA2     0.900000E-01   1.00800           0
     22223 MEMB     196      CHL1     H16B     HGA2     0.900000E-01   1.00800           0
     22224 MEMB     196      CHL1     C17      CRL1    -0.900000E-01   12.0110           0
     22225 MEMB     196      CHL1     H17      HGA1     0.900000E-01   1.00800           0
     22226 MEMB     196      CHL1     C13      CRL1      0.00000       12.0110           0
     22227 MEMB     196      CHL1     C18      CTL3    -0.270000       12.0110           0
     22228 MEMB     196      CHL1     H18A     HAL3     0.900000E-01   1.00800           0
     22229 MEMB     196      CHL1     H18B     HAL3     0.900000E-01   1.00800           0
     22230 MEMB     196      CHL1     H18C     HAL3     0.900000E-01   1.00800           0
     22231 MEMB     196      CHL1     C12      CRL2    -0.180000       12.0110           0
     22232 MEMB     196      CHL1     H12A     HGA2     0.900000E-01   1.00800           0
     22233 MEMB     196      CHL1     H12B     HGA2     0.900000E-01   1.00800           0
     22234 MEMB     196      CHL1     C11      CRL2    -0.180000       12.0110           0
     22235 MEMB     196      CHL1     H11A     HGA2     0.900000E-01   1.00800           0
     22236 MEMB     196      CHL1     H11B     HGA2     0.900000E-01   1.00800           0
     22237 MEMB     196      CHL1     C9       CRL1    -0.900000E-01   12.0110           0
     22238 MEMB     196      CHL1     H9       HGA1     0.900000E-01   1.00800           0
     22239 MEMB     196      CHL1     C10      CRL1      0.00000       12.0110           0
     22240 MEMB     196      CHL1     C19      CTL3    -0.270000       12.0110           0
     22241 MEMB     196      CHL1     H19A     HAL3     0.900000E-01   1.00800           0
     22242 MEMB     196      CHL1     H19B     HAL3     0.900000E-01   1.00800           0
     22243 MEMB     196      CHL1     H19C     HAL3     0.900000E-01   1.00800           0
     22244 MEMB     196      CHL1     C1       CRL2    -0.180000       12.0110           0
     22245 MEMB     196      CHL1     H1A      HGA2     0.900000E-01   1.00800           0
     22246 MEMB     196      CHL1     H1B      HGA2     0.900000E-01   1.00800           0
     22247 MEMB     196      CHL1     C2       CRL2    -0.180000       12.0110           0
     22248 MEMB     196      CHL1     H2A      HGA2     0.900000E-01   1.00800           0
     22249 MEMB     196      CHL1     H2B      HGA2     0.900000E-01   1.00800           0
     22250 MEMB     196      CHL1     C20      CTL1    -0.900000E-01   12.0110           0
     22251 MEMB     196      CHL1     H20      HAL1     0.900000E-01   1.00800           0
     22252 MEMB     196      CHL1     C21      CTL3    -0.270000       12.0110           0
     22253 MEMB     196      CHL1     H21A     HAL3     0.900000E-01   1.00800           0
     22254 MEMB     196      CHL1     H21B     HAL3     0.900000E-01   1.00800           0
     22255 MEMB     196      CHL1     H21C     HAL3     0.900000E-01   1.00800           0
     22256 MEMB     196      CHL1     C22      CTL2    -0.180000       12.0110           0
     22257 MEMB     196      CHL1     H22A     HAL2     0.900000E-01   1.00800           0
     22258 MEMB     196      CHL1     H22B     HAL2     0.900000E-01   1.00800           0
     22259 MEMB     196      CHL1     C23      CTL2    -0.180000       12.0110           0
     22260 MEMB     196      CHL1     H23A     HAL2     0.900000E-01   1.00800           0
     22261 MEMB     196      CHL1     H23B     HAL2     0.900000E-01   1.00800           0
     22262 MEMB     196      CHL1     C24      CTL2    -0.180000       12.0110           0
     22263 MEMB     196      CHL1     H24A     HAL2     0.900000E-01   1.00800           0
     22264 MEMB     196      CHL1     H24B     HAL2     0.900000E-01   1.00800           0
     22265 MEMB     196      CHL1     C25      CTL1    -0.900000E-01   12.0110           0
     22266 MEMB     196      CHL1     H25      HAL1     0.900000E-01   1.00800           0
     22267 MEMB     196      CHL1     C26      CTL3    -0.270000       12.0110           0
     22268 MEMB     196      CHL1     H26A     HAL3     0.900000E-01   1.00800           0
     22269 MEMB     196      CHL1     H26B     HAL3     0.900000E-01   1.00800           0
     22270 MEMB     196      CHL1     H26C     HAL3     0.900000E-01   1.00800           0
     22271 MEMB     196      CHL1     C27      CTL3    -0.270000       12.0110           0
     22272 MEMB     196      CHL1     H27A     HAL3     0.900000E-01   1.00800           0
     22273 MEMB     196      CHL1     H27B     HAL3     0.900000E-01   1.00800           0
     22274 MEMB     196      CHL1     H27C     HAL3     0.900000E-01   1.00800           0
     22275 MEMB     197      CHL1     C3       CRL1     0.140000       12.0110           0
     22276 MEMB     197      CHL1     H3       HGA1     0.900000E-01   1.00800           0
     22277 MEMB     197      CHL1     O3       OHL     -0.660000       15.9994           0
     22278 MEMB     197      CHL1     H3'      HOL      0.430000       1.00800           0
     22279 MEMB     197      CHL1     C4       CRL2    -0.180000       12.0110           0
     22280 MEMB     197      CHL1     H4A      HGA2     0.900000E-01   1.00800           0
     22281 MEMB     197      CHL1     H4B      HGA2     0.900000E-01   1.00800           0
     22282 MEMB     197      CHL1     C5       CEL1      0.00000       12.0110           0
     22283 MEMB     197      CHL1     C6       CEL1    -0.150000       12.0110           0
     22284 MEMB     197      CHL1     H6       HEL1     0.150000       1.00800           0
     22285 MEMB     197      CHL1     C7       CRL2    -0.180000       12.0110           0
     22286 MEMB     197      CHL1     H7A      HGA2     0.900000E-01   1.00800           0
     22287 MEMB     197      CHL1     H7B      HGA2     0.900000E-01   1.00800           0
     22288 MEMB     197      CHL1     C8       CRL1    -0.900000E-01   12.0110           0
     22289 MEMB     197      CHL1     H8       HGA1     0.900000E-01   1.00800           0
     22290 MEMB     197      CHL1     C14      CRL1    -0.900000E-01   12.0110           0
     22291 MEMB     197      CHL1     H14      HGA1     0.900000E-01   1.00800           0
     22292 MEMB     197      CHL1     C15      CRL2    -0.180000       12.0110           0
     22293 MEMB     197      CHL1     H15A     HGA2     0.900000E-01   1.00800           0
     22294 MEMB     197      CHL1     H15B     HGA2     0.900000E-01   1.00800           0
     22295 MEMB     197      CHL1     C16      CRL2    -0.180000       12.0110           0
     22296 MEMB     197      CHL1     H16A     HGA2     0.900000E-01   1.00800           0
     22297 MEMB     197      CHL1     H16B     HGA2     0.900000E-01   1.00800           0
     22298 MEMB     197      CHL1     C17      CRL1    -0.900000E-01   12.0110           0
     22299 MEMB     197      CHL1     H17      HGA1     0.900000E-01   1.00800           0
     22300 MEMB     197      CHL1     C13      CRL1      0.00000       12.0110           0
     22301 MEMB     197      CHL1     C18      CTL3    -0.270000       12.0110           0
     22302 MEMB     197      CHL1     H18A     HAL3     0.900000E-01   1.00800           0
     22303 MEMB     197      CHL1     H18B     HAL3     0.900000E-01   1.00800           0
     22304 MEMB     197      CHL1     H18C     HAL3     0.900000E-01   1.00800           0
     22305 MEMB     197      CHL1     C12      CRL2    -0.180000       12.0110           0
     22306 MEMB     197      CHL1     H12A     HGA2     0.900000E-01   1.00800           0
     22307 MEMB     197      CHL1     H12B     HGA2     0.900000E-01   1.00800           0
     22308 MEMB     197      CHL1     C11      CRL2    -0.180000       12.0110           0
     22309 MEMB     197      CHL1     H11A     HGA2     0.900000E-01   1.00800           0
     22310 MEMB     197      CHL1     H11B     HGA2     0.900000E-01   1.00800           0
     22311 MEMB     197      CHL1     C9       CRL1    -0.900000E-01   12.0110           0
     22312 MEMB     197      CHL1     H9       HGA1     0.900000E-01   1.00800           0
     22313 MEMB     197      CHL1     C10      CRL1      0.00000       12.0110           0
     22314 MEMB     197      CHL1     C19      CTL3    -0.270000       12.0110           0
     22315 MEMB     197      CHL1     H19A     HAL3     0.900000E-01   1.00800           0
     22316 MEMB     197      CHL1     H19B     HAL3     0.900000E-01   1.00800           0
     22317 MEMB     197      CHL1     H19C     HAL3     0.900000E-01   1.00800           0
     22318 MEMB     197      CHL1     C1       CRL2    -0.180000       12.0110           0
     22319 MEMB     197      CHL1     H1A      HGA2     0.900000E-01   1.00800           0
     22320 MEMB     197      CHL1     H1B      HGA2     0.900000E-01   1.00800           0
     22321 MEMB     197      CHL1     C2       CRL2    -0.180000       12.0110           0
     22322 MEMB     197      CHL1     H2A      HGA2     0.900000E-01   1.00800           0
     22323 MEMB     197      CHL1     H2B      HGA2     0.900000E-01   1.00800           0
     22324 MEMB     197      CHL1     C20      CTL1    -0.900000E-01   12.0110           0
     22325 MEMB     197      CHL1     H20      HAL1     0.900000E-01   1.00800           0
     22326 MEMB     197      CHL1     C21      CTL3    -0.270000       12.0110           0
     22327 MEMB     197      CHL1     H21A     HAL3     0.900000E-01   1.00800           0
     22328 MEMB     197      CHL1     H21B     HAL3     0.900000E-01   1.00800           0
     22329 MEMB     197      CHL1     H21C     HAL3     0.900000E-01   1.00800           0
     22330 MEMB     197      CHL1     C22      CTL2    -0.180000       12.0110           0
     22331 MEMB     197      CHL1     H22A     HAL2     0.900000E-01   1.00800           0
     22332 MEMB     197      CHL1     H22B     HAL2     0.900000E-01   1.00800           0
     22333 MEMB     197      CHL1     C23      CTL2    -0.180000       12.0110           0
     22334 MEMB     197      CHL1     H23A     HAL2     0.900000E-01   1.00800           0
     22335 MEMB     197      CHL1     H23B     HAL2     0.900000E-01   1.00800           0
     22336 MEMB     197      CHL1     C24      CTL2    -0.180000       12.0110           0
     22337 MEMB     197      CHL1     H24A     HAL2     0.900000E-01   1.00800           0
     22338 MEMB     197      CHL1     H24B     HAL2     0.900000E-01   1.00800           0
     22339 MEMB     197      CHL1     C25      CTL1    -0.900000E-01   12.0110           0
     22340 MEMB     197      CHL1     H25      HAL1     0.900000E-01   1.00800           0
     22341 MEMB     197      CHL1     C26      CTL3    -0.270000       12.0110           0
     22342 MEMB     197      CHL1     H26A     HAL3     0.900000E-01   1.00800           0
     22343 MEMB     197      CHL1     H26B     HAL3     0.900000E-01   1.00800           0
     22344 MEMB     197      CHL1     H26C     HAL3     0.900000E-01   1.00800           0
     22345 MEMB     197      CHL1     C27      CTL3    -0.270000       12.0110           0
     22346 MEMB     197      CHL1     H27A     HAL3     0.900000E-01   1.00800           0
     22347 MEMB     197      CHL1     H27B     HAL3     0.900000E-01   1.00800           0
     22348 MEMB     197      CHL1     H27C     HAL3     0.900000E-01   1.00800           0
     22349 MEMB     198      CHL1     C3       CRL1     0.140000       12.0110           0
     22350 MEMB     198      CHL1     H3       HGA1     0.900000E-01   1.00800           0
     22351 MEMB     198      CHL1     O3       OHL     -0.660000       15.9994           0
     22352 MEMB     198      CHL1     H3'      HOL      0.430000       1.00800           0
     22353 MEMB     198      CHL1     C4       CRL2    -0.180000       12.0110           0
     22354 MEMB     198      CHL1     H4A      HGA2     0.900000E-01   1.00800           0
     22355 MEMB     198      CHL1     H4B      HGA2     0.900000E-01   1.00800           0
     22356 MEMB     198      CHL1     C5       CEL1      0.00000       12.0110           0
     22357 MEMB     198      CHL1     C6       CEL1    -0.150000       12.0110           0
     22358 MEMB     198      CHL1     H6       HEL1     0.150000       1.00800           0
     22359 MEMB     198      CHL1     C7       CRL2    -0.180000       12.0110           0
     22360 MEMB     198      CHL1     H7A      HGA2     0.900000E-01   1.00800           0
     22361 MEMB     198      CHL1     H7B      HGA2     0.900000E-01   1.00800           0
     22362 MEMB     198      CHL1     C8       CRL1    -0.900000E-01   12.0110           0
     22363 MEMB     198      CHL1     H8       HGA1     0.900000E-01   1.00800           0
     22364 MEMB     198      CHL1     C14      CRL1    -0.900000E-01   12.0110           0
     22365 MEMB     198      CHL1     H14      HGA1     0.900000E-01   1.00800           0
     22366 MEMB     198      CHL1     C15      CRL2    -0.180000       12.0110           0
     22367 MEMB     198      CHL1     H15A     HGA2     0.900000E-01   1.00800           0
     22368 MEMB     198      CHL1     H15B     HGA2     0.900000E-01   1.00800           0
     22369 MEMB     198      CHL1     C16      CRL2    -0.180000       12.0110           0
     22370 MEMB     198      CHL1     H16A     HGA2     0.900000E-01   1.00800           0
     22371 MEMB     198      CHL1     H16B     HGA2     0.900000E-01   1.00800           0
     22372 MEMB     198      CHL1     C17      CRL1    -0.900000E-01   12.0110           0
     22373 MEMB     198      CHL1     H17      HGA1     0.900000E-01   1.00800           0
     22374 MEMB     198      CHL1     C13      CRL1      0.00000       12.0110           0
     22375 MEMB     198      CHL1     C18      CTL3    -0.270000       12.0110           0
     22376 MEMB     198      CHL1     H18A     HAL3     0.900000E-01   1.00800           0
     22377 MEMB     198      CHL1     H18B     HAL3     0.900000E-01   1.00800           0
     22378 MEMB     198      CHL1     H18C     HAL3     0.900000E-01   1.00800           0
     22379 MEMB     198      CHL1     C12      CRL2    -0.180000       12.0110           0
     22380 MEMB     198      CHL1     H12A     HGA2     0.900000E-01   1.00800           0
     22381 MEMB     198      CHL1     H12B     HGA2     0.900000E-01   1.00800           0
     22382 MEMB     198      CHL1     C11      CRL2    -0.180000       12.0110           0
     22383 MEMB     198      CHL1     H11A     HGA2     0.900000E-01   1.00800           0
     22384 MEMB     198      CHL1     H11B     HGA2     0.900000E-01   1.00800           0
     22385 MEMB     198      CHL1     C9       CRL1    -0.900000E-01   12.0110           0
     22386 MEMB     198      CHL1     H9       HGA1     0.900000E-01   1.00800           0
     22387 MEMB     198      CHL1     C10      CRL1      0.00000       12.0110           0
     22388 MEMB     198      CHL1     C19      CTL3    -0.270000       12.0110           0
     22389 MEMB     198      CHL1     H19A     HAL3     0.900000E-01   1.00800           0
     22390 MEMB     198      CHL1     H19B     HAL3     0.900000E-01   1.00800           0
     22391 MEMB     198      CHL1     H19C     HAL3     0.900000E-01   1.00800           0
     22392 MEMB     198      CHL1     C1       CRL2    -0.180000       12.0110           0
     22393 MEMB     198      CHL1     H1A      HGA2     0.900000E-01   1.00800           0
     22394 MEMB     198      CHL1     H1B      HGA2     0.900000E-01   1.00800           0
     22395 MEMB     198      CHL1     C2       CRL2    -0.180000       12.0110           0
     22396 MEMB     198      CHL1     H2A      HGA2     0.900000E-01   1.00800           0
     22397 MEMB     198      CHL1     H2B      HGA2     0.900000E-01   1.00800           0
     22398 MEMB     198      CHL1     C20      CTL1    -0.900000E-01   12.0110           0
     22399 MEMB     198      CHL1     H20      HAL1     0.900000E-01   1.00800           0
     22400 MEMB     198      CHL1     C21      CTL3    -0.270000       12.0110           0
     22401 MEMB     198      CHL1     H21A     HAL3     0.900000E-01   1.00800           0
     22402 MEMB     198      CHL1     H21B     HAL3     0.900000E-01   1.00800           0
     22403 MEMB     198      CHL1     H21C     HAL3     0.900000E-01   1.00800           0
     22404 MEMB     198      CHL1     C22      CTL2    -0.180000       12.0110           0
     22405 MEMB     198      CHL1     H22A     HAL2     0.900000E-01   1.00800           0
     22406 MEMB     198      CHL1     H22B     HAL2     0.900000E-01   1.00800           0
     22407 MEMB     198      CHL1     C23      CTL2    -0.180000       12.0110           0
     22408 MEMB     198      CHL1     H23A     HAL2     0.900000E-01   1.00800           0
     22409 MEMB     198      CHL1     H23B     HAL2     0.900000E-01   1.00800           0
     22410 MEMB     198      CHL1     C24      CTL2    -0.180000       12.0110           0
     22411 MEMB     198      CHL1     H24A     HAL2     0.900000E-01   1.00800           0
     22412 MEMB     198      CHL1     H24B     HAL2     0.900000E-01   1.00800           0
     22413 MEMB     198      CHL1     C25      CTL1    -0.900000E-01   12.0110           0
     22414 MEMB     198      CHL1     H25      HAL1     0.900000E-01   1.00800           0
     22415 MEMB     198      CHL1     C26      CTL3    -0.270000       12.0110           0
     22416 MEMB     198      CHL1     H26A     HAL3     0.900000E-01   1.00800           0
     22417 MEMB     198      CHL1     H26B     HAL3     0.900000E-01   1.00800           0
     22418 MEMB     198      CHL1     H26C     HAL3     0.900000E-01   1.00800           0
     22419 MEMB     198      CHL1     C27      CTL3    -0.270000       12.0110           0
     22420 MEMB     198      CHL1     H27A     HAL3     0.900000E-01   1.00800           0
     22421 MEMB     198      CHL1     H27B     HAL3     0.900000E-01   1.00800           0
     22422 MEMB     198      CHL1     H27C     HAL3     0.900000E-01   1.00800           0
     22423 MEMB     199      CHL1     C3       CRL1     0.140000       12.0110           0
     22424 MEMB     199      CHL1     H3       HGA1     0.900000E-01   1.00800           0
     22425 MEMB     199      CHL1     O3       OHL     -0.660000       15.9994           0
     22426 MEMB     199      CHL1     H3'      HOL      0.430000       1.00800           0
     22427 MEMB     199      CHL1     C4       CRL2    -0.180000       12.0110           0
     22428 MEMB     199      CHL1     H4A      HGA2     0.900000E-01   1.00800           0
     22429 MEMB     199      CHL1     H4B      HGA2     0.900000E-01   1.00800           0
     22430 MEMB     199      CHL1     C5       CEL1      0.00000       12.0110           0
     22431 MEMB     199      CHL1     C6       CEL1    -0.150000       12.0110           0
     22432 MEMB     199      CHL1     H6       HEL1     0.150000       1.00800           0
     22433 MEMB     199      CHL1     C7       CRL2    -0.180000       12.0110           0
     22434 MEMB     199      CHL1     H7A      HGA2     0.900000E-01   1.00800           0
     22435 MEMB     199      CHL1     H7B      HGA2     0.900000E-01   1.00800           0
     22436 MEMB     199      CHL1     C8       CRL1    -0.900000E-01   12.0110           0
     22437 MEMB     199      CHL1     H8       HGA1     0.900000E-01   1.00800           0
     22438 MEMB     199      CHL1     C14      CRL1    -0.900000E-01   12.0110           0
     22439 MEMB     199      CHL1     H14      HGA1     0.900000E-01   1.00800           0
     22440 MEMB     199      CHL1     C15      CRL2    -0.180000       12.0110           0
     22441 MEMB     199      CHL1     H15A     HGA2     0.900000E-01   1.00800           0
     22442 MEMB     199      CHL1     H15B     HGA2     0.900000E-01   1.00800           0
     22443 MEMB     199      CHL1     C16      CRL2    -0.180000       12.0110           0
     22444 MEMB     199      CHL1     H16A     HGA2     0.900000E-01   1.00800           0
     22445 MEMB     199      CHL1     H16B     HGA2     0.900000E-01   1.00800           0
     22446 MEMB     199      CHL1     C17      CRL1    -0.900000E-01   12.0110           0
     22447 MEMB     199      CHL1     H17      HGA1     0.900000E-01   1.00800           0
     22448 MEMB     199      CHL1     C13      CRL1      0.00000       12.0110           0
     22449 MEMB     199      CHL1     C18      CTL3    -0.270000       12.0110           0
     22450 MEMB     199      CHL1     H18A     HAL3     0.900000E-01   1.00800           0
     22451 MEMB     199      CHL1     H18B     HAL3     0.900000E-01   1.00800           0
     22452 MEMB     199      CHL1     H18C     HAL3     0.900000E-01   1.00800           0
     22453 MEMB     199      CHL1     C12      CRL2    -0.180000       12.0110           0
     22454 MEMB     199      CHL1     H12A     HGA2     0.900000E-01   1.00800           0
     22455 MEMB     199      CHL1     H12B     HGA2     0.900000E-01   1.00800           0
     22456 MEMB     199      CHL1     C11      CRL2    -0.180000       12.0110           0
     22457 MEMB     199      CHL1     H11A     HGA2     0.900000E-01   1.00800           0
     22458 MEMB     199      CHL1     H11B     HGA2     0.900000E-01   1.00800           0
     22459 MEMB     199      CHL1     C9       CRL1    -0.900000E-01   12.0110           0
     22460 MEMB     199      CHL1     H9       HGA1     0.900000E-01   1.00800           0
     22461 MEMB     199      CHL1     C10      CRL1      0.00000       12.0110           0
     22462 MEMB     199      CHL1     C19      CTL3    -0.270000       12.0110           0
     22463 MEMB     199      CHL1     H19A     HAL3     0.900000E-01   1.00800           0
     22464 MEMB     199      CHL1     H19B     HAL3     0.900000E-01   1.00800           0
     22465 MEMB     199      CHL1     H19C     HAL3     0.900000E-01   1.00800           0
     22466 MEMB     199      CHL1     C1       CRL2    -0.180000       12.0110           0
     22467 MEMB     199      CHL1     H1A      HGA2     0.900000E-01   1.00800           0
     22468 MEMB     199      CHL1     H1B      HGA2     0.900000E-01   1.00800           0
     22469 MEMB     199      CHL1     C2       CRL2    -0.180000       12.0110           0
     22470 MEMB     199      CHL1     H2A      HGA2     0.900000E-01   1.00800           0
     22471 MEMB     199      CHL1     H2B      HGA2     0.900000E-01   1.00800           0
     22472 MEMB     199      CHL1     C20      CTL1    -0.900000E-01   12.0110           0
     22473 MEMB     199      CHL1     H20      HAL1     0.900000E-01   1.00800           0
     22474 MEMB     199      CHL1     C21      CTL3    -0.270000       12.0110           0
     22475 MEMB     199      CHL1     H21A     HAL3     0.900000E-01   1.00800           0
     22476 MEMB     199      CHL1     H21B     HAL3     0.900000E-01   1.00800           0
     22477 MEMB     199      CHL1     H21C     HAL3     0.900000E-01   1.00800           0
     22478 MEMB     199      CHL1     C22      CTL2    -0.180000       12.0110           0
     22479 MEMB     199      CHL1     H22A     HAL2     0.900000E-01   1.00800           0
     22480 MEMB     199      CHL1     H22B     HAL2     0.900000E-01   1.00800           0
     22481 MEMB     199      CHL1     C23      CTL2    -0.180000       12.0110           0
     22482 MEMB     199      CHL1     H23A     HAL2     0.900000E-01   1.00800           0
     22483 MEMB     199      CHL1     H23B     HAL2     0.900000E-01   1.00800           0
     22484 MEMB     199      CHL1     C24      CTL2    -0.180000       12.0110           0
     22485 MEMB     199      CHL1     H24A     HAL2     0.900000E-01   1.00800           0
     22486 MEMB     199      CHL1     H24B     HAL2     0.900000E-01   1.00800           0
     22487 MEMB     199      CHL1     C25      CTL1    -0.900000E-01   12.0110           0
     22488 MEMB     199      CHL1     H25      HAL1     0.900000E-01   1.00800           0
     22489 MEMB     199      CHL1     C26      CTL3    -0.270000       12.0110           0
     22490 MEMB     199      CHL1     H26A     HAL3     0.900000E-01   1.00800           0
     22491 MEMB     199      CHL1     H26B     HAL3     0.900000E-01   1.00800           0
     22492 MEMB     199      CHL1     H26C     HAL3     0.900000E-01   1.00800           0
     22493 MEMB     199      CHL1     C27      CTL3    -0.270000       12.0110           0
     22494 MEMB     199      CHL1     H27A     HAL3     0.900000E-01   1.00800           0
     22495 MEMB     199      CHL1     H27B     HAL3     0.900000E-01   1.00800           0
     22496 MEMB     199      CHL1     H27C     HAL3     0.900000E-01   1.00800           0
     22497 MEMB     200      CHL1     C3       CRL1     0.140000       12.0110           0
     22498 MEMB     200      CHL1     H3       HGA1     0.900000E-01   1.00800           0
     22499 MEMB     200      CHL1     O3       OHL     -0.660000       15.9994           0
     22500 MEMB     200      CHL1     H3'      HOL      0.430000       1.00800           0
     22501 MEMB     200      CHL1     C4       CRL2    -0.180000       12.0110           0
     22502 MEMB     200      CHL1     H4A      HGA2     0.900000E-01   1.00800           0
     22503 MEMB     200      CHL1     H4B      HGA2     0.900000E-01   1.00800           0
     22504 MEMB     200      CHL1     C5       CEL1      0.00000       12.0110           0
     22505 MEMB     200      CHL1     C6       CEL1    -0.150000       12.0110           0
     22506 MEMB     200      CHL1     H6       HEL1     0.150000       1.00800           0
     22507 MEMB     200      CHL1     C7       CRL2    -0.180000       12.0110           0
     22508 MEMB     200      CHL1     H7A      HGA2     0.900000E-01   1.00800           0
     22509 MEMB     200      CHL1     H7B      HGA2     0.900000E-01   1.00800           0
     22510 MEMB     200      CHL1     C8       CRL1    -0.900000E-01   12.0110           0
     22511 MEMB     200      CHL1     H8       HGA1     0.900000E-01   1.00800           0
     22512 MEMB     200      CHL1     C14      CRL1    -0.900000E-01   12.0110           0
     22513 MEMB     200      CHL1     H14      HGA1     0.900000E-01   1.00800           0
     22514 MEMB     200      CHL1     C15      CRL2    -0.180000       12.0110           0
     22515 MEMB     200      CHL1     H15A     HGA2     0.900000E-01   1.00800           0
     22516 MEMB     200      CHL1     H15B     HGA2     0.900000E-01   1.00800           0
     22517 MEMB     200      CHL1     C16      CRL2    -0.180000       12.0110           0
     22518 MEMB     200      CHL1     H16A     HGA2     0.900000E-01   1.00800           0
     22519 MEMB     200      CHL1     H16B     HGA2     0.900000E-01   1.00800           0
     22520 MEMB     200      CHL1     C17      CRL1    -0.900000E-01   12.0110           0
     22521 MEMB     200      CHL1     H17      HGA1     0.900000E-01   1.00800           0
     22522 MEMB     200      CHL1     C13      CRL1      0.00000       12.0110           0
     22523 MEMB     200      CHL1     C18      CTL3    -0.270000       12.0110           0
     22524 MEMB     200      CHL1     H18A     HAL3     0.900000E-01   1.00800           0
     22525 MEMB     200      CHL1     H18B     HAL3     0.900000E-01   1.00800           0
     22526 MEMB     200      CHL1     H18C     HAL3     0.900000E-01   1.00800           0
     22527 MEMB     200      CHL1     C12      CRL2    -0.180000       12.0110           0
     22528 MEMB     200      CHL1     H12A     HGA2     0.900000E-01   1.00800           0
     22529 MEMB     200      CHL1     H12B     HGA2     0.900000E-01   1.00800           0
     22530 MEMB     200      CHL1     C11      CRL2    -0.180000       12.0110           0
     22531 MEMB     200      CHL1     H11A     HGA2     0.900000E-01   1.00800           0
     22532 MEMB     200      CHL1     H11B     HGA2     0.900000E-01   1.00800           0
     22533 MEMB     200      CHL1     C9       CRL1    -0.900000E-01   12.0110           0
     22534 MEMB     200      CHL1     H9       HGA1     0.900000E-01   1.00800           0
     22535 MEMB     200      CHL1     C10      CRL1      0.00000       12.0110           0
     22536 MEMB     200      CHL1     C19      CTL3    -0.270000       12.0110           0
     22537 MEMB     200      CHL1     H19A     HAL3     0.900000E-01   1.00800           0
     22538 MEMB     200      CHL1     H19B     HAL3     0.900000E-01   1.00800           0
     22539 MEMB     200      CHL1     H19C     HAL3     0.900000E-01   1.00800           0
     22540 MEMB     200      CHL1     C1       CRL2    -0.180000       12.0110           0
     22541 MEMB     200      CHL1     H1A      HGA2     0.900000E-01   1.00800           0
     22542 MEMB     200      CHL1     H1B      HGA2     0.900000E-01   1.00800           0
     22543 MEMB     200      CHL1     C2       CRL2    -0.180000       12.0110           0
     22544 MEMB     200      CHL1     H2A      HGA2     0.900000E-01   1.00800           0
     22545 MEMB     200      CHL1     H2B      HGA2     0.900000E-01   1.00800           0
     22546 MEMB     200      CHL1     C20      CTL1    -0.900000E-01   12.0110           0
     22547 MEMB     200      CHL1     H20      HAL1     0.900000E-01   1.00800           0
     22548 MEMB     200      CHL1     C21      CTL3    -0.270000       12.0110           0
     22549 MEMB     200      CHL1     H21A     HAL3     0.900000E-01   1.00800           0
     22550 MEMB     200      CHL1     H21B     HAL3     0.900000E-01   1.00800           0
     22551 MEMB     200      CHL1     H21C     HAL3     0.900000E-01   1.00800           0
     22552 MEMB     200      CHL1     C22      CTL2    -0.180000       12.0110           0
     22553 MEMB     200      CHL1     H22A     HAL2     0.900000E-01   1.00800           0
     22554 MEMB     200      CHL1     H22B     HAL2     0.900000E-01   1.00800           0
     22555 MEMB     200      CHL1     C23      CTL2    -0.180000       12.0110           0
     22556 MEMB     200      CHL1     H23A     HAL2     0.900000E-01   1.00800           0
     22557 MEMB     200      CHL1     H23B     HAL2     0.900000E-01   1.00800           0
     22558 MEMB     200      CHL1     C24      CTL2    -0.180000       12.0110           0
     22559 MEMB     200      CHL1     H24A     HAL2     0.900000E-01   1.00800           0
     22560 MEMB     200      CHL1     H24B     HAL2     0.900000E-01   1.00800           0
     22561 MEMB     200      CHL1     C25      CTL1    -0.900000E-01   12.0110           0
     22562 MEMB     200      CHL1     H25      HAL1     0.900000E-01   1.00800           0
     22563 MEMB     200      CHL1     C26      CTL3    -0.270000       12.0110           0
     22564 MEMB     200      CHL1     H26A     HAL3     0.900000E-01   1.00800           0
     22565 MEMB     200      CHL1     H26B     HAL3     0.900000E-01   1.00800           0
     22566 MEMB     200      CHL1     H26C     HAL3     0.900000E-01   1.00800           0
     22567 MEMB     200      CHL1     C27      CTL3    -0.270000       12.0110           0
     22568 MEMB     200      CHL1     H27A     HAL3     0.900000E-01   1.00800           0
     22569 MEMB     200      CHL1     H27B     HAL3     0.900000E-01   1.00800           0
     22570 MEMB     200      CHL1     H27C     HAL3     0.900000E-01   1.00800           0
     22571 MEMB     201      CHL1     C3       CRL1     0.140000       12.0110           0
     22572 MEMB     201      CHL1     H3       HGA1     0.900000E-01   1.00800           0
     22573 MEMB     201      CHL1     O3       OHL     -0.660000       15.9994           0
     22574 MEMB     201      CHL1     H3'      HOL      0.430000       1.00800           0
     22575 MEMB     201      CHL1     C4       CRL2    -0.180000       12.0110           0
     22576 MEMB     201      CHL1     H4A      HGA2     0.900000E-01   1.00800           0
     22577 MEMB     201      CHL1     H4B      HGA2     0.900000E-01   1.00800           0
     22578 MEMB     201      CHL1     C5       CEL1      0.00000       12.0110           0
     22579 MEMB     201      CHL1     C6       CEL1    -0.150000       12.0110           0
     22580 MEMB     201      CHL1     H6       HEL1     0.150000       1.00800           0
     22581 MEMB     201      CHL1     C7       CRL2    -0.180000       12.0110           0
     22582 MEMB     201      CHL1     H7A      HGA2     0.900000E-01   1.00800           0
     22583 MEMB     201      CHL1     H7B      HGA2     0.900000E-01   1.00800           0
     22584 MEMB     201      CHL1     C8       CRL1    -0.900000E-01   12.0110           0
     22585 MEMB     201      CHL1     H8       HGA1     0.900000E-01   1.00800           0
     22586 MEMB     201      CHL1     C14      CRL1    -0.900000E-01   12.0110           0
     22587 MEMB     201      CHL1     H14      HGA1     0.900000E-01   1.00800           0
     22588 MEMB     201      CHL1     C15      CRL2    -0.180000       12.0110           0
     22589 MEMB     201      CHL1     H15A     HGA2     0.900000E-01   1.00800           0
     22590 MEMB     201      CHL1     H15B     HGA2     0.900000E-01   1.00800           0
     22591 MEMB     201      CHL1     C16      CRL2    -0.180000       12.0110           0
     22592 MEMB     201      CHL1     H16A     HGA2     0.900000E-01   1.00800           0
     22593 MEMB     201      CHL1     H16B     HGA2     0.900000E-01   1.00800           0
     22594 MEMB     201      CHL1     C17      CRL1    -0.900000E-01   12.0110           0
     22595 MEMB     201      CHL1     H17      HGA1     0.900000E-01   1.00800           0
     22596 MEMB     201      CHL1     C13      CRL1      0.00000       12.0110           0
     22597 MEMB     201      CHL1     C18      CTL3    -0.270000       12.0110           0
     22598 MEMB     201      CHL1     H18A     HAL3     0.900000E-01   1.00800           0
     22599 MEMB     201      CHL1     H18B     HAL3     0.900000E-01   1.00800           0
     22600 MEMB     201      CHL1     H18C     HAL3     0.900000E-01   1.00800           0
     22601 MEMB     201      CHL1     C12      CRL2    -0.180000       12.0110           0
     22602 MEMB     201      CHL1     H12A     HGA2     0.900000E-01   1.00800           0
     22603 MEMB     201      CHL1     H12B     HGA2     0.900000E-01   1.00800           0
     22604 MEMB     201      CHL1     C11      CRL2    -0.180000       12.0110           0
     22605 MEMB     201      CHL1     H11A     HGA2     0.900000E-01   1.00800           0
     22606 MEMB     201      CHL1     H11B     HGA2     0.900000E-01   1.00800           0
     22607 MEMB     201      CHL1     C9       CRL1    -0.900000E-01   12.0110           0
     22608 MEMB     201      CHL1     H9       HGA1     0.900000E-01   1.00800           0
     22609 MEMB     201      CHL1     C10      CRL1      0.00000       12.0110           0
     22610 MEMB     201      CHL1     C19      CTL3    -0.270000       12.0110           0
     22611 MEMB     201      CHL1     H19A     HAL3     0.900000E-01   1.00800           0
     22612 MEMB     201      CHL1     H19B     HAL3     0.900000E-01   1.00800           0
     22613 MEMB     201      CHL1     H19C     HAL3     0.900000E-01   1.00800           0
     22614 MEMB     201      CHL1     C1       CRL2    -0.180000       12.0110           0
     22615 MEMB     201      CHL1     H1A      HGA2     0.900000E-01   1.00800           0
     22616 MEMB     201      CHL1     H1B      HGA2     0.900000E-01   1.00800           0
     22617 MEMB     201      CHL1     C2       CRL2    -0.180000       12.0110           0
     22618 MEMB     201      CHL1     H2A      HGA2     0.900000E-01   1.00800           0
     22619 MEMB     201      CHL1     H2B      HGA2     0.900000E-01   1.00800           0
     22620 MEMB     201      CHL1     C20      CTL1    -0.900000E-01   12.0110           0
     22621 MEMB     201      CHL1     H20      HAL1     0.900000E-01   1.00800           0
     22622 MEMB     201      CHL1     C21      CTL3    -0.270000       12.0110           0
     22623 MEMB     201      CHL1     H21A     HAL3     0.900000E-01   1.00800           0
     22624 MEMB     201      CHL1     H21B     HAL3     0.900000E-01   1.00800           0
     22625 MEMB     201      CHL1     H21C     HAL3     0.900000E-01   1.00800           0
     22626 MEMB     201      CHL1     C22      CTL2    -0.180000       12.0110           0
     22627 MEMB     201      CHL1     H22A     HAL2     0.900000E-01   1.00800           0
     22628 MEMB     201      CHL1     H22B     HAL2     0.900000E-01   1.00800           0
     22629 MEMB     201      CHL1     C23      CTL2    -0.180000       12.0110           0
     22630 MEMB     201      CHL1     H23A     HAL2     0.900000E-01   1.00800           0
     22631 MEMB     201      CHL1     H23B     HAL2     0.900000E-01   1.00800           0
     22632 MEMB     201      CHL1     C24      CTL2    -0.180000       12.0110           0
     22633 MEMB     201      CHL1     H24A     HAL2     0.900000E-01   1.00800           0
     22634 MEMB     201      CHL1     H24B     HAL2     0.900000E-01   1.00800           0
     22635 MEMB     201      CHL1     C25      CTL1    -0.900000E-01   12.0110           0
     22636 MEMB     201      CHL1     H25      HAL1     0.900000E-01   1.00800           0
     22637 MEMB     201      CHL1     C26      CTL3    -0.270000       12.0110           0
     22638 MEMB     201      CHL1     H26A     HAL3     0.900000E-01   1.00800           0
     22639 MEMB     201      CHL1     H26B     HAL3     0.900000E-01   1.00800           0
     22640 MEMB     201      CHL1     H26C     HAL3     0.900000E-01   1.00800           0
     22641 MEMB     201      CHL1     C27      CTL3    -0.270000       12.0110           0
     22642 MEMB     201      CHL1     H27A     HAL3     0.900000E-01   1.00800           0
     22643 MEMB     201      CHL1     H27B     HAL3     0.900000E-01   1.00800           0
     22644 MEMB     201      CHL1     H27C     HAL3     0.900000E-01   1.00800           0
     22645 MEMB     202      CHL1     C3       CRL1     0.140000       12.0110           0
     22646 MEMB     202      CHL1     H3       HGA1     0.900000E-01   1.00800           0
     22647 MEMB     202      CHL1     O3       OHL     -0.660000       15.9994           0
     22648 MEMB     202      CHL1     H3'      HOL      0.430000       1.00800           0
     22649 MEMB     202      CHL1     C4       CRL2    -0.180000       12.0110           0
     22650 MEMB     202      CHL1     H4A      HGA2     0.900000E-01   1.00800           0
     22651 MEMB     202      CHL1     H4B      HGA2     0.900000E-01   1.00800           0
     22652 MEMB     202      CHL1     C5       CEL1      0.00000       12.0110           0
     22653 MEMB     202      CHL1     C6       CEL1    -0.150000       12.0110           0
     22654 MEMB     202      CHL1     H6       HEL1     0.150000       1.00800           0
     22655 MEMB     202      CHL1     C7       CRL2    -0.180000       12.0110           0
     22656 MEMB     202      CHL1     H7A      HGA2     0.900000E-01   1.00800           0
     22657 MEMB     202      CHL1     H7B      HGA2     0.900000E-01   1.00800           0
     22658 MEMB     202      CHL1     C8       CRL1    -0.900000E-01   12.0110           0
     22659 MEMB     202      CHL1     H8       HGA1     0.900000E-01   1.00800           0
     22660 MEMB     202      CHL1     C14      CRL1    -0.900000E-01   12.0110           0
     22661 MEMB     202      CHL1     H14      HGA1     0.900000E-01   1.00800           0
     22662 MEMB     202      CHL1     C15      CRL2    -0.180000       12.0110           0
     22663 MEMB     202      CHL1     H15A     HGA2     0.900000E-01   1.00800           0
     22664 MEMB     202      CHL1     H15B     HGA2     0.900000E-01   1.00800           0
     22665 MEMB     202      CHL1     C16      CRL2    -0.180000       12.0110           0
     22666 MEMB     202      CHL1     H16A     HGA2     0.900000E-01   1.00800           0
     22667 MEMB     202      CHL1     H16B     HGA2     0.900000E-01   1.00800           0
     22668 MEMB     202      CHL1     C17      CRL1    -0.900000E-01   12.0110           0
     22669 MEMB     202      CHL1     H17      HGA1     0.900000E-01   1.00800           0
     22670 MEMB     202      CHL1     C13      CRL1      0.00000       12.0110           0
     22671 MEMB     202      CHL1     C18      CTL3    -0.270000       12.0110           0
     22672 MEMB     202      CHL1     H18A     HAL3     0.900000E-01   1.00800           0
     22673 MEMB     202      CHL1     H18B     HAL3     0.900000E-01   1.00800           0
     22674 MEMB     202      CHL1     H18C     HAL3     0.900000E-01   1.00800           0
     22675 MEMB     202      CHL1     C12      CRL2    -0.180000       12.0110           0
     22676 MEMB     202      CHL1     H12A     HGA2     0.900000E-01   1.00800           0
     22677 MEMB     202      CHL1     H12B     HGA2     0.900000E-01   1.00800           0
     22678 MEMB     202      CHL1     C11      CRL2    -0.180000       12.0110           0
     22679 MEMB     202      CHL1     H11A     HGA2     0.900000E-01   1.00800           0
     22680 MEMB     202      CHL1     H11B     HGA2     0.900000E-01   1.00800           0
     22681 MEMB     202      CHL1     C9       CRL1    -0.900000E-01   12.0110           0
     22682 MEMB     202      CHL1     H9       HGA1     0.900000E-01   1.00800           0
     22683 MEMB     202      CHL1     C10      CRL1      0.00000       12.0110           0
     22684 MEMB     202      CHL1     C19      CTL3    -0.270000       12.0110           0
     22685 MEMB     202      CHL1     H19A     HAL3     0.900000E-01   1.00800           0
     22686 MEMB     202      CHL1     H19B     HAL3     0.900000E-01   1.00800           0
     22687 MEMB     202      CHL1     H19C     HAL3     0.900000E-01   1.00800           0
     22688 MEMB     202      CHL1     C1       CRL2    -0.180000       12.0110           0
     22689 MEMB     202      CHL1     H1A      HGA2     0.900000E-01   1.00800           0
     22690 MEMB     202      CHL1     H1B      HGA2     0.900000E-01   1.00800           0
     22691 MEMB     202      CHL1     C2       CRL2    -0.180000       12.0110           0
     22692 MEMB     202      CHL1     H2A      HGA2     0.900000E-01   1.00800           0
     22693 MEMB     202      CHL1     H2B      HGA2     0.900000E-01   1.00800           0
     22694 MEMB     202      CHL1     C20      CTL1    -0.900000E-01   12.0110           0
     22695 MEMB     202      CHL1     H20      HAL1     0.900000E-01   1.00800           0
     22696 MEMB     202      CHL1     C21      CTL3    -0.270000       12.0110           0
     22697 MEMB     202      CHL1     H21A     HAL3     0.900000E-01   1.00800           0
     22698 MEMB     202      CHL1     H21B     HAL3     0.900000E-01   1.00800           0
     22699 MEMB     202      CHL1     H21C     HAL3     0.900000E-01   1.00800           0
     22700 MEMB     202      CHL1     C22      CTL2    -0.180000       12.0110           0
     22701 MEMB     202      CHL1     H22A     HAL2     0.900000E-01   1.00800           0
     22702 MEMB     202      CHL1     H22B     HAL2     0.900000E-01   1.00800           0
     22703 MEMB     202      CHL1     C23      CTL2    -0.180000       12.0110           0
     22704 MEMB     202      CHL1     H23A     HAL2     0.900000E-01   1.00800           0
     22705 MEMB     202      CHL1     H23B     HAL2     0.900000E-01   1.00800           0
     22706 MEMB     202      CHL1     C24      CTL2    -0.180000       12.0110           0
     22707 MEMB     202      CHL1     H24A     HAL2     0.900000E-01   1.00800           0
     22708 MEMB     202      CHL1     H24B     HAL2     0.900000E-01   1.00800           0
     22709 MEMB     202      CHL1     C25      CTL1    -0.900000E-01   12.0110           0
     22710 MEMB     202      CHL1     H25      HAL1     0.900000E-01   1.00800           0
     22711 MEMB     202      CHL1     C26      CTL3    -0.270000       12.0110           0
     22712 MEMB     202      CHL1     H26A     HAL3     0.900000E-01   1.00800           0
     22713 MEMB     202      CHL1     H26B     HAL3     0.900000E-01   1.00800           0
     22714 MEMB     202      CHL1     H26C     HAL3     0.900000E-01   1.00800           0
     22715 MEMB     202      CHL1     C27      CTL3    -0.270000       12.0110           0
     22716 MEMB     202      CHL1     H27A     HAL3     0.900000E-01   1.00800           0
     22717 MEMB     202      CHL1     H27B     HAL3     0.900000E-01   1.00800           0
     22718 MEMB     202      CHL1     H27C     HAL3     0.900000E-01   1.00800           0
     22719 MEMB     203      CHL1     C3       CRL1     0.140000       12.0110           0
     22720 MEMB     203      CHL1     H3       HGA1     0.900000E-01   1.00800           0
     22721 MEMB     203      CHL1     O3       OHL     -0.660000       15.9994           0
     22722 MEMB     203      CHL1     H3'      HOL      0.430000       1.00800           0
     22723 MEMB     203      CHL1     C4       CRL2    -0.180000       12.0110           0
     22724 MEMB     203      CHL1     H4A      HGA2     0.900000E-01   1.00800           0
     22725 MEMB     203      CHL1     H4B      HGA2     0.900000E-01   1.00800           0
     22726 MEMB     203      CHL1     C5       CEL1      0.00000       12.0110           0
     22727 MEMB     203      CHL1     C6       CEL1    -0.150000       12.0110           0
     22728 MEMB     203      CHL1     H6       HEL1     0.150000       1.00800           0
     22729 MEMB     203      CHL1     C7       CRL2    -0.180000       12.0110           0
     22730 MEMB     203      CHL1     H7A      HGA2     0.900000E-01   1.00800           0
     22731 MEMB     203      CHL1     H7B      HGA2     0.900000E-01   1.00800           0
     22732 MEMB     203      CHL1     C8       CRL1    -0.900000E-01   12.0110           0
     22733 MEMB     203      CHL1     H8       HGA1     0.900000E-01   1.00800           0
     22734 MEMB     203      CHL1     C14      CRL1    -0.900000E-01   12.0110           0
     22735 MEMB     203      CHL1     H14      HGA1     0.900000E-01   1.00800           0
     22736 MEMB     203      CHL1     C15      CRL2    -0.180000       12.0110           0
     22737 MEMB     203      CHL1     H15A     HGA2     0.900000E-01   1.00800           0
     22738 MEMB     203      CHL1     H15B     HGA2     0.900000E-01   1.00800           0
     22739 MEMB     203      CHL1     C16      CRL2    -0.180000       12.0110           0
     22740 MEMB     203      CHL1     H16A     HGA2     0.900000E-01   1.00800           0
     22741 MEMB     203      CHL1     H16B     HGA2     0.900000E-01   1.00800           0
     22742 MEMB     203      CHL1     C17      CRL1    -0.900000E-01   12.0110           0
     22743 MEMB     203      CHL1     H17      HGA1     0.900000E-01   1.00800           0
     22744 MEMB     203      CHL1     C13      CRL1      0.00000       12.0110           0
     22745 MEMB     203      CHL1     C18      CTL3    -0.270000       12.0110           0
     22746 MEMB     203      CHL1     H18A     HAL3     0.900000E-01   1.00800           0
     22747 MEMB     203      CHL1     H18B     HAL3     0.900000E-01   1.00800           0
     22748 MEMB     203      CHL1     H18C     HAL3     0.900000E-01   1.00800           0
     22749 MEMB     203      CHL1     C12      CRL2    -0.180000       12.0110           0
     22750 MEMB     203      CHL1     H12A     HGA2     0.900000E-01   1.00800           0
     22751 MEMB     203      CHL1     H12B     HGA2     0.900000E-01   1.00800           0
     22752 MEMB     203      CHL1     C11      CRL2    -0.180000       12.0110           0
     22753 MEMB     203      CHL1     H11A     HGA2     0.900000E-01   1.00800           0
     22754 MEMB     203      CHL1     H11B     HGA2     0.900000E-01   1.00800           0
     22755 MEMB     203      CHL1     C9       CRL1    -0.900000E-01   12.0110           0
     22756 MEMB     203      CHL1     H9       HGA1     0.900000E-01   1.00800           0
     22757 MEMB     203      CHL1     C10      CRL1      0.00000       12.0110           0
     22758 MEMB     203      CHL1     C19      CTL3    -0.270000       12.0110           0
     22759 MEMB     203      CHL1     H19A     HAL3     0.900000E-01   1.00800           0
     22760 MEMB     203      CHL1     H19B     HAL3     0.900000E-01   1.00800           0
     22761 MEMB     203      CHL1     H19C     HAL3     0.900000E-01   1.00800           0
     22762 MEMB     203      CHL1     C1       CRL2    -0.180000       12.0110           0
     22763 MEMB     203      CHL1     H1A      HGA2     0.900000E-01   1.00800           0
     22764 MEMB     203      CHL1     H1B      HGA2     0.900000E-01   1.00800           0
     22765 MEMB     203      CHL1     C2       CRL2    -0.180000       12.0110           0
     22766 MEMB     203      CHL1     H2A      HGA2     0.900000E-01   1.00800           0
     22767 MEMB     203      CHL1     H2B      HGA2     0.900000E-01   1.00800           0
     22768 MEMB     203      CHL1     C20      CTL1    -0.900000E-01   12.0110           0
     22769 MEMB     203      CHL1     H20      HAL1     0.900000E-01   1.00800           0
     22770 MEMB     203      CHL1     C21      CTL3    -0.270000       12.0110           0
     22771 MEMB     203      CHL1     H21A     HAL3     0.900000E-01   1.00800           0
     22772 MEMB     203      CHL1     H21B     HAL3     0.900000E-01   1.00800           0
     22773 MEMB     203      CHL1     H21C     HAL3     0.900000E-01   1.00800           0
     22774 MEMB     203      CHL1     C22      CTL2    -0.180000       12.0110           0
     22775 MEMB     203      CHL1     H22A     HAL2     0.900000E-01   1.00800           0
     22776 MEMB     203      CHL1     H22B     HAL2     0.900000E-01   1.00800           0
     22777 MEMB     203      CHL1     C23      CTL2    -0.180000       12.0110           0
     22778 MEMB     203      CHL1     H23A     HAL2     0.900000E-01   1.00800           0
     22779 MEMB     203      CHL1     H23B     HAL2     0.900000E-01   1.00800           0
     22780 MEMB     203      CHL1     C24      CTL2    -0.180000       12.0110           0
     22781 MEMB     203      CHL1     H24A     HAL2     0.900000E-01   1.00800           0
     22782 MEMB     203      CHL1     H24B     HAL2     0.900000E-01   1.00800           0
     22783 MEMB     203      CHL1     C25      CTL1    -0.900000E-01   12.0110           0
     22784 MEMB     203      CHL1     H25      HAL1     0.900000E-01   1.00800           0
     22785 MEMB     203      CHL1     C26      CTL3    -0.270000       12.0110           0
     22786 MEMB     203      CHL1     H26A     HAL3     0.900000E-01   1.00800           0
     22787 MEMB     203      CHL1     H26B     HAL3     0.900000E-01   1.00800           0
     22788 MEMB     203      CHL1     H26C     HAL3     0.900000E-01   1.00800           0
     22789 MEMB     203      CHL1     C27      CTL3    -0.270000       12.0110           0
     22790 MEMB     203      CHL1     H27A     HAL3     0.900000E-01   1.00800           0
     22791 MEMB     203      CHL1     H27B     HAL3     0.900000E-01   1.00800           0
     22792 MEMB     203      CHL1     H27C     HAL3     0.900000E-01   1.00800           0
     22793 MEMB     204      CHL1     C3       CRL1     0.140000       12.0110           0
     22794 MEMB     204      CHL1     H3       HGA1     0.900000E-01   1.00800           0
     22795 MEMB     204      CHL1     O3       OHL     -0.660000       15.9994           0
     22796 MEMB     204      CHL1     H3'      HOL      0.430000       1.00800           0
     22797 MEMB     204      CHL1     C4       CRL2    -0.180000       12.0110           0
     22798 MEMB     204      CHL1     H4A      HGA2     0.900000E-01   1.00800           0
     22799 MEMB     204      CHL1     H4B      HGA2     0.900000E-01   1.00800           0
     22800 MEMB     204      CHL1     C5       CEL1      0.00000       12.0110           0
     22801 MEMB     204      CHL1     C6       CEL1    -0.150000       12.0110           0
     22802 MEMB     204      CHL1     H6       HEL1     0.150000       1.00800           0
     22803 MEMB     204      CHL1     C7       CRL2    -0.180000       12.0110           0
     22804 MEMB     204      CHL1     H7A      HGA2     0.900000E-01   1.00800           0
     22805 MEMB     204      CHL1     H7B      HGA2     0.900000E-01   1.00800           0
     22806 MEMB     204      CHL1     C8       CRL1    -0.900000E-01   12.0110           0
     22807 MEMB     204      CHL1     H8       HGA1     0.900000E-01   1.00800           0
     22808 MEMB     204      CHL1     C14      CRL1    -0.900000E-01   12.0110           0
     22809 MEMB     204      CHL1     H14      HGA1     0.900000E-01   1.00800           0
     22810 MEMB     204      CHL1     C15      CRL2    -0.180000       12.0110           0
     22811 MEMB     204      CHL1     H15A     HGA2     0.900000E-01   1.00800           0
     22812 MEMB     204      CHL1     H15B     HGA2     0.900000E-01   1.00800           0
     22813 MEMB     204      CHL1     C16      CRL2    -0.180000       12.0110           0
     22814 MEMB     204      CHL1     H16A     HGA2     0.900000E-01   1.00800           0
     22815 MEMB     204      CHL1     H16B     HGA2     0.900000E-01   1.00800           0
     22816 MEMB     204      CHL1     C17      CRL1    -0.900000E-01   12.0110           0
     22817 MEMB     204      CHL1     H17      HGA1     0.900000E-01   1.00800           0
     22818 MEMB     204      CHL1     C13      CRL1      0.00000       12.0110           0
     22819 MEMB     204      CHL1     C18      CTL3    -0.270000       12.0110           0
     22820 MEMB     204      CHL1     H18A     HAL3     0.900000E-01   1.00800           0
     22821 MEMB     204      CHL1     H18B     HAL3     0.900000E-01   1.00800           0
     22822 MEMB     204      CHL1     H18C     HAL3     0.900000E-01   1.00800           0
     22823 MEMB     204      CHL1     C12      CRL2    -0.180000       12.0110           0
     22824 MEMB     204      CHL1     H12A     HGA2     0.900000E-01   1.00800           0
     22825 MEMB     204      CHL1     H12B     HGA2     0.900000E-01   1.00800           0
     22826 MEMB     204      CHL1     C11      CRL2    -0.180000       12.0110           0
     22827 MEMB     204      CHL1     H11A     HGA2     0.900000E-01   1.00800           0
     22828 MEMB     204      CHL1     H11B     HGA2     0.900000E-01   1.00800           0
     22829 MEMB     204      CHL1     C9       CRL1    -0.900000E-01   12.0110           0
     22830 MEMB     204      CHL1     H9       HGA1     0.900000E-01   1.00800           0
     22831 MEMB     204      CHL1     C10      CRL1      0.00000       12.0110           0
     22832 MEMB     204      CHL1     C19      CTL3    -0.270000       12.0110           0
     22833 MEMB     204      CHL1     H19A     HAL3     0.900000E-01   1.00800           0
     22834 MEMB     204      CHL1     H19B     HAL3     0.900000E-01   1.00800           0
     22835 MEMB     204      CHL1     H19C     HAL3     0.900000E-01   1.00800           0
     22836 MEMB     204      CHL1     C1       CRL2    -0.180000       12.0110           0
     22837 MEMB     204      CHL1     H1A      HGA2     0.900000E-01   1.00800           0
     22838 MEMB     204      CHL1     H1B      HGA2     0.900000E-01   1.00800           0
     22839 MEMB     204      CHL1     C2       CRL2    -0.180000       12.0110           0
     22840 MEMB     204      CHL1     H2A      HGA2     0.900000E-01   1.00800           0
     22841 MEMB     204      CHL1     H2B      HGA2     0.900000E-01   1.00800           0
     22842 MEMB     204      CHL1     C20      CTL1    -0.900000E-01   12.0110           0
     22843 MEMB     204      CHL1     H20      HAL1     0.900000E-01   1.00800           0
     22844 MEMB     204      CHL1     C21      CTL3    -0.270000       12.0110           0
     22845 MEMB     204      CHL1     H21A     HAL3     0.900000E-01   1.00800           0
     22846 MEMB     204      CHL1     H21B     HAL3     0.900000E-01   1.00800           0
     22847 MEMB     204      CHL1     H21C     HAL3     0.900000E-01   1.00800           0
     22848 MEMB     204      CHL1     C22      CTL2    -0.180000       12.0110           0
     22849 MEMB     204      CHL1     H22A     HAL2     0.900000E-01   1.00800           0
     22850 MEMB     204      CHL1     H22B     HAL2     0.900000E-01   1.00800           0
     22851 MEMB     204      CHL1     C23      CTL2    -0.180000       12.0110           0
     22852 MEMB     204      CHL1     H23A     HAL2     0.900000E-01   1.00800           0
     22853 MEMB     204      CHL1     H23B     HAL2     0.900000E-01   1.00800           0
     22854 MEMB     204      CHL1     C24      CTL2    -0.180000       12.0110           0
     22855 MEMB     204      CHL1     H24A     HAL2     0.900000E-01   1.00800           0
     22856 MEMB     204      CHL1     H24B     HAL2     0.900000E-01   1.00800           0
     22857 MEMB     204      CHL1     C25      CTL1    -0.900000E-01   12.0110           0
     22858 MEMB     204      CHL1     H25      HAL1     0.900000E-01   1.00800           0
     22859 MEMB     204      CHL1     C26      CTL3    -0.270000       12.0110           0
     22860 MEMB     204      CHL1     H26A     HAL3     0.900000E-01   1.00800           0
     22861 MEMB     204      CHL1     H26B     HAL3     0.900000E-01   1.00800           0
     22862 MEMB     204      CHL1     H26C     HAL3     0.900000E-01   1.00800           0
     22863 MEMB     204      CHL1     C27      CTL3    -0.270000       12.0110           0
     22864 MEMB     204      CHL1     H27A     HAL3     0.900000E-01   1.00800           0
     22865 MEMB     204      CHL1     H27B     HAL3     0.900000E-01   1.00800           0
     22866 MEMB     204      CHL1     H27C     HAL3     0.900000E-01   1.00800           0
     22867 MEMB     205      CHL1     C3       CRL1     0.140000       12.0110           0
     22868 MEMB     205      CHL1     H3       HGA1     0.900000E-01   1.00800           0
     22869 MEMB     205      CHL1     O3       OHL     -0.660000       15.9994           0
     22870 MEMB     205      CHL1     H3'      HOL      0.430000       1.00800           0
     22871 MEMB     205      CHL1     C4       CRL2    -0.180000       12.0110           0
     22872 MEMB     205      CHL1     H4A      HGA2     0.900000E-01   1.00800           0
     22873 MEMB     205      CHL1     H4B      HGA2     0.900000E-01   1.00800           0
     22874 MEMB     205      CHL1     C5       CEL1      0.00000       12.0110           0
     22875 MEMB     205      CHL1     C6       CEL1    -0.150000       12.0110           0
     22876 MEMB     205      CHL1     H6       HEL1     0.150000       1.00800           0
     22877 MEMB     205      CHL1     C7       CRL2    -0.180000       12.0110           0
     22878 MEMB     205      CHL1     H7A      HGA2     0.900000E-01   1.00800           0
     22879 MEMB     205      CHL1     H7B      HGA2     0.900000E-01   1.00800           0
     22880 MEMB     205      CHL1     C8       CRL1    -0.900000E-01   12.0110           0
     22881 MEMB     205      CHL1     H8       HGA1     0.900000E-01   1.00800           0
     22882 MEMB     205      CHL1     C14      CRL1    -0.900000E-01   12.0110           0
     22883 MEMB     205      CHL1     H14      HGA1     0.900000E-01   1.00800           0
     22884 MEMB     205      CHL1     C15      CRL2    -0.180000       12.0110           0
     22885 MEMB     205      CHL1     H15A     HGA2     0.900000E-01   1.00800           0
     22886 MEMB     205      CHL1     H15B     HGA2     0.900000E-01   1.00800           0
     22887 MEMB     205      CHL1     C16      CRL2    -0.180000       12.0110           0
     22888 MEMB     205      CHL1     H16A     HGA2     0.900000E-01   1.00800           0
     22889 MEMB     205      CHL1     H16B     HGA2     0.900000E-01   1.00800           0
     22890 MEMB     205      CHL1     C17      CRL1    -0.900000E-01   12.0110           0
     22891 MEMB     205      CHL1     H17      HGA1     0.900000E-01   1.00800           0
     22892 MEMB     205      CHL1     C13      CRL1      0.00000       12.0110           0
     22893 MEMB     205      CHL1     C18      CTL3    -0.270000       12.0110           0
     22894 MEMB     205      CHL1     H18A     HAL3     0.900000E-01   1.00800           0
     22895 MEMB     205      CHL1     H18B     HAL3     0.900000E-01   1.00800           0
     22896 MEMB     205      CHL1     H18C     HAL3     0.900000E-01   1.00800           0
     22897 MEMB     205      CHL1     C12      CRL2    -0.180000       12.0110           0
     22898 MEMB     205      CHL1     H12A     HGA2     0.900000E-01   1.00800           0
     22899 MEMB     205      CHL1     H12B     HGA2     0.900000E-01   1.00800           0
     22900 MEMB     205      CHL1     C11      CRL2    -0.180000       12.0110           0
     22901 MEMB     205      CHL1     H11A     HGA2     0.900000E-01   1.00800           0
     22902 MEMB     205      CHL1     H11B     HGA2     0.900000E-01   1.00800           0
     22903 MEMB     205      CHL1     C9       CRL1    -0.900000E-01   12.0110           0
     22904 MEMB     205      CHL1     H9       HGA1     0.900000E-01   1.00800           0
     22905 MEMB     205      CHL1     C10      CRL1      0.00000       12.0110           0
     22906 MEMB     205      CHL1     C19      CTL3    -0.270000       12.0110           0
     22907 MEMB     205      CHL1     H19A     HAL3     0.900000E-01   1.00800           0
     22908 MEMB     205      CHL1     H19B     HAL3     0.900000E-01   1.00800           0
     22909 MEMB     205      CHL1     H19C     HAL3     0.900000E-01   1.00800           0
     22910 MEMB     205      CHL1     C1       CRL2    -0.180000       12.0110           0
     22911 MEMB     205      CHL1     H1A      HGA2     0.900000E-01   1.00800           0
     22912 MEMB     205      CHL1     H1B      HGA2     0.900000E-01   1.00800           0
     22913 MEMB     205      CHL1     C2       CRL2    -0.180000       12.0110           0
     22914 MEMB     205      CHL1     H2A      HGA2     0.900000E-01   1.00800           0
     22915 MEMB     205      CHL1     H2B      HGA2     0.900000E-01   1.00800           0
     22916 MEMB     205      CHL1     C20      CTL1    -0.900000E-01   12.0110           0
     22917 MEMB     205      CHL1     H20      HAL1     0.900000E-01   1.00800           0
     22918 MEMB     205      CHL1     C21      CTL3    -0.270000       12.0110           0
     22919 MEMB     205      CHL1     H21A     HAL3     0.900000E-01   1.00800           0
     22920 MEMB     205      CHL1     H21B     HAL3     0.900000E-01   1.00800           0
     22921 MEMB     205      CHL1     H21C     HAL3     0.900000E-01   1.00800           0
     22922 MEMB     205      CHL1     C22      CTL2    -0.180000       12.0110           0
     22923 MEMB     205      CHL1     H22A     HAL2     0.900000E-01   1.00800           0
     22924 MEMB     205      CHL1     H22B     HAL2     0.900000E-01   1.00800           0
     22925 MEMB     205      CHL1     C23      CTL2    -0.180000       12.0110           0
     22926 MEMB     205      CHL1     H23A     HAL2     0.900000E-01   1.00800           0
     22927 MEMB     205      CHL1     H23B     HAL2     0.900000E-01   1.00800           0
     22928 MEMB     205      CHL1     C24      CTL2    -0.180000       12.0110           0
     22929 MEMB     205      CHL1     H24A     HAL2     0.900000E-01   1.00800           0
     22930 MEMB     205      CHL1     H24B     HAL2     0.900000E-01   1.00800           0
     22931 MEMB     205      CHL1     C25      CTL1    -0.900000E-01   12.0110           0
     22932 MEMB     205      CHL1     H25      HAL1     0.900000E-01   1.00800           0
     22933 MEMB     205      CHL1     C26      CTL3    -0.270000       12.0110           0
     22934 MEMB     205      CHL1     H26A     HAL3     0.900000E-01   1.00800           0
     22935 MEMB     205      CHL1     H26B     HAL3     0.900000E-01   1.00800           0
     22936 MEMB     205      CHL1     H26C     HAL3     0.900000E-01   1.00800           0
     22937 MEMB     205      CHL1     C27      CTL3    -0.270000       12.0110           0
     22938 MEMB     205      CHL1     H27A     HAL3     0.900000E-01   1.00800           0
     22939 MEMB     205      CHL1     H27B     HAL3     0.900000E-01   1.00800           0
     22940 MEMB     205      CHL1     H27C     HAL3     0.900000E-01   1.00800           0
     22941 MEMB     206      CHL1     C3       CRL1     0.140000       12.0110           0
     22942 MEMB     206      CHL1     H3       HGA1     0.900000E-01   1.00800           0
     22943 MEMB     206      CHL1     O3       OHL     -0.660000       15.9994           0
     22944 MEMB     206      CHL1     H3'      HOL      0.430000       1.00800           0
     22945 MEMB     206      CHL1     C4       CRL2    -0.180000       12.0110           0
     22946 MEMB     206      CHL1     H4A      HGA2     0.900000E-01   1.00800           0
     22947 MEMB     206      CHL1     H4B      HGA2     0.900000E-01   1.00800           0
     22948 MEMB     206      CHL1     C5       CEL1      0.00000       12.0110           0
     22949 MEMB     206      CHL1     C6       CEL1    -0.150000       12.0110           0
     22950 MEMB     206      CHL1     H6       HEL1     0.150000       1.00800           0
     22951 MEMB     206      CHL1     C7       CRL2    -0.180000       12.0110           0
     22952 MEMB     206      CHL1     H7A      HGA2     0.900000E-01   1.00800           0
     22953 MEMB     206      CHL1     H7B      HGA2     0.900000E-01   1.00800           0
     22954 MEMB     206      CHL1     C8       CRL1    -0.900000E-01   12.0110           0
     22955 MEMB     206      CHL1     H8       HGA1     0.900000E-01   1.00800           0
     22956 MEMB     206      CHL1     C14      CRL1    -0.900000E-01   12.0110           0
     22957 MEMB     206      CHL1     H14      HGA1     0.900000E-01   1.00800           0
     22958 MEMB     206      CHL1     C15      CRL2    -0.180000       12.0110           0
     22959 MEMB     206      CHL1     H15A     HGA2     0.900000E-01   1.00800           0
     22960 MEMB     206      CHL1     H15B     HGA2     0.900000E-01   1.00800           0
     22961 MEMB     206      CHL1     C16      CRL2    -0.180000       12.0110           0
     22962 MEMB     206      CHL1     H16A     HGA2     0.900000E-01   1.00800           0
     22963 MEMB     206      CHL1     H16B     HGA2     0.900000E-01   1.00800           0
     22964 MEMB     206      CHL1     C17      CRL1    -0.900000E-01   12.0110           0
     22965 MEMB     206      CHL1     H17      HGA1     0.900000E-01   1.00800           0
     22966 MEMB     206      CHL1     C13      CRL1      0.00000       12.0110           0
     22967 MEMB     206      CHL1     C18      CTL3    -0.270000       12.0110           0
     22968 MEMB     206      CHL1     H18A     HAL3     0.900000E-01   1.00800           0
     22969 MEMB     206      CHL1     H18B     HAL3     0.900000E-01   1.00800           0
     22970 MEMB     206      CHL1     H18C     HAL3     0.900000E-01   1.00800           0
     22971 MEMB     206      CHL1     C12      CRL2    -0.180000       12.0110           0
     22972 MEMB     206      CHL1     H12A     HGA2     0.900000E-01   1.00800           0
     22973 MEMB     206      CHL1     H12B     HGA2     0.900000E-01   1.00800           0
     22974 MEMB     206      CHL1     C11      CRL2    -0.180000       12.0110           0
     22975 MEMB     206      CHL1     H11A     HGA2     0.900000E-01   1.00800           0
     22976 MEMB     206      CHL1     H11B     HGA2     0.900000E-01   1.00800           0
     22977 MEMB     206      CHL1     C9       CRL1    -0.900000E-01   12.0110           0
     22978 MEMB     206      CHL1     H9       HGA1     0.900000E-01   1.00800           0
     22979 MEMB     206      CHL1     C10      CRL1      0.00000       12.0110           0
     22980 MEMB     206      CHL1     C19      CTL3    -0.270000       12.0110           0
     22981 MEMB     206      CHL1     H19A     HAL3     0.900000E-01   1.00800           0
     22982 MEMB     206      CHL1     H19B     HAL3     0.900000E-01   1.00800           0
     22983 MEMB     206      CHL1     H19C     HAL3     0.900000E-01   1.00800           0
     22984 MEMB     206      CHL1     C1       CRL2    -0.180000       12.0110           0
     22985 MEMB     206      CHL1     H1A      HGA2     0.900000E-01   1.00800           0
     22986 MEMB     206      CHL1     H1B      HGA2     0.900000E-01   1.00800           0
     22987 MEMB     206      CHL1     C2       CRL2    -0.180000       12.0110           0
     22988 MEMB     206      CHL1     H2A      HGA2     0.900000E-01   1.00800           0
     22989 MEMB     206      CHL1     H2B      HGA2     0.900000E-01   1.00800           0
     22990 MEMB     206      CHL1     C20      CTL1    -0.900000E-01   12.0110           0
     22991 MEMB     206      CHL1     H20      HAL1     0.900000E-01   1.00800           0
     22992 MEMB     206      CHL1     C21      CTL3    -0.270000       12.0110           0
     22993 MEMB     206      CHL1     H21A     HAL3     0.900000E-01   1.00800           0
     22994 MEMB     206      CHL1     H21B     HAL3     0.900000E-01   1.00800           0
     22995 MEMB     206      CHL1     H21C     HAL3     0.900000E-01   1.00800           0
     22996 MEMB     206      CHL1     C22      CTL2    -0.180000       12.0110           0
     22997 MEMB     206      CHL1     H22A     HAL2     0.900000E-01   1.00800           0
     22998 MEMB     206      CHL1     H22B     HAL2     0.900000E-01   1.00800           0
     22999 MEMB     206      CHL1     C23      CTL2    -0.180000       12.0110           0
     23000 MEMB     206      CHL1     H23A     HAL2     0.900000E-01   1.00800           0
     23001 MEMB     206      CHL1     H23B     HAL2     0.900000E-01   1.00800           0
     23002 MEMB     206      CHL1     C24      CTL2    -0.180000       12.0110           0
     23003 MEMB     206      CHL1     H24A     HAL2     0.900000E-01   1.00800           0
     23004 MEMB     206      CHL1     H24B     HAL2     0.900000E-01   1.00800           0
     23005 MEMB     206      CHL1     C25      CTL1    -0.900000E-01   12.0110           0
     23006 MEMB     206      CHL1     H25      HAL1     0.900000E-01   1.00800           0
     23007 MEMB     206      CHL1     C26      CTL3    -0.270000       12.0110           0
     23008 MEMB     206      CHL1     H26A     HAL3     0.900000E-01   1.00800           0
     23009 MEMB     206      CHL1     H26B     HAL3     0.900000E-01   1.00800           0
     23010 MEMB     206      CHL1     H26C     HAL3     0.900000E-01   1.00800           0
     23011 MEMB     206      CHL1     C27      CTL3    -0.270000       12.0110           0
     23012 MEMB     206      CHL1     H27A     HAL3     0.900000E-01   1.00800           0
     23013 MEMB     206      CHL1     H27B     HAL3     0.900000E-01   1.00800           0
     23014 MEMB     206      CHL1     H27C     HAL3     0.900000E-01   1.00800           0
     23015 MEMB     207      CHL1     C3       CRL1     0.140000       12.0110           0
     23016 MEMB     207      CHL1     H3       HGA1     0.900000E-01   1.00800           0
     23017 MEMB     207      CHL1     O3       OHL     -0.660000       15.9994           0
     23018 MEMB     207      CHL1     H3'      HOL      0.430000       1.00800           0
     23019 MEMB     207      CHL1     C4       CRL2    -0.180000       12.0110           0
     23020 MEMB     207      CHL1     H4A      HGA2     0.900000E-01   1.00800           0
     23021 MEMB     207      CHL1     H4B      HGA2     0.900000E-01   1.00800           0
     23022 MEMB     207      CHL1     C5       CEL1      0.00000       12.0110           0
     23023 MEMB     207      CHL1     C6       CEL1    -0.150000       12.0110           0
     23024 MEMB     207      CHL1     H6       HEL1     0.150000       1.00800           0
     23025 MEMB     207      CHL1     C7       CRL2    -0.180000       12.0110           0
     23026 MEMB     207      CHL1     H7A      HGA2     0.900000E-01   1.00800           0
     23027 MEMB     207      CHL1     H7B      HGA2     0.900000E-01   1.00800           0
     23028 MEMB     207      CHL1     C8       CRL1    -0.900000E-01   12.0110           0
     23029 MEMB     207      CHL1     H8       HGA1     0.900000E-01   1.00800           0
     23030 MEMB     207      CHL1     C14      CRL1    -0.900000E-01   12.0110           0
     23031 MEMB     207      CHL1     H14      HGA1     0.900000E-01   1.00800           0
     23032 MEMB     207      CHL1     C15      CRL2    -0.180000       12.0110           0
     23033 MEMB     207      CHL1     H15A     HGA2     0.900000E-01   1.00800           0
     23034 MEMB     207      CHL1     H15B     HGA2     0.900000E-01   1.00800           0
     23035 MEMB     207      CHL1     C16      CRL2    -0.180000       12.0110           0
     23036 MEMB     207      CHL1     H16A     HGA2     0.900000E-01   1.00800           0
     23037 MEMB     207      CHL1     H16B     HGA2     0.900000E-01   1.00800           0
     23038 MEMB     207      CHL1     C17      CRL1    -0.900000E-01   12.0110           0
     23039 MEMB     207      CHL1     H17      HGA1     0.900000E-01   1.00800           0
     23040 MEMB     207      CHL1     C13      CRL1      0.00000       12.0110           0
     23041 MEMB     207      CHL1     C18      CTL3    -0.270000       12.0110           0
     23042 MEMB     207      CHL1     H18A     HAL3     0.900000E-01   1.00800           0
     23043 MEMB     207      CHL1     H18B     HAL3     0.900000E-01   1.00800           0
     23044 MEMB     207      CHL1     H18C     HAL3     0.900000E-01   1.00800           0
     23045 MEMB     207      CHL1     C12      CRL2    -0.180000       12.0110           0
     23046 MEMB     207      CHL1     H12A     HGA2     0.900000E-01   1.00800           0
     23047 MEMB     207      CHL1     H12B     HGA2     0.900000E-01   1.00800           0
     23048 MEMB     207      CHL1     C11      CRL2    -0.180000       12.0110           0
     23049 MEMB     207      CHL1     H11A     HGA2     0.900000E-01   1.00800           0
     23050 MEMB     207      CHL1     H11B     HGA2     0.900000E-01   1.00800           0
     23051 MEMB     207      CHL1     C9       CRL1    -0.900000E-01   12.0110           0
     23052 MEMB     207      CHL1     H9       HGA1     0.900000E-01   1.00800           0
     23053 MEMB     207      CHL1     C10      CRL1      0.00000       12.0110           0
     23054 MEMB     207      CHL1     C19      CTL3    -0.270000       12.0110           0
     23055 MEMB     207      CHL1     H19A     HAL3     0.900000E-01   1.00800           0
     23056 MEMB     207      CHL1     H19B     HAL3     0.900000E-01   1.00800           0
     23057 MEMB     207      CHL1     H19C     HAL3     0.900000E-01   1.00800           0
     23058 MEMB     207      CHL1     C1       CRL2    -0.180000       12.0110           0
     23059 MEMB     207      CHL1     H1A      HGA2     0.900000E-01   1.00800           0
     23060 MEMB     207      CHL1     H1B      HGA2     0.900000E-01   1.00800           0
     23061 MEMB     207      CHL1     C2       CRL2    -0.180000       12.0110           0
     23062 MEMB     207      CHL1     H2A      HGA2     0.900000E-01   1.00800           0
     23063 MEMB     207      CHL1     H2B      HGA2     0.900000E-01   1.00800           0
     23064 MEMB     207      CHL1     C20      CTL1    -0.900000E-01   12.0110           0
     23065 MEMB     207      CHL1     H20      HAL1     0.900000E-01   1.00800           0
     23066 MEMB     207      CHL1     C21      CTL3    -0.270000       12.0110           0
     23067 MEMB     207      CHL1     H21A     HAL3     0.900000E-01   1.00800           0
     23068 MEMB     207      CHL1     H21B     HAL3     0.900000E-01   1.00800           0
     23069 MEMB     207      CHL1     H21C     HAL3     0.900000E-01   1.00800           0
     23070 MEMB     207      CHL1     C22      CTL2    -0.180000       12.0110           0
     23071 MEMB     207      CHL1     H22A     HAL2     0.900000E-01   1.00800           0
     23072 MEMB     207      CHL1     H22B     HAL2     0.900000E-01   1.00800           0
     23073 MEMB     207      CHL1     C23      CTL2    -0.180000       12.0110           0
     23074 MEMB     207      CHL1     H23A     HAL2     0.900000E-01   1.00800           0
     23075 MEMB     207      CHL1     H23B     HAL2     0.900000E-01   1.00800           0
     23076 MEMB     207      CHL1     C24      CTL2    -0.180000       12.0110           0
     23077 MEMB     207      CHL1     H24A     HAL2     0.900000E-01   1.00800           0
     23078 MEMB     207      CHL1     H24B     HAL2     0.900000E-01   1.00800           0
     23079 MEMB     207      CHL1     C25      CTL1    -0.900000E-01   12.0110           0
     23080 MEMB     207      CHL1     H25      HAL1     0.900000E-01   1.00800           0
     23081 MEMB     207      CHL1     C26      CTL3    -0.270000       12.0110           0
     23082 MEMB     207      CHL1     H26A     HAL3     0.900000E-01   1.00800           0
     23083 MEMB     207      CHL1     H26B     HAL3     0.900000E-01   1.00800           0
     23084 MEMB     207      CHL1     H26C     HAL3     0.900000E-01   1.00800           0
     23085 MEMB     207      CHL1     C27      CTL3    -0.270000       12.0110           0
     23086 MEMB     207      CHL1     H27A     HAL3     0.900000E-01   1.00800           0
     23087 MEMB     207      CHL1     H27B     HAL3     0.900000E-01   1.00800           0
     23088 MEMB     207      CHL1     H27C     HAL3     0.900000E-01   1.00800           0
     23089 MEMB     208      CHL1     C3       CRL1     0.140000       12.0110           0
     23090 MEMB     208      CHL1     H3       HGA1     0.900000E-01   1.00800           0
     23091 MEMB     208      CHL1     O3       OHL     -0.660000       15.9994           0
     23092 MEMB     208      CHL1     H3'      HOL      0.430000       1.00800           0
     23093 MEMB     208      CHL1     C4       CRL2    -0.180000       12.0110           0
     23094 MEMB     208      CHL1     H4A      HGA2     0.900000E-01   1.00800           0
     23095 MEMB     208      CHL1     H4B      HGA2     0.900000E-01   1.00800           0
     23096 MEMB     208      CHL1     C5       CEL1      0.00000       12.0110           0
     23097 MEMB     208      CHL1     C6       CEL1    -0.150000       12.0110           0
     23098 MEMB     208      CHL1     H6       HEL1     0.150000       1.00800           0
     23099 MEMB     208      CHL1     C7       CRL2    -0.180000       12.0110           0
     23100 MEMB     208      CHL1     H7A      HGA2     0.900000E-01   1.00800           0
     23101 MEMB     208      CHL1     H7B      HGA2     0.900000E-01   1.00800           0
     23102 MEMB     208      CHL1     C8       CRL1    -0.900000E-01   12.0110           0
     23103 MEMB     208      CHL1     H8       HGA1     0.900000E-01   1.00800           0
     23104 MEMB     208      CHL1     C14      CRL1    -0.900000E-01   12.0110           0
     23105 MEMB     208      CHL1     H14      HGA1     0.900000E-01   1.00800           0
     23106 MEMB     208      CHL1     C15      CRL2    -0.180000       12.0110           0
     23107 MEMB     208      CHL1     H15A     HGA2     0.900000E-01   1.00800           0
     23108 MEMB     208      CHL1     H15B     HGA2     0.900000E-01   1.00800           0
     23109 MEMB     208      CHL1     C16      CRL2    -0.180000       12.0110           0
     23110 MEMB     208      CHL1     H16A     HGA2     0.900000E-01   1.00800           0
     23111 MEMB     208      CHL1     H16B     HGA2     0.900000E-01   1.00800           0
     23112 MEMB     208      CHL1     C17      CRL1    -0.900000E-01   12.0110           0
     23113 MEMB     208      CHL1     H17      HGA1     0.900000E-01   1.00800           0
     23114 MEMB     208      CHL1     C13      CRL1      0.00000       12.0110           0
     23115 MEMB     208      CHL1     C18      CTL3    -0.270000       12.0110           0
     23116 MEMB     208      CHL1     H18A     HAL3     0.900000E-01   1.00800           0
     23117 MEMB     208      CHL1     H18B     HAL3     0.900000E-01   1.00800           0
     23118 MEMB     208      CHL1     H18C     HAL3     0.900000E-01   1.00800           0
     23119 MEMB     208      CHL1     C12      CRL2    -0.180000       12.0110           0
     23120 MEMB     208      CHL1     H12A     HGA2     0.900000E-01   1.00800           0
     23121 MEMB     208      CHL1     H12B     HGA2     0.900000E-01   1.00800           0
     23122 MEMB     208      CHL1     C11      CRL2    -0.180000       12.0110           0
     23123 MEMB     208      CHL1     H11A     HGA2     0.900000E-01   1.00800           0
     23124 MEMB     208      CHL1     H11B     HGA2     0.900000E-01   1.00800           0
     23125 MEMB     208      CHL1     C9       CRL1    -0.900000E-01   12.0110           0
     23126 MEMB     208      CHL1     H9       HGA1     0.900000E-01   1.00800           0
     23127 MEMB     208      CHL1     C10      CRL1      0.00000       12.0110           0
     23128 MEMB     208      CHL1     C19      CTL3    -0.270000       12.0110           0
     23129 MEMB     208      CHL1     H19A     HAL3     0.900000E-01   1.00800           0
     23130 MEMB     208      CHL1     H19B     HAL3     0.900000E-01   1.00800           0
     23131 MEMB     208      CHL1     H19C     HAL3     0.900000E-01   1.00800           0
     23132 MEMB     208      CHL1     C1       CRL2    -0.180000       12.0110           0
     23133 MEMB     208      CHL1     H1A      HGA2     0.900000E-01   1.00800           0
     23134 MEMB     208      CHL1     H1B      HGA2     0.900000E-01   1.00800           0
     23135 MEMB     208      CHL1     C2       CRL2    -0.180000       12.0110           0
     23136 MEMB     208      CHL1     H2A      HGA2     0.900000E-01   1.00800           0
     23137 MEMB     208      CHL1     H2B      HGA2     0.900000E-01   1.00800           0
     23138 MEMB     208      CHL1     C20      CTL1    -0.900000E-01   12.0110           0
     23139 MEMB     208      CHL1     H20      HAL1     0.900000E-01   1.00800           0
     23140 MEMB     208      CHL1     C21      CTL3    -0.270000       12.0110           0
     23141 MEMB     208      CHL1     H21A     HAL3     0.900000E-01   1.00800           0
     23142 MEMB     208      CHL1     H21B     HAL3     0.900000E-01   1.00800           0
     23143 MEMB     208      CHL1     H21C     HAL3     0.900000E-01   1.00800           0
     23144 MEMB     208      CHL1     C22      CTL2    -0.180000       12.0110           0
     23145 MEMB     208      CHL1     H22A     HAL2     0.900000E-01   1.00800           0
     23146 MEMB     208      CHL1     H22B     HAL2     0.900000E-01   1.00800           0
     23147 MEMB     208      CHL1     C23      CTL2    -0.180000       12.0110           0
     23148 MEMB     208      CHL1     H23A     HAL2     0.900000E-01   1.00800           0
     23149 MEMB     208      CHL1     H23B     HAL2     0.900000E-01   1.00800           0
     23150 MEMB     208      CHL1     C24      CTL2    -0.180000       12.0110           0
     23151 MEMB     208      CHL1     H24A     HAL2     0.900000E-01   1.00800           0
     23152 MEMB     208      CHL1     H24B     HAL2     0.900000E-01   1.00800           0
     23153 MEMB     208      CHL1     C25      CTL1    -0.900000E-01   12.0110           0
     23154 MEMB     208      CHL1     H25      HAL1     0.900000E-01   1.00800           0
     23155 MEMB     208      CHL1     C26      CTL3    -0.270000       12.0110           0
     23156 MEMB     208      CHL1     H26A     HAL3     0.900000E-01   1.00800           0
     23157 MEMB     208      CHL1     H26B     HAL3     0.900000E-01   1.00800           0
     23158 MEMB     208      CHL1     H26C     HAL3     0.900000E-01   1.00800           0
     23159 MEMB     208      CHL1     C27      CTL3    -0.270000       12.0110           0
     23160 MEMB     208      CHL1     H27A     HAL3     0.900000E-01   1.00800           0
     23161 MEMB     208      CHL1     H27B     HAL3     0.900000E-01   1.00800           0
     23162 MEMB     208      CHL1     H27C     HAL3     0.900000E-01   1.00800           0
     23163 MEMB     209      POPC     N        NTL     -0.600000       14.0070           0
     23164 MEMB     209      POPC     C12      CTL2    -0.100000       12.0110           0
     23165 MEMB     209      POPC     H12A     HL       0.250000       1.00800           0
     23166 MEMB     209      POPC     H12B     HL       0.250000       1.00800           0
     23167 MEMB     209      POPC     C13      CTL5    -0.350000       12.0110           0
     23168 MEMB     209      POPC     H13A     HL       0.250000       1.00800           0
     23169 MEMB     209      POPC     H13B     HL       0.250000       1.00800           0
     23170 MEMB     209      POPC     H13C     HL       0.250000       1.00800           0
     23171 MEMB     209      POPC     C14      CTL5    -0.350000       12.0110           0
     23172 MEMB     209      POPC     H14A     HL       0.250000       1.00800           0
     23173 MEMB     209      POPC     H14B     HL       0.250000       1.00800           0
     23174 MEMB     209      POPC     H14C     HL       0.250000       1.00800           0
     23175 MEMB     209      POPC     C15      CTL5    -0.350000       12.0110           0
     23176 MEMB     209      POPC     H15A     HL       0.250000       1.00800           0
     23177 MEMB     209      POPC     H15B     HL       0.250000       1.00800           0
     23178 MEMB     209      POPC     H15C     HL       0.250000       1.00800           0
     23179 MEMB     209      POPC     C11      CTL2    -0.800000E-01   12.0110           0
     23180 MEMB     209      POPC     H11A     HAL2     0.900000E-01   1.00800           0
     23181 MEMB     209      POPC     H11B     HAL2     0.900000E-01   1.00800           0
     23182 MEMB     209      POPC     P        PL        1.50000       30.9740           0
     23183 MEMB     209      POPC     O13      O2L     -0.780000       15.9994           0
     23184 MEMB     209      POPC     O14      O2L     -0.780000       15.9994           0
     23185 MEMB     209      POPC     O12      OSLP    -0.570000       15.9994           0
     23186 MEMB     209      POPC     O11      OSLP    -0.570000       15.9994           0
     23187 MEMB     209      POPC     C1       CTL2    -0.800000E-01   12.0110           0
     23188 MEMB     209      POPC     HA       HAL2     0.900000E-01   1.00800           0
     23189 MEMB     209      POPC     HB       HAL2     0.900000E-01   1.00800           0
     23190 MEMB     209      POPC     C2       CTL1     0.170000       12.0110           0
     23191 MEMB     209      POPC     HS       HAL1     0.900000E-01   1.00800           0
     23192 MEMB     209      POPC     O21      OSL     -0.490000       15.9994           0
     23193 MEMB     209      POPC     C21      CL       0.900000       12.0110           0
     23194 MEMB     209      POPC     O22      OBL     -0.630000       15.9994           0
     23195 MEMB     209      POPC     C22      CTL2    -0.220000       12.0110           0
     23196 MEMB     209      POPC     H2R      HAL2     0.900000E-01   1.00800           0
     23197 MEMB     209      POPC     H2S      HAL2     0.900000E-01   1.00800           0
     23198 MEMB     209      POPC     C3       CTL2     0.800000E-01   12.0110           0
     23199 MEMB     209      POPC     HX       HAL2     0.900000E-01   1.00800           0
     23200 MEMB     209      POPC     HY       HAL2     0.900000E-01   1.00800           0
     23201 MEMB     209      POPC     O31      OSL     -0.490000       15.9994           0
     23202 MEMB     209      POPC     C31      CL       0.900000       12.0110           0
     23203 MEMB     209      POPC     O32      OBL     -0.630000       15.9994           0
     23204 MEMB     209      POPC     C32      CTL2    -0.220000       12.0110           0
     23205 MEMB     209      POPC     H2X      HAL2     0.900000E-01   1.00800           0
     23206 MEMB     209      POPC     H2Y      HAL2     0.900000E-01   1.00800           0
     23207 MEMB     209      POPC     C23      CTL2    -0.180000       12.0110           0
     23208 MEMB     209      POPC     H3R      HAL2     0.900000E-01   1.00800           0
     23209 MEMB     209      POPC     H3S      HAL2     0.900000E-01   1.00800           0
     23210 MEMB     209      POPC     C24      CTL2    -0.180000       12.0110           0
     23211 MEMB     209      POPC     H4R      HAL2     0.900000E-01   1.00800           0
     23212 MEMB     209      POPC     H4S      HAL2     0.900000E-01   1.00800           0
     23213 MEMB     209      POPC     C25      CTL2    -0.180000       12.0110           0
     23214 MEMB     209      POPC     H5R      HAL2     0.900000E-01   1.00800           0
     23215 MEMB     209      POPC     H5S      HAL2     0.900000E-01   1.00800           0
     23216 MEMB     209      POPC     C26      CTL2    -0.180000       12.0110           0
     23217 MEMB     209      POPC     H6R      HAL2     0.900000E-01   1.00800           0
     23218 MEMB     209      POPC     H6S      HAL2     0.900000E-01   1.00800           0
     23219 MEMB     209      POPC     C27      CTL2    -0.180000       12.0110           0
     23220 MEMB     209      POPC     H7R      HAL2     0.900000E-01   1.00800           0
     23221 MEMB     209      POPC     H7S      HAL2     0.900000E-01   1.00800           0
     23222 MEMB     209      POPC     C28      CTL2    -0.180000       12.0110           0
     23223 MEMB     209      POPC     H8R      HAL2     0.900000E-01   1.00800           0
     23224 MEMB     209      POPC     H8S      HAL2     0.900000E-01   1.00800           0
     23225 MEMB     209      POPC     C29      CEL1    -0.150000       12.0110           0
     23226 MEMB     209      POPC     H91      HEL1     0.150000       1.00800           0
     23227 MEMB     209      POPC     C210     CEL1    -0.150000       12.0110           0
     23228 MEMB     209      POPC     H101     HEL1     0.150000       1.00800           0
     23229 MEMB     209      POPC     C211     CTL2    -0.180000       12.0110           0
     23230 MEMB     209      POPC     H11R     HAL2     0.900000E-01   1.00800           0
     23231 MEMB     209      POPC     H11S     HAL2     0.900000E-01   1.00800           0
     23232 MEMB     209      POPC     C212     CTL2    -0.180000       12.0110           0
     23233 MEMB     209      POPC     H12R     HAL2     0.900000E-01   1.00800           0
     23234 MEMB     209      POPC     H12S     HAL2     0.900000E-01   1.00800           0
     23235 MEMB     209      POPC     C213     CTL2    -0.180000       12.0110           0
     23236 MEMB     209      POPC     H13R     HAL2     0.900000E-01   1.00800           0
     23237 MEMB     209      POPC     H13S     HAL2     0.900000E-01   1.00800           0
     23238 MEMB     209      POPC     C214     CTL2    -0.180000       12.0110           0
     23239 MEMB     209      POPC     H14R     HAL2     0.900000E-01   1.00800           0
     23240 MEMB     209      POPC     H14S     HAL2     0.900000E-01   1.00800           0
     23241 MEMB     209      POPC     C215     CTL2    -0.180000       12.0110           0
     23242 MEMB     209      POPC     H15R     HAL2     0.900000E-01   1.00800           0
     23243 MEMB     209      POPC     H15S     HAL2     0.900000E-01   1.00800           0
     23244 MEMB     209      POPC     C216     CTL2    -0.180000       12.0110           0
     23245 MEMB     209      POPC     H16R     HAL2     0.900000E-01   1.00800           0
     23246 MEMB     209      POPC     H16S     HAL2     0.900000E-01   1.00800           0
     23247 MEMB     209      POPC     C217     CTL2    -0.180000       12.0110           0
     23248 MEMB     209      POPC     H17R     HAL2     0.900000E-01   1.00800           0
     23249 MEMB     209      POPC     H17S     HAL2     0.900000E-01   1.00800           0
     23250 MEMB     209      POPC     C218     CTL3    -0.270000       12.0110           0
     23251 MEMB     209      POPC     H18R     HAL3     0.900000E-01   1.00800           0
     23252 MEMB     209      POPC     H18S     HAL3     0.900000E-01   1.00800           0
     23253 MEMB     209      POPC     H18T     HAL3     0.900000E-01   1.00800           0
     23254 MEMB     209      POPC     C33      CTL2    -0.180000       12.0110           0
     23255 MEMB     209      POPC     H3X      HAL2     0.900000E-01   1.00800           0
     23256 MEMB     209      POPC     H3Y      HAL2     0.900000E-01   1.00800           0
     23257 MEMB     209      POPC     C34      CTL2    -0.180000       12.0110           0
     23258 MEMB     209      POPC     H4X      HAL2     0.900000E-01   1.00800           0
     23259 MEMB     209      POPC     H4Y      HAL2     0.900000E-01   1.00800           0
     23260 MEMB     209      POPC     C35      CTL2    -0.180000       12.0110           0
     23261 MEMB     209      POPC     H5X      HAL2     0.900000E-01   1.00800           0
     23262 MEMB     209      POPC     H5Y      HAL2     0.900000E-01   1.00800           0
     23263 MEMB     209      POPC     C36      CTL2    -0.180000       12.0110           0
     23264 MEMB     209      POPC     H6X      HAL2     0.900000E-01   1.00800           0
     23265 MEMB     209      POPC     H6Y      HAL2     0.900000E-01   1.00800           0
     23266 MEMB     209      POPC     C37      CTL2    -0.180000       12.0110           0
     23267 MEMB     209      POPC     H7X      HAL2     0.900000E-01   1.00800           0
     23268 MEMB     209      POPC     H7Y      HAL2     0.900000E-01   1.00800           0
     23269 MEMB     209      POPC     C38      CTL2    -0.180000       12.0110           0
     23270 MEMB     209      POPC     H8X      HAL2     0.900000E-01   1.00800           0
     23271 MEMB     209      POPC     H8Y      HAL2     0.900000E-01   1.00800           0
     23272 MEMB     209      POPC     C39      CTL2    -0.180000       12.0110           0
     23273 MEMB     209      POPC     H9X      HAL2     0.900000E-01   1.00800           0
     23274 MEMB     209      POPC     H9Y      HAL2     0.900000E-01   1.00800           0
     23275 MEMB     209      POPC     C310     CTL2    -0.180000       12.0110           0
     23276 MEMB     209      POPC     H10X     HAL2     0.900000E-01   1.00800           0
     23277 MEMB     209      POPC     H10Y     HAL2     0.900000E-01   1.00800           0
     23278 MEMB     209      POPC     C311     CTL2    -0.180000       12.0110           0
     23279 MEMB     209      POPC     H11X     HAL2     0.900000E-01   1.00800           0
     23280 MEMB     209      POPC     H11Y     HAL2     0.900000E-01   1.00800           0
     23281 MEMB     209      POPC     C312     CTL2    -0.180000       12.0110           0
     23282 MEMB     209      POPC     H12X     HAL2     0.900000E-01   1.00800           0
     23283 MEMB     209      POPC     H12Y     HAL2     0.900000E-01   1.00800           0
     23284 MEMB     209      POPC     C313     CTL2    -0.180000       12.0110           0
     23285 MEMB     209      POPC     H13X     HAL2     0.900000E-01   1.00800           0
     23286 MEMB     209      POPC     H13Y     HAL2     0.900000E-01   1.00800           0
     23287 MEMB     209      POPC     C314     CTL2    -0.180000       12.0110           0
     23288 MEMB     209      POPC     H14X     HAL2     0.900000E-01   1.00800           0
     23289 MEMB     209      POPC     H14Y     HAL2     0.900000E-01   1.00800           0
     23290 MEMB     209      POPC     C315     CTL2    -0.180000       12.0110           0
     23291 MEMB     209      POPC     H15X     HAL2     0.900000E-01   1.00800           0
     23292 MEMB     209      POPC     H15Y     HAL2     0.900000E-01   1.00800           0
     23293 MEMB     209      POPC     C316     CTL3    -0.270000       12.0110           0
     23294 MEMB     209      POPC     H16X     HAL3     0.900000E-01   1.00800           0
     23295 MEMB     209      POPC     H16Y     HAL3     0.900000E-01   1.00800           0
     23296 MEMB     209      POPC     H16Z     HAL3     0.900000E-01   1.00800           0
     23297 MEMB     210      POPC     N        NTL     -0.600000       14.0070           0
     23298 MEMB     210      POPC     C12      CTL2    -0.100000       12.0110           0
     23299 MEMB     210      POPC     H12A     HL       0.250000       1.00800           0
     23300 MEMB     210      POPC     H12B     HL       0.250000       1.00800           0
     23301 MEMB     210      POPC     C13      CTL5    -0.350000       12.0110           0
     23302 MEMB     210      POPC     H13A     HL       0.250000       1.00800           0
     23303 MEMB     210      POPC     H13B     HL       0.250000       1.00800           0
     23304 MEMB     210      POPC     H13C     HL       0.250000       1.00800           0
     23305 MEMB     210      POPC     C14      CTL5    -0.350000       12.0110           0
     23306 MEMB     210      POPC     H14A     HL       0.250000       1.00800           0
     23307 MEMB     210      POPC     H14B     HL       0.250000       1.00800           0
     23308 MEMB     210      POPC     H14C     HL       0.250000       1.00800           0
     23309 MEMB     210      POPC     C15      CTL5    -0.350000       12.0110           0
     23310 MEMB     210      POPC     H15A     HL       0.250000       1.00800           0
     23311 MEMB     210      POPC     H15B     HL       0.250000       1.00800           0
     23312 MEMB     210      POPC     H15C     HL       0.250000       1.00800           0
     23313 MEMB     210      POPC     C11      CTL2    -0.800000E-01   12.0110           0
     23314 MEMB     210      POPC     H11A     HAL2     0.900000E-01   1.00800           0
     23315 MEMB     210      POPC     H11B     HAL2     0.900000E-01   1.00800           0
     23316 MEMB     210      POPC     P        PL        1.50000       30.9740           0
     23317 MEMB     210      POPC     O13      O2L     -0.780000       15.9994           0
     23318 MEMB     210      POPC     O14      O2L     -0.780000       15.9994           0
     23319 MEMB     210      POPC     O12      OSLP    -0.570000       15.9994           0
     23320 MEMB     210      POPC     O11      OSLP    -0.570000       15.9994           0
     23321 MEMB     210      POPC     C1       CTL2    -0.800000E-01   12.0110           0
     23322 MEMB     210      POPC     HA       HAL2     0.900000E-01   1.00800           0
     23323 MEMB     210      POPC     HB       HAL2     0.900000E-01   1.00800           0
     23324 MEMB     210      POPC     C2       CTL1     0.170000       12.0110           0
     23325 MEMB     210      POPC     HS       HAL1     0.900000E-01   1.00800           0
     23326 MEMB     210      POPC     O21      OSL     -0.490000       15.9994           0
     23327 MEMB     210      POPC     C21      CL       0.900000       12.0110           0
     23328 MEMB     210      POPC     O22      OBL     -0.630000       15.9994           0
     23329 MEMB     210      POPC     C22      CTL2    -0.220000       12.0110           0
     23330 MEMB     210      POPC     H2R      HAL2     0.900000E-01   1.00800           0
     23331 MEMB     210      POPC     H2S      HAL2     0.900000E-01   1.00800           0
     23332 MEMB     210      POPC     C3       CTL2     0.800000E-01   12.0110           0
     23333 MEMB     210      POPC     HX       HAL2     0.900000E-01   1.00800           0
     23334 MEMB     210      POPC     HY       HAL2     0.900000E-01   1.00800           0
     23335 MEMB     210      POPC     O31      OSL     -0.490000       15.9994           0
     23336 MEMB     210      POPC     C31      CL       0.900000       12.0110           0
     23337 MEMB     210      POPC     O32      OBL     -0.630000       15.9994           0
     23338 MEMB     210      POPC     C32      CTL2    -0.220000       12.0110           0
     23339 MEMB     210      POPC     H2X      HAL2     0.900000E-01   1.00800           0
     23340 MEMB     210      POPC     H2Y      HAL2     0.900000E-01   1.00800           0
     23341 MEMB     210      POPC     C23      CTL2    -0.180000       12.0110           0
     23342 MEMB     210      POPC     H3R      HAL2     0.900000E-01   1.00800           0
     23343 MEMB     210      POPC     H3S      HAL2     0.900000E-01   1.00800           0
     23344 MEMB     210      POPC     C24      CTL2    -0.180000       12.0110           0
     23345 MEMB     210      POPC     H4R      HAL2     0.900000E-01   1.00800           0
     23346 MEMB     210      POPC     H4S      HAL2     0.900000E-01   1.00800           0
     23347 MEMB     210      POPC     C25      CTL2    -0.180000       12.0110           0
     23348 MEMB     210      POPC     H5R      HAL2     0.900000E-01   1.00800           0
     23349 MEMB     210      POPC     H5S      HAL2     0.900000E-01   1.00800           0
     23350 MEMB     210      POPC     C26      CTL2    -0.180000       12.0110           0
     23351 MEMB     210      POPC     H6R      HAL2     0.900000E-01   1.00800           0
     23352 MEMB     210      POPC     H6S      HAL2     0.900000E-01   1.00800           0
     23353 MEMB     210      POPC     C27      CTL2    -0.180000       12.0110           0
     23354 MEMB     210      POPC     H7R      HAL2     0.900000E-01   1.00800           0
     23355 MEMB     210      POPC     H7S      HAL2     0.900000E-01   1.00800           0
     23356 MEMB     210      POPC     C28      CTL2    -0.180000       12.0110           0
     23357 MEMB     210      POPC     H8R      HAL2     0.900000E-01   1.00800           0
     23358 MEMB     210      POPC     H8S      HAL2     0.900000E-01   1.00800           0
     23359 MEMB     210      POPC     C29      CEL1    -0.150000       12.0110           0
     23360 MEMB     210      POPC     H91      HEL1     0.150000       1.00800           0
     23361 MEMB     210      POPC     C210     CEL1    -0.150000       12.0110           0
     23362 MEMB     210      POPC     H101     HEL1     0.150000       1.00800           0
     23363 MEMB     210      POPC     C211     CTL2    -0.180000       12.0110           0
     23364 MEMB     210      POPC     H11R     HAL2     0.900000E-01   1.00800           0
     23365 MEMB     210      POPC     H11S     HAL2     0.900000E-01   1.00800           0
     23366 MEMB     210      POPC     C212     CTL2    -0.180000       12.0110           0
     23367 MEMB     210      POPC     H12R     HAL2     0.900000E-01   1.00800           0
     23368 MEMB     210      POPC     H12S     HAL2     0.900000E-01   1.00800           0
     23369 MEMB     210      POPC     C213     CTL2    -0.180000       12.0110           0
     23370 MEMB     210      POPC     H13R     HAL2     0.900000E-01   1.00800           0
     23371 MEMB     210      POPC     H13S     HAL2     0.900000E-01   1.00800           0
     23372 MEMB     210      POPC     C214     CTL2    -0.180000       12.0110           0
     23373 MEMB     210      POPC     H14R     HAL2     0.900000E-01   1.00800           0
     23374 MEMB     210      POPC     H14S     HAL2     0.900000E-01   1.00800           0
     23375 MEMB     210      POPC     C215     CTL2    -0.180000       12.0110           0
     23376 MEMB     210      POPC     H15R     HAL2     0.900000E-01   1.00800           0
     23377 MEMB     210      POPC     H15S     HAL2     0.900000E-01   1.00800           0
     23378 MEMB     210      POPC     C216     CTL2    -0.180000       12.0110           0
     23379 MEMB     210      POPC     H16R     HAL2     0.900000E-01   1.00800           0
     23380 MEMB     210      POPC     H16S     HAL2     0.900000E-01   1.00800           0
     23381 MEMB     210      POPC     C217     CTL2    -0.180000       12.0110           0
     23382 MEMB     210      POPC     H17R     HAL2     0.900000E-01   1.00800           0
     23383 MEMB     210      POPC     H17S     HAL2     0.900000E-01   1.00800           0
     23384 MEMB     210      POPC     C218     CTL3    -0.270000       12.0110           0
     23385 MEMB     210      POPC     H18R     HAL3     0.900000E-01   1.00800           0
     23386 MEMB     210      POPC     H18S     HAL3     0.900000E-01   1.00800           0
     23387 MEMB     210      POPC     H18T     HAL3     0.900000E-01   1.00800           0
     23388 MEMB     210      POPC     C33      CTL2    -0.180000       12.0110           0
     23389 MEMB     210      POPC     H3X      HAL2     0.900000E-01   1.00800           0
     23390 MEMB     210      POPC     H3Y      HAL2     0.900000E-01   1.00800           0
     23391 MEMB     210      POPC     C34      CTL2    -0.180000       12.0110           0
     23392 MEMB     210      POPC     H4X      HAL2     0.900000E-01   1.00800           0
     23393 MEMB     210      POPC     H4Y      HAL2     0.900000E-01   1.00800           0
     23394 MEMB     210      POPC     C35      CTL2    -0.180000       12.0110           0
     23395 MEMB     210      POPC     H5X      HAL2     0.900000E-01   1.00800           0
     23396 MEMB     210      POPC     H5Y      HAL2     0.900000E-01   1.00800           0
     23397 MEMB     210      POPC     C36      CTL2    -0.180000       12.0110           0
     23398 MEMB     210      POPC     H6X      HAL2     0.900000E-01   1.00800           0
     23399 MEMB     210      POPC     H6Y      HAL2     0.900000E-01   1.00800           0
     23400 MEMB     210      POPC     C37      CTL2    -0.180000       12.0110           0
     23401 MEMB     210      POPC     H7X      HAL2     0.900000E-01   1.00800           0
     23402 MEMB     210      POPC     H7Y      HAL2     0.900000E-01   1.00800           0
     23403 MEMB     210      POPC     C38      CTL2    -0.180000       12.0110           0
     23404 MEMB     210      POPC     H8X      HAL2     0.900000E-01   1.00800           0
     23405 MEMB     210      POPC     H8Y      HAL2     0.900000E-01   1.00800           0
     23406 MEMB     210      POPC     C39      CTL2    -0.180000       12.0110           0
     23407 MEMB     210      POPC     H9X      HAL2     0.900000E-01   1.00800           0
     23408 MEMB     210      POPC     H9Y      HAL2     0.900000E-01   1.00800           0
     23409 MEMB     210      POPC     C310     CTL2    -0.180000       12.0110           0
     23410 MEMB     210      POPC     H10X     HAL2     0.900000E-01   1.00800           0
     23411 MEMB     210      POPC     H10Y     HAL2     0.900000E-01   1.00800           0
     23412 MEMB     210      POPC     C311     CTL2    -0.180000       12.0110           0
     23413 MEMB     210      POPC     H11X     HAL2     0.900000E-01   1.00800           0
     23414 MEMB     210      POPC     H11Y     HAL2     0.900000E-01   1.00800           0
     23415 MEMB     210      POPC     C312     CTL2    -0.180000       12.0110           0
     23416 MEMB     210      POPC     H12X     HAL2     0.900000E-01   1.00800           0
     23417 MEMB     210      POPC     H12Y     HAL2     0.900000E-01   1.00800           0
     23418 MEMB     210      POPC     C313     CTL2    -0.180000       12.0110           0
     23419 MEMB     210      POPC     H13X     HAL2     0.900000E-01   1.00800           0
     23420 MEMB     210      POPC     H13Y     HAL2     0.900000E-01   1.00800           0
     23421 MEMB     210      POPC     C314     CTL2    -0.180000       12.0110           0
     23422 MEMB     210      POPC     H14X     HAL2     0.900000E-01   1.00800           0
     23423 MEMB     210      POPC     H14Y     HAL2     0.900000E-01   1.00800           0
     23424 MEMB     210      POPC     C315     CTL2    -0.180000       12.0110           0
     23425 MEMB     210      POPC     H15X     HAL2     0.900000E-01   1.00800           0
     23426 MEMB     210      POPC     H15Y     HAL2     0.900000E-01   1.00800           0
     23427 MEMB     210      POPC     C316     CTL3    -0.270000       12.0110           0
     23428 MEMB     210      POPC     H16X     HAL3     0.900000E-01   1.00800           0
     23429 MEMB     210      POPC     H16Y     HAL3     0.900000E-01   1.00800           0
     23430 MEMB     210      POPC     H16Z     HAL3     0.900000E-01   1.00800           0
     23431 MEMB     211      POPC     N        NTL     -0.600000       14.0070           0
     23432 MEMB     211      POPC     C12      CTL2    -0.100000       12.0110           0
     23433 MEMB     211      POPC     H12A     HL       0.250000       1.00800           0
     23434 MEMB     211      POPC     H12B     HL       0.250000       1.00800           0
     23435 MEMB     211      POPC     C13      CTL5    -0.350000       12.0110           0
     23436 MEMB     211      POPC     H13A     HL       0.250000       1.00800           0
     23437 MEMB     211      POPC     H13B     HL       0.250000       1.00800           0
     23438 MEMB     211      POPC     H13C     HL       0.250000       1.00800           0
     23439 MEMB     211      POPC     C14      CTL5    -0.350000       12.0110           0
     23440 MEMB     211      POPC     H14A     HL       0.250000       1.00800           0
     23441 MEMB     211      POPC     H14B     HL       0.250000       1.00800           0
     23442 MEMB     211      POPC     H14C     HL       0.250000       1.00800           0
     23443 MEMB     211      POPC     C15      CTL5    -0.350000       12.0110           0
     23444 MEMB     211      POPC     H15A     HL       0.250000       1.00800           0
     23445 MEMB     211      POPC     H15B     HL       0.250000       1.00800           0
     23446 MEMB     211      POPC     H15C     HL       0.250000       1.00800           0
     23447 MEMB     211      POPC     C11      CTL2    -0.800000E-01   12.0110           0
     23448 MEMB     211      POPC     H11A     HAL2     0.900000E-01   1.00800           0
     23449 MEMB     211      POPC     H11B     HAL2     0.900000E-01   1.00800           0
     23450 MEMB     211      POPC     P        PL        1.50000       30.9740           0
     23451 MEMB     211      POPC     O13      O2L     -0.780000       15.9994           0
     23452 MEMB     211      POPC     O14      O2L     -0.780000       15.9994           0
     23453 MEMB     211      POPC     O12      OSLP    -0.570000       15.9994           0
     23454 MEMB     211      POPC     O11      OSLP    -0.570000       15.9994           0
     23455 MEMB     211      POPC     C1       CTL2    -0.800000E-01   12.0110           0
     23456 MEMB     211      POPC     HA       HAL2     0.900000E-01   1.00800           0
     23457 MEMB     211      POPC     HB       HAL2     0.900000E-01   1.00800           0
     23458 MEMB     211      POPC     C2       CTL1     0.170000       12.0110           0
     23459 MEMB     211      POPC     HS       HAL1     0.900000E-01   1.00800           0
     23460 MEMB     211      POPC     O21      OSL     -0.490000       15.9994           0
     23461 MEMB     211      POPC     C21      CL       0.900000       12.0110           0
     23462 MEMB     211      POPC     O22      OBL     -0.630000       15.9994           0
     23463 MEMB     211      POPC     C22      CTL2    -0.220000       12.0110           0
     23464 MEMB     211      POPC     H2R      HAL2     0.900000E-01   1.00800           0
     23465 MEMB     211      POPC     H2S      HAL2     0.900000E-01   1.00800           0
     23466 MEMB     211      POPC     C3       CTL2     0.800000E-01   12.0110           0
     23467 MEMB     211      POPC     HX       HAL2     0.900000E-01   1.00800           0
     23468 MEMB     211      POPC     HY       HAL2     0.900000E-01   1.00800           0
     23469 MEMB     211      POPC     O31      OSL     -0.490000       15.9994           0
     23470 MEMB     211      POPC     C31      CL       0.900000       12.0110           0
     23471 MEMB     211      POPC     O32      OBL     -0.630000       15.9994           0
     23472 MEMB     211      POPC     C32      CTL2    -0.220000       12.0110           0
     23473 MEMB     211      POPC     H2X      HAL2     0.900000E-01   1.00800           0
     23474 MEMB     211      POPC     H2Y      HAL2     0.900000E-01   1.00800           0
     23475 MEMB     211      POPC     C23      CTL2    -0.180000       12.0110           0
     23476 MEMB     211      POPC     H3R      HAL2     0.900000E-01   1.00800           0
     23477 MEMB     211      POPC     H3S      HAL2     0.900000E-01   1.00800           0
     23478 MEMB     211      POPC     C24      CTL2    -0.180000       12.0110           0
     23479 MEMB     211      POPC     H4R      HAL2     0.900000E-01   1.00800           0
     23480 MEMB     211      POPC     H4S      HAL2     0.900000E-01   1.00800           0
     23481 MEMB     211      POPC     C25      CTL2    -0.180000       12.0110           0
     23482 MEMB     211      POPC     H5R      HAL2     0.900000E-01   1.00800           0
     23483 MEMB     211      POPC     H5S      HAL2     0.900000E-01   1.00800           0
     23484 MEMB     211      POPC     C26      CTL2    -0.180000       12.0110           0
     23485 MEMB     211      POPC     H6R      HAL2     0.900000E-01   1.00800           0
     23486 MEMB     211      POPC     H6S      HAL2     0.900000E-01   1.00800           0
     23487 MEMB     211      POPC     C27      CTL2    -0.180000       12.0110           0
     23488 MEMB     211      POPC     H7R      HAL2     0.900000E-01   1.00800           0
     23489 MEMB     211      POPC     H7S      HAL2     0.900000E-01   1.00800           0
     23490 MEMB     211      POPC     C28      CTL2    -0.180000       12.0110           0
     23491 MEMB     211      POPC     H8R      HAL2     0.900000E-01   1.00800           0
     23492 MEMB     211      POPC     H8S      HAL2     0.900000E-01   1.00800           0
     23493 MEMB     211      POPC     C29      CEL1    -0.150000       12.0110           0
     23494 MEMB     211      POPC     H91      HEL1     0.150000       1.00800           0
     23495 MEMB     211      POPC     C210     CEL1    -0.150000       12.0110           0
     23496 MEMB     211      POPC     H101     HEL1     0.150000       1.00800           0
     23497 MEMB     211      POPC     C211     CTL2    -0.180000       12.0110           0
     23498 MEMB     211      POPC     H11R     HAL2     0.900000E-01   1.00800           0
     23499 MEMB     211      POPC     H11S     HAL2     0.900000E-01   1.00800           0
     23500 MEMB     211      POPC     C212     CTL2    -0.180000       12.0110           0
     23501 MEMB     211      POPC     H12R     HAL2     0.900000E-01   1.00800           0
     23502 MEMB     211      POPC     H12S     HAL2     0.900000E-01   1.00800           0
     23503 MEMB     211      POPC     C213     CTL2    -0.180000       12.0110           0
     23504 MEMB     211      POPC     H13R     HAL2     0.900000E-01   1.00800           0
     23505 MEMB     211      POPC     H13S     HAL2     0.900000E-01   1.00800           0
     23506 MEMB     211      POPC     C214     CTL2    -0.180000       12.0110           0
     23507 MEMB     211      POPC     H14R     HAL2     0.900000E-01   1.00800           0
     23508 MEMB     211      POPC     H14S     HAL2     0.900000E-01   1.00800           0
     23509 MEMB     211      POPC     C215     CTL2    -0.180000       12.0110           0
     23510 MEMB     211      POPC     H15R     HAL2     0.900000E-01   1.00800           0
     23511 MEMB     211      POPC     H15S     HAL2     0.900000E-01   1.00800           0
     23512 MEMB     211      POPC     C216     CTL2    -0.180000       12.0110           0
     23513 MEMB     211      POPC     H16R     HAL2     0.900000E-01   1.00800           0
     23514 MEMB     211      POPC     H16S     HAL2     0.900000E-01   1.00800           0
     23515 MEMB     211      POPC     C217     CTL2    -0.180000       12.0110           0
     23516 MEMB     211      POPC     H17R     HAL2     0.900000E-01   1.00800           0
     23517 MEMB     211      POPC     H17S     HAL2     0.900000E-01   1.00800           0
     23518 MEMB     211      POPC     C218     CTL3    -0.270000       12.0110           0
     23519 MEMB     211      POPC     H18R     HAL3     0.900000E-01   1.00800           0
     23520 MEMB     211      POPC     H18S     HAL3     0.900000E-01   1.00800           0
     23521 MEMB     211      POPC     H18T     HAL3     0.900000E-01   1.00800           0
     23522 MEMB     211      POPC     C33      CTL2    -0.180000       12.0110           0
     23523 MEMB     211      POPC     H3X      HAL2     0.900000E-01   1.00800           0
     23524 MEMB     211      POPC     H3Y      HAL2     0.900000E-01   1.00800           0
     23525 MEMB     211      POPC     C34      CTL2    -0.180000       12.0110           0
     23526 MEMB     211      POPC     H4X      HAL2     0.900000E-01   1.00800           0
     23527 MEMB     211      POPC     H4Y      HAL2     0.900000E-01   1.00800           0
     23528 MEMB     211      POPC     C35      CTL2    -0.180000       12.0110           0
     23529 MEMB     211      POPC     H5X      HAL2     0.900000E-01   1.00800           0
     23530 MEMB     211      POPC     H5Y      HAL2     0.900000E-01   1.00800           0
     23531 MEMB     211      POPC     C36      CTL2    -0.180000       12.0110           0
     23532 MEMB     211      POPC     H6X      HAL2     0.900000E-01   1.00800           0
     23533 MEMB     211      POPC     H6Y      HAL2     0.900000E-01   1.00800           0
     23534 MEMB     211      POPC     C37      CTL2    -0.180000       12.0110           0
     23535 MEMB     211      POPC     H7X      HAL2     0.900000E-01   1.00800           0
     23536 MEMB     211      POPC     H7Y      HAL2     0.900000E-01   1.00800           0
     23537 MEMB     211      POPC     C38      CTL2    -0.180000       12.0110           0
     23538 MEMB     211      POPC     H8X      HAL2     0.900000E-01   1.00800           0
     23539 MEMB     211      POPC     H8Y      HAL2     0.900000E-01   1.00800           0
     23540 MEMB     211      POPC     C39      CTL2    -0.180000       12.0110           0
     23541 MEMB     211      POPC     H9X      HAL2     0.900000E-01   1.00800           0
     23542 MEMB     211      POPC     H9Y      HAL2     0.900000E-01   1.00800           0
     23543 MEMB     211      POPC     C310     CTL2    -0.180000       12.0110           0
     23544 MEMB     211      POPC     H10X     HAL2     0.900000E-01   1.00800           0
     23545 MEMB     211      POPC     H10Y     HAL2     0.900000E-01   1.00800           0
     23546 MEMB     211      POPC     C311     CTL2    -0.180000       12.0110           0
     23547 MEMB     211      POPC     H11X     HAL2     0.900000E-01   1.00800           0
     23548 MEMB     211      POPC     H11Y     HAL2     0.900000E-01   1.00800           0
     23549 MEMB     211      POPC     C312     CTL2    -0.180000       12.0110           0
     23550 MEMB     211      POPC     H12X     HAL2     0.900000E-01   1.00800           0
     23551 MEMB     211      POPC     H12Y     HAL2     0.900000E-01   1.00800           0
     23552 MEMB     211      POPC     C313     CTL2    -0.180000       12.0110           0
     23553 MEMB     211      POPC     H13X     HAL2     0.900000E-01   1.00800           0
     23554 MEMB     211      POPC     H13Y     HAL2     0.900000E-01   1.00800           0
     23555 MEMB     211      POPC     C314     CTL2    -0.180000       12.0110           0
     23556 MEMB     211      POPC     H14X     HAL2     0.900000E-01   1.00800           0
     23557 MEMB     211      POPC     H14Y     HAL2     0.900000E-01   1.00800           0
     23558 MEMB     211      POPC     C315     CTL2    -0.180000       12.0110           0
     23559 MEMB     211      POPC     H15X     HAL2     0.900000E-01   1.00800           0
     23560 MEMB     211      POPC     H15Y     HAL2     0.900000E-01   1.00800           0
     23561 MEMB     211      POPC     C316     CTL3    -0.270000       12.0110           0
     23562 MEMB     211      POPC     H16X     HAL3     0.900000E-01   1.00800           0
     23563 MEMB     211      POPC     H16Y     HAL3     0.900000E-01   1.00800           0
     23564 MEMB     211      POPC     H16Z     HAL3     0.900000E-01   1.00800           0
     23565 MEMB     212      POPC     N        NTL     -0.600000       14.0070           0
     23566 MEMB     212      POPC     C12      CTL2    -0.100000       12.0110           0
     23567 MEMB     212      POPC     H12A     HL       0.250000       1.00800           0
     23568 MEMB     212      POPC     H12B     HL       0.250000       1.00800           0
     23569 MEMB     212      POPC     C13      CTL5    -0.350000       12.0110           0
     23570 MEMB     212      POPC     H13A     HL       0.250000       1.00800           0
     23571 MEMB     212      POPC     H13B     HL       0.250000       1.00800           0
     23572 MEMB     212      POPC     H13C     HL       0.250000       1.00800           0
     23573 MEMB     212      POPC     C14      CTL5    -0.350000       12.0110           0
     23574 MEMB     212      POPC     H14A     HL       0.250000       1.00800           0
     23575 MEMB     212      POPC     H14B     HL       0.250000       1.00800           0
     23576 MEMB     212      POPC     H14C     HL       0.250000       1.00800           0
     23577 MEMB     212      POPC     C15      CTL5    -0.350000       12.0110           0
     23578 MEMB     212      POPC     H15A     HL       0.250000       1.00800           0
     23579 MEMB     212      POPC     H15B     HL       0.250000       1.00800           0
     23580 MEMB     212      POPC     H15C     HL       0.250000       1.00800           0
     23581 MEMB     212      POPC     C11      CTL2    -0.800000E-01   12.0110           0
     23582 MEMB     212      POPC     H11A     HAL2     0.900000E-01   1.00800           0
     23583 MEMB     212      POPC     H11B     HAL2     0.900000E-01   1.00800           0
     23584 MEMB     212      POPC     P        PL        1.50000       30.9740           0
     23585 MEMB     212      POPC     O13      O2L     -0.780000       15.9994           0
     23586 MEMB     212      POPC     O14      O2L     -0.780000       15.9994           0
     23587 MEMB     212      POPC     O12      OSLP    -0.570000       15.9994           0
     23588 MEMB     212      POPC     O11      OSLP    -0.570000       15.9994           0
     23589 MEMB     212      POPC     C1       CTL2    -0.800000E-01   12.0110           0
     23590 MEMB     212      POPC     HA       HAL2     0.900000E-01   1.00800           0
     23591 MEMB     212      POPC     HB       HAL2     0.900000E-01   1.00800           0
     23592 MEMB     212      POPC     C2       CTL1     0.170000       12.0110           0
     23593 MEMB     212      POPC     HS       HAL1     0.900000E-01   1.00800           0
     23594 MEMB     212      POPC     O21      OSL     -0.490000       15.9994           0
     23595 MEMB     212      POPC     C21      CL       0.900000       12.0110           0
     23596 MEMB     212      POPC     O22      OBL     -0.630000       15.9994           0
     23597 MEMB     212      POPC     C22      CTL2    -0.220000       12.0110           0
     23598 MEMB     212      POPC     H2R      HAL2     0.900000E-01   1.00800           0
     23599 MEMB     212      POPC     H2S      HAL2     0.900000E-01   1.00800           0
     23600 MEMB     212      POPC     C3       CTL2     0.800000E-01   12.0110           0
     23601 MEMB     212      POPC     HX       HAL2     0.900000E-01   1.00800           0
     23602 MEMB     212      POPC     HY       HAL2     0.900000E-01   1.00800           0
     23603 MEMB     212      POPC     O31      OSL     -0.490000       15.9994           0
     23604 MEMB     212      POPC     C31      CL       0.900000       12.0110           0
     23605 MEMB     212      POPC     O32      OBL     -0.630000       15.9994           0
     23606 MEMB     212      POPC     C32      CTL2    -0.220000       12.0110           0
     23607 MEMB     212      POPC     H2X      HAL2     0.900000E-01   1.00800           0
     23608 MEMB     212      POPC     H2Y      HAL2     0.900000E-01   1.00800           0
     23609 MEMB     212      POPC     C23      CTL2    -0.180000       12.0110           0
     23610 MEMB     212      POPC     H3R      HAL2     0.900000E-01   1.00800           0
     23611 MEMB     212      POPC     H3S      HAL2     0.900000E-01   1.00800           0
     23612 MEMB     212      POPC     C24      CTL2    -0.180000       12.0110           0
     23613 MEMB     212      POPC     H4R      HAL2     0.900000E-01   1.00800           0
     23614 MEMB     212      POPC     H4S      HAL2     0.900000E-01   1.00800           0
     23615 MEMB     212      POPC     C25      CTL2    -0.180000       12.0110           0
     23616 MEMB     212      POPC     H5R      HAL2     0.900000E-01   1.00800           0
     23617 MEMB     212      POPC     H5S      HAL2     0.900000E-01   1.00800           0
     23618 MEMB     212      POPC     C26      CTL2    -0.180000       12.0110           0
     23619 MEMB     212      POPC     H6R      HAL2     0.900000E-01   1.00800           0
     23620 MEMB     212      POPC     H6S      HAL2     0.900000E-01   1.00800           0
     23621 MEMB     212      POPC     C27      CTL2    -0.180000       12.0110           0
     23622 MEMB     212      POPC     H7R      HAL2     0.900000E-01   1.00800           0
     23623 MEMB     212      POPC     H7S      HAL2     0.900000E-01   1.00800           0
     23624 MEMB     212      POPC     C28      CTL2    -0.180000       12.0110           0
     23625 MEMB     212      POPC     H8R      HAL2     0.900000E-01   1.00800           0
     23626 MEMB     212      POPC     H8S      HAL2     0.900000E-01   1.00800           0
     23627 MEMB     212      POPC     C29      CEL1    -0.150000       12.0110           0
     23628 MEMB     212      POPC     H91      HEL1     0.150000       1.00800           0
     23629 MEMB     212      POPC     C210     CEL1    -0.150000       12.0110           0
     23630 MEMB     212      POPC     H101     HEL1     0.150000       1.00800           0
     23631 MEMB     212      POPC     C211     CTL2    -0.180000       12.0110           0
     23632 MEMB     212      POPC     H11R     HAL2     0.900000E-01   1.00800           0
     23633 MEMB     212      POPC     H11S     HAL2     0.900000E-01   1.00800           0
     23634 MEMB     212      POPC     C212     CTL2    -0.180000       12.0110           0
     23635 MEMB     212      POPC     H12R     HAL2     0.900000E-01   1.00800           0
     23636 MEMB     212      POPC     H12S     HAL2     0.900000E-01   1.00800           0
     23637 MEMB     212      POPC     C213     CTL2    -0.180000       12.0110           0
     23638 MEMB     212      POPC     H13R     HAL2     0.900000E-01   1.00800           0
     23639 MEMB     212      POPC     H13S     HAL2     0.900000E-01   1.00800           0
     23640 MEMB     212      POPC     C214     CTL2    -0.180000       12.0110           0
     23641 MEMB     212      POPC     H14R     HAL2     0.900000E-01   1.00800           0
     23642 MEMB     212      POPC     H14S     HAL2     0.900000E-01   1.00800           0
     23643 MEMB     212      POPC     C215     CTL2    -0.180000       12.0110           0
     23644 MEMB     212      POPC     H15R     HAL2     0.900000E-01   1.00800           0
     23645 MEMB     212      POPC     H15S     HAL2     0.900000E-01   1.00800           0
     23646 MEMB     212      POPC     C216     CTL2    -0.180000       12.0110           0
     23647 MEMB     212      POPC     H16R     HAL2     0.900000E-01   1.00800           0
     23648 MEMB     212      POPC     H16S     HAL2     0.900000E-01   1.00800           0
     23649 MEMB     212      POPC     C217     CTL2    -0.180000       12.0110           0
     23650 MEMB     212      POPC     H17R     HAL2     0.900000E-01   1.00800           0
     23651 MEMB     212      POPC     H17S     HAL2     0.900000E-01   1.00800           0
     23652 MEMB     212      POPC     C218     CTL3    -0.270000       12.0110           0
     23653 MEMB     212      POPC     H18R     HAL3     0.900000E-01   1.00800           0
     23654 MEMB     212      POPC     H18S     HAL3     0.900000E-01   1.00800           0
     23655 MEMB     212      POPC     H18T     HAL3     0.900000E-01   1.00800           0
     23656 MEMB     212      POPC     C33      CTL2    -0.180000       12.0110           0
     23657 MEMB     212      POPC     H3X      HAL2     0.900000E-01   1.00800           0
     23658 MEMB     212      POPC     H3Y      HAL2     0.900000E-01   1.00800           0
     23659 MEMB     212      POPC     C34      CTL2    -0.180000       12.0110           0
     23660 MEMB     212      POPC     H4X      HAL2     0.900000E-01   1.00800           0
     23661 MEMB     212      POPC     H4Y      HAL2     0.900000E-01   1.00800           0
     23662 MEMB     212      POPC     C35      CTL2    -0.180000       12.0110           0
     23663 MEMB     212      POPC     H5X      HAL2     0.900000E-01   1.00800           0
     23664 MEMB     212      POPC     H5Y      HAL2     0.900000E-01   1.00800           0
     23665 MEMB     212      POPC     C36      CTL2    -0.180000       12.0110           0
     23666 MEMB     212      POPC     H6X      HAL2     0.900000E-01   1.00800           0
     23667 MEMB     212      POPC     H6Y      HAL2     0.900000E-01   1.00800           0
     23668 MEMB     212      POPC     C37      CTL2    -0.180000       12.0110           0
     23669 MEMB     212      POPC     H7X      HAL2     0.900000E-01   1.00800           0
     23670 MEMB     212      POPC     H7Y      HAL2     0.900000E-01   1.00800           0
     23671 MEMB     212      POPC     C38      CTL2    -0.180000       12.0110           0
     23672 MEMB     212      POPC     H8X      HAL2     0.900000E-01   1.00800           0
     23673 MEMB     212      POPC     H8Y      HAL2     0.900000E-01   1.00800           0
     23674 MEMB     212      POPC     C39      CTL2    -0.180000       12.0110           0
     23675 MEMB     212      POPC     H9X      HAL2     0.900000E-01   1.00800           0
     23676 MEMB     212      POPC     H9Y      HAL2     0.900000E-01   1.00800           0
     23677 MEMB     212      POPC     C310     CTL2    -0.180000       12.0110           0
     23678 MEMB     212      POPC     H10X     HAL2     0.900000E-01   1.00800           0
     23679 MEMB     212      POPC     H10Y     HAL2     0.900000E-01   1.00800           0
     23680 MEMB     212      POPC     C311     CTL2    -0.180000       12.0110           0
     23681 MEMB     212      POPC     H11X     HAL2     0.900000E-01   1.00800           0
     23682 MEMB     212      POPC     H11Y     HAL2     0.900000E-01   1.00800           0
     23683 MEMB     212      POPC     C312     CTL2    -0.180000       12.0110           0
     23684 MEMB     212      POPC     H12X     HAL2     0.900000E-01   1.00800           0
     23685 MEMB     212      POPC     H12Y     HAL2     0.900000E-01   1.00800           0
     23686 MEMB     212      POPC     C313     CTL2    -0.180000       12.0110           0
     23687 MEMB     212      POPC     H13X     HAL2     0.900000E-01   1.00800           0
     23688 MEMB     212      POPC     H13Y     HAL2     0.900000E-01   1.00800           0
     23689 MEMB     212      POPC     C314     CTL2    -0.180000       12.0110           0
     23690 MEMB     212      POPC     H14X     HAL2     0.900000E-01   1.00800           0
     23691 MEMB     212      POPC     H14Y     HAL2     0.900000E-01   1.00800           0
     23692 MEMB     212      POPC     C315     CTL2    -0.180000       12.0110           0
     23693 MEMB     212      POPC     H15X     HAL2     0.900000E-01   1.00800           0
     23694 MEMB     212      POPC     H15Y     HAL2     0.900000E-01   1.00800           0
     23695 MEMB     212      POPC     C316     CTL3    -0.270000       12.0110           0
     23696 MEMB     212      POPC     H16X     HAL3     0.900000E-01   1.00800           0
     23697 MEMB     212      POPC     H16Y     HAL3     0.900000E-01   1.00800           0
     23698 MEMB     212      POPC     H16Z     HAL3     0.900000E-01   1.00800           0
     23699 MEMB     213      POPE     N        NH3L    -0.300000       14.0070           0
     23700 MEMB     213      POPE     HN1      HCL      0.330000       1.00800           0
     23701 MEMB     213      POPE     HN2      HCL      0.330000       1.00800           0
     23702 MEMB     213      POPE     HN3      HCL      0.330000       1.00800           0
     23703 MEMB     213      POPE     C12      CTL2     0.130000       12.0110           0
     23704 MEMB     213      POPE     H12A     HAL2     0.900000E-01   1.00800           0
     23705 MEMB     213      POPE     H12B     HAL2     0.900000E-01   1.00800           0
     23706 MEMB     213      POPE     C11      CTL2    -0.800000E-01   12.0110           0
     23707 MEMB     213      POPE     H11A     HAL2     0.900000E-01   1.00800           0
     23708 MEMB     213      POPE     H11B     HAL2     0.900000E-01   1.00800           0
     23709 MEMB     213      POPE     P        PL        1.50000       30.9740           0
     23710 MEMB     213      POPE     O13      O2L     -0.780000       15.9994           0
     23711 MEMB     213      POPE     O14      O2L     -0.780000       15.9994           0
     23712 MEMB     213      POPE     O11      OSLP    -0.570000       15.9994           0
     23713 MEMB     213      POPE     O12      OSLP    -0.570000       15.9994           0
     23714 MEMB     213      POPE     C1       CTL2    -0.800000E-01   12.0110           0
     23715 MEMB     213      POPE     HA       HAL2     0.900000E-01   1.00800           0
     23716 MEMB     213      POPE     HB       HAL2     0.900000E-01   1.00800           0
     23717 MEMB     213      POPE     C2       CTL1     0.170000       12.0110           0
     23718 MEMB     213      POPE     HS       HAL1     0.900000E-01   1.00800           0
     23719 MEMB     213      POPE     O21      OSL     -0.490000       15.9994           0
     23720 MEMB     213      POPE     C21      CL       0.900000       12.0110           0
     23721 MEMB     213      POPE     O22      OBL     -0.630000       15.9994           0
     23722 MEMB     213      POPE     C22      CTL2    -0.220000       12.0110           0
     23723 MEMB     213      POPE     H2R      HAL2     0.900000E-01   1.00800           0
     23724 MEMB     213      POPE     H2S      HAL2     0.900000E-01   1.00800           0
     23725 MEMB     213      POPE     C3       CTL2     0.800000E-01   12.0110           0
     23726 MEMB     213      POPE     HX       HAL2     0.900000E-01   1.00800           0
     23727 MEMB     213      POPE     HY       HAL2     0.900000E-01   1.00800           0
     23728 MEMB     213      POPE     O31      OSL     -0.490000       15.9994           0
     23729 MEMB     213      POPE     C31      CL       0.900000       12.0110           0
     23730 MEMB     213      POPE     O32      OBL     -0.630000       15.9994           0
     23731 MEMB     213      POPE     C32      CTL2    -0.220000       12.0110           0
     23732 MEMB     213      POPE     H2X      HAL2     0.900000E-01   1.00800           0
     23733 MEMB     213      POPE     H2Y      HAL2     0.900000E-01   1.00800           0
     23734 MEMB     213      POPE     C23      CTL2    -0.180000       12.0110           0
     23735 MEMB     213      POPE     H3R      HAL2     0.900000E-01   1.00800           0
     23736 MEMB     213      POPE     H3S      HAL2     0.900000E-01   1.00800           0
     23737 MEMB     213      POPE     C24      CTL2    -0.180000       12.0110           0
     23738 MEMB     213      POPE     H4R      HAL2     0.900000E-01   1.00800           0
     23739 MEMB     213      POPE     H4S      HAL2     0.900000E-01   1.00800           0
     23740 MEMB     213      POPE     C25      CTL2    -0.180000       12.0110           0
     23741 MEMB     213      POPE     H5R      HAL2     0.900000E-01   1.00800           0
     23742 MEMB     213      POPE     H5S      HAL2     0.900000E-01   1.00800           0
     23743 MEMB     213      POPE     C26      CTL2    -0.180000       12.0110           0
     23744 MEMB     213      POPE     H6R      HAL2     0.900000E-01   1.00800           0
     23745 MEMB     213      POPE     H6S      HAL2     0.900000E-01   1.00800           0
     23746 MEMB     213      POPE     C27      CTL2    -0.180000       12.0110           0
     23747 MEMB     213      POPE     H7R      HAL2     0.900000E-01   1.00800           0
     23748 MEMB     213      POPE     H7S      HAL2     0.900000E-01   1.00800           0
     23749 MEMB     213      POPE     C28      CTL2    -0.180000       12.0110           0
     23750 MEMB     213      POPE     H8R      HAL2     0.900000E-01   1.00800           0
     23751 MEMB     213      POPE     H8S      HAL2     0.900000E-01   1.00800           0
     23752 MEMB     213      POPE     C29      CEL1    -0.150000       12.0110           0
     23753 MEMB     213      POPE     H91      HEL1     0.150000       1.00800           0
     23754 MEMB     213      POPE     C210     CEL1    -0.150000       12.0110           0
     23755 MEMB     213      POPE     H101     HEL1     0.150000       1.00800           0
     23756 MEMB     213      POPE     C211     CTL2    -0.180000       12.0110           0
     23757 MEMB     213      POPE     H11R     HAL2     0.900000E-01   1.00800           0
     23758 MEMB     213      POPE     H11S     HAL2     0.900000E-01   1.00800           0
     23759 MEMB     213      POPE     C212     CTL2    -0.180000       12.0110           0
     23760 MEMB     213      POPE     H12R     HAL2     0.900000E-01   1.00800           0
     23761 MEMB     213      POPE     H12S     HAL2     0.900000E-01   1.00800           0
     23762 MEMB     213      POPE     C213     CTL2    -0.180000       12.0110           0
     23763 MEMB     213      POPE     H13R     HAL2     0.900000E-01   1.00800           0
     23764 MEMB     213      POPE     H13S     HAL2     0.900000E-01   1.00800           0
     23765 MEMB     213      POPE     C214     CTL2    -0.180000       12.0110           0
     23766 MEMB     213      POPE     H14R     HAL2     0.900000E-01   1.00800           0
     23767 MEMB     213      POPE     H14S     HAL2     0.900000E-01   1.00800           0
     23768 MEMB     213      POPE     C215     CTL2    -0.180000       12.0110           0
     23769 MEMB     213      POPE     H15R     HAL2     0.900000E-01   1.00800           0
     23770 MEMB     213      POPE     H15S     HAL2     0.900000E-01   1.00800           0
     23771 MEMB     213      POPE     C216     CTL2    -0.180000       12.0110           0
     23772 MEMB     213      POPE     H16R     HAL2     0.900000E-01   1.00800           0
     23773 MEMB     213      POPE     H16S     HAL2     0.900000E-01   1.00800           0
     23774 MEMB     213      POPE     C217     CTL2    -0.180000       12.0110           0
     23775 MEMB     213      POPE     H17R     HAL2     0.900000E-01   1.00800           0
     23776 MEMB     213      POPE     H17S     HAL2     0.900000E-01   1.00800           0
     23777 MEMB     213      POPE     C218     CTL3    -0.270000       12.0110           0
     23778 MEMB     213      POPE     H18R     HAL3     0.900000E-01   1.00800           0
     23779 MEMB     213      POPE     H18S     HAL3     0.900000E-01   1.00800           0
     23780 MEMB     213      POPE     H18T     HAL3     0.900000E-01   1.00800           0
     23781 MEMB     213      POPE     C33      CTL2    -0.180000       12.0110           0
     23782 MEMB     213      POPE     H3X      HAL2     0.900000E-01   1.00800           0
     23783 MEMB     213      POPE     H3Y      HAL2     0.900000E-01   1.00800           0
     23784 MEMB     213      POPE     C34      CTL2    -0.180000       12.0110           0
     23785 MEMB     213      POPE     H4X      HAL2     0.900000E-01   1.00800           0
     23786 MEMB     213      POPE     H4Y      HAL2     0.900000E-01   1.00800           0
     23787 MEMB     213      POPE     C35      CTL2    -0.180000       12.0110           0
     23788 MEMB     213      POPE     H5X      HAL2     0.900000E-01   1.00800           0
     23789 MEMB     213      POPE     H5Y      HAL2     0.900000E-01   1.00800           0
     23790 MEMB     213      POPE     C36      CTL2    -0.180000       12.0110           0
     23791 MEMB     213      POPE     H6X      HAL2     0.900000E-01   1.00800           0
     23792 MEMB     213      POPE     H6Y      HAL2     0.900000E-01   1.00800           0
     23793 MEMB     213      POPE     C37      CTL2    -0.180000       12.0110           0
     23794 MEMB     213      POPE     H7X      HAL2     0.900000E-01   1.00800           0
     23795 MEMB     213      POPE     H7Y      HAL2     0.900000E-01   1.00800           0
     23796 MEMB     213      POPE     C38      CTL2    -0.180000       12.0110           0
     23797 MEMB     213      POPE     H8X      HAL2     0.900000E-01   1.00800           0
     23798 MEMB     213      POPE     H8Y      HAL2     0.900000E-01   1.00800           0
     23799 MEMB     213      POPE     C39      CTL2    -0.180000       12.0110           0
     23800 MEMB     213      POPE     H9X      HAL2     0.900000E-01   1.00800           0
     23801 MEMB     213      POPE     H9Y      HAL2     0.900000E-01   1.00800           0
     23802 MEMB     213      POPE     C310     CTL2    -0.180000       12.0110           0
     23803 MEMB     213      POPE     H10X     HAL2     0.900000E-01   1.00800           0
     23804 MEMB     213      POPE     H10Y     HAL2     0.900000E-01   1.00800           0
     23805 MEMB     213      POPE     C311     CTL2    -0.180000       12.0110           0
     23806 MEMB     213      POPE     H11X     HAL2     0.900000E-01   1.00800           0
     23807 MEMB     213      POPE     H11Y     HAL2     0.900000E-01   1.00800           0
     23808 MEMB     213      POPE     C312     CTL2    -0.180000       12.0110           0
     23809 MEMB     213      POPE     H12X     HAL2     0.900000E-01   1.00800           0
     23810 MEMB     213      POPE     H12Y     HAL2     0.900000E-01   1.00800           0
     23811 MEMB     213      POPE     C313     CTL2    -0.180000       12.0110           0
     23812 MEMB     213      POPE     H13X     HAL2     0.900000E-01   1.00800           0
     23813 MEMB     213      POPE     H13Y     HAL2     0.900000E-01   1.00800           0
     23814 MEMB     213      POPE     C314     CTL2    -0.180000       12.0110           0
     23815 MEMB     213      POPE     H14X     HAL2     0.900000E-01   1.00800           0
     23816 MEMB     213      POPE     H14Y     HAL2     0.900000E-01   1.00800           0
     23817 MEMB     213      POPE     C315     CTL2    -0.180000       12.0110           0
     23818 MEMB     213      POPE     H15X     HAL2     0.900000E-01   1.00800           0
     23819 MEMB     213      POPE     H15Y     HAL2     0.900000E-01   1.00800           0
     23820 MEMB     213      POPE     C316     CTL3    -0.270000       12.0110           0
     23821 MEMB     213      POPE     H16X     HAL3     0.900000E-01   1.00800           0
     23822 MEMB     213      POPE     H16Y     HAL3     0.900000E-01   1.00800           0
     23823 MEMB     213      POPE     H16Z     HAL3     0.900000E-01   1.00800           0
     23824 MEMB     214      POPC     N        NTL     -0.600000       14.0070           0
     23825 MEMB     214      POPC     C12      CTL2    -0.100000       12.0110           0
     23826 MEMB     214      POPC     H12A     HL       0.250000       1.00800           0
     23827 MEMB     214      POPC     H12B     HL       0.250000       1.00800           0
     23828 MEMB     214      POPC     C13      CTL5    -0.350000       12.0110           0
     23829 MEMB     214      POPC     H13A     HL       0.250000       1.00800           0
     23830 MEMB     214      POPC     H13B     HL       0.250000       1.00800           0
     23831 MEMB     214      POPC     H13C     HL       0.250000       1.00800           0
     23832 MEMB     214      POPC     C14      CTL5    -0.350000       12.0110           0
     23833 MEMB     214      POPC     H14A     HL       0.250000       1.00800           0
     23834 MEMB     214      POPC     H14B     HL       0.250000       1.00800           0
     23835 MEMB     214      POPC     H14C     HL       0.250000       1.00800           0
     23836 MEMB     214      POPC     C15      CTL5    -0.350000       12.0110           0
     23837 MEMB     214      POPC     H15A     HL       0.250000       1.00800           0
     23838 MEMB     214      POPC     H15B     HL       0.250000       1.00800           0
     23839 MEMB     214      POPC     H15C     HL       0.250000       1.00800           0
     23840 MEMB     214      POPC     C11      CTL2    -0.800000E-01   12.0110           0
     23841 MEMB     214      POPC     H11A     HAL2     0.900000E-01   1.00800           0
     23842 MEMB     214      POPC     H11B     HAL2     0.900000E-01   1.00800           0
     23843 MEMB     214      POPC     P        PL        1.50000       30.9740           0
     23844 MEMB     214      POPC     O13      O2L     -0.780000       15.9994           0
     23845 MEMB     214      POPC     O14      O2L     -0.780000       15.9994           0
     23846 MEMB     214      POPC     O12      OSLP    -0.570000       15.9994           0
     23847 MEMB     214      POPC     O11      OSLP    -0.570000       15.9994           0
     23848 MEMB     214      POPC     C1       CTL2    -0.800000E-01   12.0110           0
     23849 MEMB     214      POPC     HA       HAL2     0.900000E-01   1.00800           0
     23850 MEMB     214      POPC     HB       HAL2     0.900000E-01   1.00800           0
     23851 MEMB     214      POPC     C2       CTL1     0.170000       12.0110           0
     23852 MEMB     214      POPC     HS       HAL1     0.900000E-01   1.00800           0
     23853 MEMB     214      POPC     O21      OSL     -0.490000       15.9994           0
     23854 MEMB     214      POPC     C21      CL       0.900000       12.0110           0
     23855 MEMB     214      POPC     O22      OBL     -0.630000       15.9994           0
     23856 MEMB     214      POPC     C22      CTL2    -0.220000       12.0110           0
     23857 MEMB     214      POPC     H2R      HAL2     0.900000E-01   1.00800           0
     23858 MEMB     214      POPC     H2S      HAL2     0.900000E-01   1.00800           0
     23859 MEMB     214      POPC     C3       CTL2     0.800000E-01   12.0110           0
     23860 MEMB     214      POPC     HX       HAL2     0.900000E-01   1.00800           0
     23861 MEMB     214      POPC     HY       HAL2     0.900000E-01   1.00800           0
     23862 MEMB     214      POPC     O31      OSL     -0.490000       15.9994           0
     23863 MEMB     214      POPC     C31      CL       0.900000       12.0110           0
     23864 MEMB     214      POPC     O32      OBL     -0.630000       15.9994           0
     23865 MEMB     214      POPC     C32      CTL2    -0.220000       12.0110           0
     23866 MEMB     214      POPC     H2X      HAL2     0.900000E-01   1.00800           0
     23867 MEMB     214      POPC     H2Y      HAL2     0.900000E-01   1.00800           0
     23868 MEMB     214      POPC     C23      CTL2    -0.180000       12.0110           0
     23869 MEMB     214      POPC     H3R      HAL2     0.900000E-01   1.00800           0
     23870 MEMB     214      POPC     H3S      HAL2     0.900000E-01   1.00800           0
     23871 MEMB     214      POPC     C24      CTL2    -0.180000       12.0110           0
     23872 MEMB     214      POPC     H4R      HAL2     0.900000E-01   1.00800           0
     23873 MEMB     214      POPC     H4S      HAL2     0.900000E-01   1.00800           0
     23874 MEMB     214      POPC     C25      CTL2    -0.180000       12.0110           0
     23875 MEMB     214      POPC     H5R      HAL2     0.900000E-01   1.00800           0
     23876 MEMB     214      POPC     H5S      HAL2     0.900000E-01   1.00800           0
     23877 MEMB     214      POPC     C26      CTL2    -0.180000       12.0110           0
     23878 MEMB     214      POPC     H6R      HAL2     0.900000E-01   1.00800           0
     23879 MEMB     214      POPC     H6S      HAL2     0.900000E-01   1.00800           0
     23880 MEMB     214      POPC     C27      CTL2    -0.180000       12.0110           0
     23881 MEMB     214      POPC     H7R      HAL2     0.900000E-01   1.00800           0
     23882 MEMB     214      POPC     H7S      HAL2     0.900000E-01   1.00800           0
     23883 MEMB     214      POPC     C28      CTL2    -0.180000       12.0110           0
     23884 MEMB     214      POPC     H8R      HAL2     0.900000E-01   1.00800           0
     23885 MEMB     214      POPC     H8S      HAL2     0.900000E-01   1.00800           0
     23886 MEMB     214      POPC     C29      CEL1    -0.150000       12.0110           0
     23887 MEMB     214      POPC     H91      HEL1     0.150000       1.00800           0
     23888 MEMB     214      POPC     C210     CEL1    -0.150000       12.0110           0
     23889 MEMB     214      POPC     H101     HEL1     0.150000       1.00800           0
     23890 MEMB     214      POPC     C211     CTL2    -0.180000       12.0110           0
     23891 MEMB     214      POPC     H11R     HAL2     0.900000E-01   1.00800           0
     23892 MEMB     214      POPC     H11S     HAL2     0.900000E-01   1.00800           0
     23893 MEMB     214      POPC     C212     CTL2    -0.180000       12.0110           0
     23894 MEMB     214      POPC     H12R     HAL2     0.900000E-01   1.00800           0
     23895 MEMB     214      POPC     H12S     HAL2     0.900000E-01   1.00800           0
     23896 MEMB     214      POPC     C213     CTL2    -0.180000       12.0110           0
     23897 MEMB     214      POPC     H13R     HAL2     0.900000E-01   1.00800           0
     23898 MEMB     214      POPC     H13S     HAL2     0.900000E-01   1.00800           0
     23899 MEMB     214      POPC     C214     CTL2    -0.180000       12.0110           0
     23900 MEMB     214      POPC     H14R     HAL2     0.900000E-01   1.00800           0
     23901 MEMB     214      POPC     H14S     HAL2     0.900000E-01   1.00800           0
     23902 MEMB     214      POPC     C215     CTL2    -0.180000       12.0110           0
     23903 MEMB     214      POPC     H15R     HAL2     0.900000E-01   1.00800           0
     23904 MEMB     214      POPC     H15S     HAL2     0.900000E-01   1.00800           0
     23905 MEMB     214      POPC     C216     CTL2    -0.180000       12.0110           0
     23906 MEMB     214      POPC     H16R     HAL2     0.900000E-01   1.00800           0
     23907 MEMB     214      POPC     H16S     HAL2     0.900000E-01   1.00800           0
     23908 MEMB     214      POPC     C217     CTL2    -0.180000       12.0110           0
     23909 MEMB     214      POPC     H17R     HAL2     0.900000E-01   1.00800           0
     23910 MEMB     214      POPC     H17S     HAL2     0.900000E-01   1.00800           0
     23911 MEMB     214      POPC     C218     CTL3    -0.270000       12.0110           0
     23912 MEMB     214      POPC     H18R     HAL3     0.900000E-01   1.00800           0
     23913 MEMB     214      POPC     H18S     HAL3     0.900000E-01   1.00800           0
     23914 MEMB     214      POPC     H18T     HAL3     0.900000E-01   1.00800           0
     23915 MEMB     214      POPC     C33      CTL2    -0.180000       12.0110           0
     23916 MEMB     214      POPC     H3X      HAL2     0.900000E-01   1.00800           0
     23917 MEMB     214      POPC     H3Y      HAL2     0.900000E-01   1.00800           0
     23918 MEMB     214      POPC     C34      CTL2    -0.180000       12.0110           0
     23919 MEMB     214      POPC     H4X      HAL2     0.900000E-01   1.00800           0
     23920 MEMB     214      POPC     H4Y      HAL2     0.900000E-01   1.00800           0
     23921 MEMB     214      POPC     C35      CTL2    -0.180000       12.0110           0
     23922 MEMB     214      POPC     H5X      HAL2     0.900000E-01   1.00800           0
     23923 MEMB     214      POPC     H5Y      HAL2     0.900000E-01   1.00800           0
     23924 MEMB     214      POPC     C36      CTL2    -0.180000       12.0110           0
     23925 MEMB     214      POPC     H6X      HAL2     0.900000E-01   1.00800           0
     23926 MEMB     214      POPC     H6Y      HAL2     0.900000E-01   1.00800           0
     23927 MEMB     214      POPC     C37      CTL2    -0.180000       12.0110           0
     23928 MEMB     214      POPC     H7X      HAL2     0.900000E-01   1.00800           0
     23929 MEMB     214      POPC     H7Y      HAL2     0.900000E-01   1.00800           0
     23930 MEMB     214      POPC     C38      CTL2    -0.180000       12.0110           0
     23931 MEMB     214      POPC     H8X      HAL2     0.900000E-01   1.00800           0
     23932 MEMB     214      POPC     H8Y      HAL2     0.900000E-01   1.00800           0
     23933 MEMB     214      POPC     C39      CTL2    -0.180000       12.0110           0
     23934 MEMB     214      POPC     H9X      HAL2     0.900000E-01   1.00800           0
     23935 MEMB     214      POPC     H9Y      HAL2     0.900000E-01   1.00800           0
     23936 MEMB     214      POPC     C310     CTL2    -0.180000       12.0110           0
     23937 MEMB     214      POPC     H10X     HAL2     0.900000E-01   1.00800           0
     23938 MEMB     214      POPC     H10Y     HAL2     0.900000E-01   1.00800           0
     23939 MEMB     214      POPC     C311     CTL2    -0.180000       12.0110           0
     23940 MEMB     214      POPC     H11X     HAL2     0.900000E-01   1.00800           0
     23941 MEMB     214      POPC     H11Y     HAL2     0.900000E-01   1.00800           0
     23942 MEMB     214      POPC     C312     CTL2    -0.180000       12.0110           0
     23943 MEMB     214      POPC     H12X     HAL2     0.900000E-01   1.00800           0
     23944 MEMB     214      POPC     H12Y     HAL2     0.900000E-01   1.00800           0
     23945 MEMB     214      POPC     C313     CTL2    -0.180000       12.0110           0
     23946 MEMB     214      POPC     H13X     HAL2     0.900000E-01   1.00800           0
     23947 MEMB     214      POPC     H13Y     HAL2     0.900000E-01   1.00800           0
     23948 MEMB     214      POPC     C314     CTL2    -0.180000       12.0110           0
     23949 MEMB     214      POPC     H14X     HAL2     0.900000E-01   1.00800           0
     23950 MEMB     214      POPC     H14Y     HAL2     0.900000E-01   1.00800           0
     23951 MEMB     214      POPC     C315     CTL2    -0.180000       12.0110           0
     23952 MEMB     214      POPC     H15X     HAL2     0.900000E-01   1.00800           0
     23953 MEMB     214      POPC     H15Y     HAL2     0.900000E-01   1.00800           0
     23954 MEMB     214      POPC     C316     CTL3    -0.270000       12.0110           0
     23955 MEMB     214      POPC     H16X     HAL3     0.900000E-01   1.00800           0
     23956 MEMB     214      POPC     H16Y     HAL3     0.900000E-01   1.00800           0
     23957 MEMB     214      POPC     H16Z     HAL3     0.900000E-01   1.00800           0
     23958 MEMB     215      POPC     N        NTL     -0.600000       14.0070           0
     23959 MEMB     215      POPC     C12      CTL2    -0.100000       12.0110           0
     23960 MEMB     215      POPC     H12A     HL       0.250000       1.00800           0
     23961 MEMB     215      POPC     H12B     HL       0.250000       1.00800           0
     23962 MEMB     215      POPC     C13      CTL5    -0.350000       12.0110           0
     23963 MEMB     215      POPC     H13A     HL       0.250000       1.00800           0
     23964 MEMB     215      POPC     H13B     HL       0.250000       1.00800           0
     23965 MEMB     215      POPC     H13C     HL       0.250000       1.00800           0
     23966 MEMB     215      POPC     C14      CTL5    -0.350000       12.0110           0
     23967 MEMB     215      POPC     H14A     HL       0.250000       1.00800           0
     23968 MEMB     215      POPC     H14B     HL       0.250000       1.00800           0
     23969 MEMB     215      POPC     H14C     HL       0.250000       1.00800           0
     23970 MEMB     215      POPC     C15      CTL5    -0.350000       12.0110           0
     23971 MEMB     215      POPC     H15A     HL       0.250000       1.00800           0
     23972 MEMB     215      POPC     H15B     HL       0.250000       1.00800           0
     23973 MEMB     215      POPC     H15C     HL       0.250000       1.00800           0
     23974 MEMB     215      POPC     C11      CTL2    -0.800000E-01   12.0110           0
     23975 MEMB     215      POPC     H11A     HAL2     0.900000E-01   1.00800           0
     23976 MEMB     215      POPC     H11B     HAL2     0.900000E-01   1.00800           0
     23977 MEMB     215      POPC     P        PL        1.50000       30.9740           0
     23978 MEMB     215      POPC     O13      O2L     -0.780000       15.9994           0
     23979 MEMB     215      POPC     O14      O2L     -0.780000       15.9994           0
     23980 MEMB     215      POPC     O12      OSLP    -0.570000       15.9994           0
     23981 MEMB     215      POPC     O11      OSLP    -0.570000       15.9994           0
     23982 MEMB     215      POPC     C1       CTL2    -0.800000E-01   12.0110           0
     23983 MEMB     215      POPC     HA       HAL2     0.900000E-01   1.00800           0
     23984 MEMB     215      POPC     HB       HAL2     0.900000E-01   1.00800           0
     23985 MEMB     215      POPC     C2       CTL1     0.170000       12.0110           0
     23986 MEMB     215      POPC     HS       HAL1     0.900000E-01   1.00800           0
     23987 MEMB     215      POPC     O21      OSL     -0.490000       15.9994           0
     23988 MEMB     215      POPC     C21      CL       0.900000       12.0110           0
     23989 MEMB     215      POPC     O22      OBL     -0.630000       15.9994           0
     23990 MEMB     215      POPC     C22      CTL2    -0.220000       12.0110           0
     23991 MEMB     215      POPC     H2R      HAL2     0.900000E-01   1.00800           0
     23992 MEMB     215      POPC     H2S      HAL2     0.900000E-01   1.00800           0
     23993 MEMB     215      POPC     C3       CTL2     0.800000E-01   12.0110           0
     23994 MEMB     215      POPC     HX       HAL2     0.900000E-01   1.00800           0
     23995 MEMB     215      POPC     HY       HAL2     0.900000E-01   1.00800           0
     23996 MEMB     215      POPC     O31      OSL     -0.490000       15.9994           0
     23997 MEMB     215      POPC     C31      CL       0.900000       12.0110           0
     23998 MEMB     215      POPC     O32      OBL     -0.630000       15.9994           0
     23999 MEMB     215      POPC     C32      CTL2    -0.220000       12.0110           0
     24000 MEMB     215      POPC     H2X      HAL2     0.900000E-01   1.00800           0
     24001 MEMB     215      POPC     H2Y      HAL2     0.900000E-01   1.00800           0
     24002 MEMB     215      POPC     C23      CTL2    -0.180000       12.0110           0
     24003 MEMB     215      POPC     H3R      HAL2     0.900000E-01   1.00800           0
     24004 MEMB     215      POPC     H3S      HAL2     0.900000E-01   1.00800           0
     24005 MEMB     215      POPC     C24      CTL2    -0.180000       12.0110           0
     24006 MEMB     215      POPC     H4R      HAL2     0.900000E-01   1.00800           0
     24007 MEMB     215      POPC     H4S      HAL2     0.900000E-01   1.00800           0
     24008 MEMB     215      POPC     C25      CTL2    -0.180000       12.0110           0
     24009 MEMB     215      POPC     H5R      HAL2     0.900000E-01   1.00800           0
     24010 MEMB     215      POPC     H5S      HAL2     0.900000E-01   1.00800           0
     24011 MEMB     215      POPC     C26      CTL2    -0.180000       12.0110           0
     24012 MEMB     215      POPC     H6R      HAL2     0.900000E-01   1.00800           0
     24013 MEMB     215      POPC     H6S      HAL2     0.900000E-01   1.00800           0
     24014 MEMB     215      POPC     C27      CTL2    -0.180000       12.0110           0
     24015 MEMB     215      POPC     H7R      HAL2     0.900000E-01   1.00800           0
     24016 MEMB     215      POPC     H7S      HAL2     0.900000E-01   1.00800           0
     24017 MEMB     215      POPC     C28      CTL2    -0.180000       12.0110           0
     24018 MEMB     215      POPC     H8R      HAL2     0.900000E-01   1.00800           0
     24019 MEMB     215      POPC     H8S      HAL2     0.900000E-01   1.00800           0
     24020 MEMB     215      POPC     C29      CEL1    -0.150000       12.0110           0
     24021 MEMB     215      POPC     H91      HEL1     0.150000       1.00800           0
     24022 MEMB     215      POPC     C210     CEL1    -0.150000       12.0110           0
     24023 MEMB     215      POPC     H101     HEL1     0.150000       1.00800           0
     24024 MEMB     215      POPC     C211     CTL2    -0.180000       12.0110           0
     24025 MEMB     215      POPC     H11R     HAL2     0.900000E-01   1.00800           0
     24026 MEMB     215      POPC     H11S     HAL2     0.900000E-01   1.00800           0
     24027 MEMB     215      POPC     C212     CTL2    -0.180000       12.0110           0
     24028 MEMB     215      POPC     H12R     HAL2     0.900000E-01   1.00800           0
     24029 MEMB     215      POPC     H12S     HAL2     0.900000E-01   1.00800           0
     24030 MEMB     215      POPC     C213     CTL2    -0.180000       12.0110           0
     24031 MEMB     215      POPC     H13R     HAL2     0.900000E-01   1.00800           0
     24032 MEMB     215      POPC     H13S     HAL2     0.900000E-01   1.00800           0
     24033 MEMB     215      POPC     C214     CTL2    -0.180000       12.0110           0
     24034 MEMB     215      POPC     H14R     HAL2     0.900000E-01   1.00800           0
     24035 MEMB     215      POPC     H14S     HAL2     0.900000E-01   1.00800           0
     24036 MEMB     215      POPC     C215     CTL2    -0.180000       12.0110           0
     24037 MEMB     215      POPC     H15R     HAL2     0.900000E-01   1.00800           0
     24038 MEMB     215      POPC     H15S     HAL2     0.900000E-01   1.00800           0
     24039 MEMB     215      POPC     C216     CTL2    -0.180000       12.0110           0
     24040 MEMB     215      POPC     H16R     HAL2     0.900000E-01   1.00800           0
     24041 MEMB     215      POPC     H16S     HAL2     0.900000E-01   1.00800           0
     24042 MEMB     215      POPC     C217     CTL2    -0.180000       12.0110           0
     24043 MEMB     215      POPC     H17R     HAL2     0.900000E-01   1.00800           0
     24044 MEMB     215      POPC     H17S     HAL2     0.900000E-01   1.00800           0
     24045 MEMB     215      POPC     C218     CTL3    -0.270000       12.0110           0
     24046 MEMB     215      POPC     H18R     HAL3     0.900000E-01   1.00800           0
     24047 MEMB     215      POPC     H18S     HAL3     0.900000E-01   1.00800           0
     24048 MEMB     215      POPC     H18T     HAL3     0.900000E-01   1.00800           0
     24049 MEMB     215      POPC     C33      CTL2    -0.180000       12.0110           0
     24050 MEMB     215      POPC     H3X      HAL2     0.900000E-01   1.00800           0
     24051 MEMB     215      POPC     H3Y      HAL2     0.900000E-01   1.00800           0
     24052 MEMB     215      POPC     C34      CTL2    -0.180000       12.0110           0
     24053 MEMB     215      POPC     H4X      HAL2     0.900000E-01   1.00800           0
     24054 MEMB     215      POPC     H4Y      HAL2     0.900000E-01   1.00800           0
     24055 MEMB     215      POPC     C35      CTL2    -0.180000       12.0110           0
     24056 MEMB     215      POPC     H5X      HAL2     0.900000E-01   1.00800           0
     24057 MEMB     215      POPC     H5Y      HAL2     0.900000E-01   1.00800           0
     24058 MEMB     215      POPC     C36      CTL2    -0.180000       12.0110           0
     24059 MEMB     215      POPC     H6X      HAL2     0.900000E-01   1.00800           0
     24060 MEMB     215      POPC     H6Y      HAL2     0.900000E-01   1.00800           0
     24061 MEMB     215      POPC     C37      CTL2    -0.180000       12.0110           0
     24062 MEMB     215      POPC     H7X      HAL2     0.900000E-01   1.00800           0
     24063 MEMB     215      POPC     H7Y      HAL2     0.900000E-01   1.00800           0
     24064 MEMB     215      POPC     C38      CTL2    -0.180000       12.0110           0
     24065 MEMB     215      POPC     H8X      HAL2     0.900000E-01   1.00800           0
     24066 MEMB     215      POPC     H8Y      HAL2     0.900000E-01   1.00800           0
     24067 MEMB     215      POPC     C39      CTL2    -0.180000       12.0110           0
     24068 MEMB     215      POPC     H9X      HAL2     0.900000E-01   1.00800           0
     24069 MEMB     215      POPC     H9Y      HAL2     0.900000E-01   1.00800           0
     24070 MEMB     215      POPC     C310     CTL2    -0.180000       12.0110           0
     24071 MEMB     215      POPC     H10X     HAL2     0.900000E-01   1.00800           0
     24072 MEMB     215      POPC     H10Y     HAL2     0.900000E-01   1.00800           0
     24073 MEMB     215      POPC     C311     CTL2    -0.180000       12.0110           0
     24074 MEMB     215      POPC     H11X     HAL2     0.900000E-01   1.00800           0
     24075 MEMB     215      POPC     H11Y     HAL2     0.900000E-01   1.00800           0
     24076 MEMB     215      POPC     C312     CTL2    -0.180000       12.0110           0
     24077 MEMB     215      POPC     H12X     HAL2     0.900000E-01   1.00800           0
     24078 MEMB     215      POPC     H12Y     HAL2     0.900000E-01   1.00800           0
     24079 MEMB     215      POPC     C313     CTL2    -0.180000       12.0110           0
     24080 MEMB     215      POPC     H13X     HAL2     0.900000E-01   1.00800           0
     24081 MEMB     215      POPC     H13Y     HAL2     0.900000E-01   1.00800           0
     24082 MEMB     215      POPC     C314     CTL2    -0.180000       12.0110           0
     24083 MEMB     215      POPC     H14X     HAL2     0.900000E-01   1.00800           0
     24084 MEMB     215      POPC     H14Y     HAL2     0.900000E-01   1.00800           0
     24085 MEMB     215      POPC     C315     CTL2    -0.180000       12.0110           0
     24086 MEMB     215      POPC     H15X     HAL2     0.900000E-01   1.00800           0
     24087 MEMB     215      POPC     H15Y     HAL2     0.900000E-01   1.00800           0
     24088 MEMB     215      POPC     C316     CTL3    -0.270000       12.0110           0
     24089 MEMB     215      POPC     H16X     HAL3     0.900000E-01   1.00800           0
     24090 MEMB     215      POPC     H16Y     HAL3     0.900000E-01   1.00800           0
     24091 MEMB     215      POPC     H16Z     HAL3     0.900000E-01   1.00800           0
     24092 MEMB     216      POPE     N        NH3L    -0.300000       14.0070           0
     24093 MEMB     216      POPE     HN1      HCL      0.330000       1.00800           0
     24094 MEMB     216      POPE     HN2      HCL      0.330000       1.00800           0
     24095 MEMB     216      POPE     HN3      HCL      0.330000       1.00800           0
     24096 MEMB     216      POPE     C12      CTL2     0.130000       12.0110           0
     24097 MEMB     216      POPE     H12A     HAL2     0.900000E-01   1.00800           0
     24098 MEMB     216      POPE     H12B     HAL2     0.900000E-01   1.00800           0
     24099 MEMB     216      POPE     C11      CTL2    -0.800000E-01   12.0110           0
     24100 MEMB     216      POPE     H11A     HAL2     0.900000E-01   1.00800           0
     24101 MEMB     216      POPE     H11B     HAL2     0.900000E-01   1.00800           0
     24102 MEMB     216      POPE     P        PL        1.50000       30.9740           0
     24103 MEMB     216      POPE     O13      O2L     -0.780000       15.9994           0
     24104 MEMB     216      POPE     O14      O2L     -0.780000       15.9994           0
     24105 MEMB     216      POPE     O11      OSLP    -0.570000       15.9994           0
     24106 MEMB     216      POPE     O12      OSLP    -0.570000       15.9994           0
     24107 MEMB     216      POPE     C1       CTL2    -0.800000E-01   12.0110           0
     24108 MEMB     216      POPE     HA       HAL2     0.900000E-01   1.00800           0
     24109 MEMB     216      POPE     HB       HAL2     0.900000E-01   1.00800           0
     24110 MEMB     216      POPE     C2       CTL1     0.170000       12.0110           0
     24111 MEMB     216      POPE     HS       HAL1     0.900000E-01   1.00800           0
     24112 MEMB     216      POPE     O21      OSL     -0.490000       15.9994           0
     24113 MEMB     216      POPE     C21      CL       0.900000       12.0110           0
     24114 MEMB     216      POPE     O22      OBL     -0.630000       15.9994           0
     24115 MEMB     216      POPE     C22      CTL2    -0.220000       12.0110           0
     24116 MEMB     216      POPE     H2R      HAL2     0.900000E-01   1.00800           0
     24117 MEMB     216      POPE     H2S      HAL2     0.900000E-01   1.00800           0
     24118 MEMB     216      POPE     C3       CTL2     0.800000E-01   12.0110           0
     24119 MEMB     216      POPE     HX       HAL2     0.900000E-01   1.00800           0
     24120 MEMB     216      POPE     HY       HAL2     0.900000E-01   1.00800           0
     24121 MEMB     216      POPE     O31      OSL     -0.490000       15.9994           0
     24122 MEMB     216      POPE     C31      CL       0.900000       12.0110           0
     24123 MEMB     216      POPE     O32      OBL     -0.630000       15.9994           0
     24124 MEMB     216      POPE     C32      CTL2    -0.220000       12.0110           0
     24125 MEMB     216      POPE     H2X      HAL2     0.900000E-01   1.00800           0
     24126 MEMB     216      POPE     H2Y      HAL2     0.900000E-01   1.00800           0
     24127 MEMB     216      POPE     C23      CTL2    -0.180000       12.0110           0
     24128 MEMB     216      POPE     H3R      HAL2     0.900000E-01   1.00800           0
     24129 MEMB     216      POPE     H3S      HAL2     0.900000E-01   1.00800           0
     24130 MEMB     216      POPE     C24      CTL2    -0.180000       12.0110           0
     24131 MEMB     216      POPE     H4R      HAL2     0.900000E-01   1.00800           0
     24132 MEMB     216      POPE     H4S      HAL2     0.900000E-01   1.00800           0
     24133 MEMB     216      POPE     C25      CTL2    -0.180000       12.0110           0
     24134 MEMB     216      POPE     H5R      HAL2     0.900000E-01   1.00800           0
     24135 MEMB     216      POPE     H5S      HAL2     0.900000E-01   1.00800           0
     24136 MEMB     216      POPE     C26      CTL2    -0.180000       12.0110           0
     24137 MEMB     216      POPE     H6R      HAL2     0.900000E-01   1.00800           0
     24138 MEMB     216      POPE     H6S      HAL2     0.900000E-01   1.00800           0
     24139 MEMB     216      POPE     C27      CTL2    -0.180000       12.0110           0
     24140 MEMB     216      POPE     H7R      HAL2     0.900000E-01   1.00800           0
     24141 MEMB     216      POPE     H7S      HAL2     0.900000E-01   1.00800           0
     24142 MEMB     216      POPE     C28      CTL2    -0.180000       12.0110           0
     24143 MEMB     216      POPE     H8R      HAL2     0.900000E-01   1.00800           0
     24144 MEMB     216      POPE     H8S      HAL2     0.900000E-01   1.00800           0
     24145 MEMB     216      POPE     C29      CEL1    -0.150000       12.0110           0
     24146 MEMB     216      POPE     H91      HEL1     0.150000       1.00800           0
     24147 MEMB     216      POPE     C210     CEL1    -0.150000       12.0110           0
     24148 MEMB     216      POPE     H101     HEL1     0.150000       1.00800           0
     24149 MEMB     216      POPE     C211     CTL2    -0.180000       12.0110           0
     24150 MEMB     216      POPE     H11R     HAL2     0.900000E-01   1.00800           0
     24151 MEMB     216      POPE     H11S     HAL2     0.900000E-01   1.00800           0
     24152 MEMB     216      POPE     C212     CTL2    -0.180000       12.0110           0
     24153 MEMB     216      POPE     H12R     HAL2     0.900000E-01   1.00800           0
     24154 MEMB     216      POPE     H12S     HAL2     0.900000E-01   1.00800           0
     24155 MEMB     216      POPE     C213     CTL2    -0.180000       12.0110           0
     24156 MEMB     216      POPE     H13R     HAL2     0.900000E-01   1.00800           0
     24157 MEMB     216      POPE     H13S     HAL2     0.900000E-01   1.00800           0
     24158 MEMB     216      POPE     C214     CTL2    -0.180000       12.0110           0
     24159 MEMB     216      POPE     H14R     HAL2     0.900000E-01   1.00800           0
     24160 MEMB     216      POPE     H14S     HAL2     0.900000E-01   1.00800           0
     24161 MEMB     216      POPE     C215     CTL2    -0.180000       12.0110           0
     24162 MEMB     216      POPE     H15R     HAL2     0.900000E-01   1.00800           0
     24163 MEMB     216      POPE     H15S     HAL2     0.900000E-01   1.00800           0
     24164 MEMB     216      POPE     C216     CTL2    -0.180000       12.0110           0
     24165 MEMB     216      POPE     H16R     HAL2     0.900000E-01   1.00800           0
     24166 MEMB     216      POPE     H16S     HAL2     0.900000E-01   1.00800           0
     24167 MEMB     216      POPE     C217     CTL2    -0.180000       12.0110           0
     24168 MEMB     216      POPE     H17R     HAL2     0.900000E-01   1.00800           0
     24169 MEMB     216      POPE     H17S     HAL2     0.900000E-01   1.00800           0
     24170 MEMB     216      POPE     C218     CTL3    -0.270000       12.0110           0
     24171 MEMB     216      POPE     H18R     HAL3     0.900000E-01   1.00800           0
     24172 MEMB     216      POPE     H18S     HAL3     0.900000E-01   1.00800           0
     24173 MEMB     216      POPE     H18T     HAL3     0.900000E-01   1.00800           0
     24174 MEMB     216      POPE     C33      CTL2    -0.180000       12.0110           0
     24175 MEMB     216      POPE     H3X      HAL2     0.900000E-01   1.00800           0
     24176 MEMB     216      POPE     H3Y      HAL2     0.900000E-01   1.00800           0
     24177 MEMB     216      POPE     C34      CTL2    -0.180000       12.0110           0
     24178 MEMB     216      POPE     H4X      HAL2     0.900000E-01   1.00800           0
     24179 MEMB     216      POPE     H4Y      HAL2     0.900000E-01   1.00800           0
     24180 MEMB     216      POPE     C35      CTL2    -0.180000       12.0110           0
     24181 MEMB     216      POPE     H5X      HAL2     0.900000E-01   1.00800           0
     24182 MEMB     216      POPE     H5Y      HAL2     0.900000E-01   1.00800           0
     24183 MEMB     216      POPE     C36      CTL2    -0.180000       12.0110           0
     24184 MEMB     216      POPE     H6X      HAL2     0.900000E-01   1.00800           0
     24185 MEMB     216      POPE     H6Y      HAL2     0.900000E-01   1.00800           0
     24186 MEMB     216      POPE     C37      CTL2    -0.180000       12.0110           0
     24187 MEMB     216      POPE     H7X      HAL2     0.900000E-01   1.00800           0
     24188 MEMB     216      POPE     H7Y      HAL2     0.900000E-01   1.00800           0
     24189 MEMB     216      POPE     C38      CTL2    -0.180000       12.0110           0
     24190 MEMB     216      POPE     H8X      HAL2     0.900000E-01   1.00800           0
     24191 MEMB     216      POPE     H8Y      HAL2     0.900000E-01   1.00800           0
     24192 MEMB     216      POPE     C39      CTL2    -0.180000       12.0110           0
     24193 MEMB     216      POPE     H9X      HAL2     0.900000E-01   1.00800           0
     24194 MEMB     216      POPE     H9Y      HAL2     0.900000E-01   1.00800           0
     24195 MEMB     216      POPE     C310     CTL2    -0.180000       12.0110           0
     24196 MEMB     216      POPE     H10X     HAL2     0.900000E-01   1.00800           0
     24197 MEMB     216      POPE     H10Y     HAL2     0.900000E-01   1.00800           0
     24198 MEMB     216      POPE     C311     CTL2    -0.180000       12.0110           0
     24199 MEMB     216      POPE     H11X     HAL2     0.900000E-01   1.00800           0
     24200 MEMB     216      POPE     H11Y     HAL2     0.900000E-01   1.00800           0
     24201 MEMB     216      POPE     C312     CTL2    -0.180000       12.0110           0
     24202 MEMB     216      POPE     H12X     HAL2     0.900000E-01   1.00800           0
     24203 MEMB     216      POPE     H12Y     HAL2     0.900000E-01   1.00800           0
     24204 MEMB     216      POPE     C313     CTL2    -0.180000       12.0110           0
     24205 MEMB     216      POPE     H13X     HAL2     0.900000E-01   1.00800           0
     24206 MEMB     216      POPE     H13Y     HAL2     0.900000E-01   1.00800           0
     24207 MEMB     216      POPE     C314     CTL2    -0.180000       12.0110           0
     24208 MEMB     216      POPE     H14X     HAL2     0.900000E-01   1.00800           0
     24209 MEMB     216      POPE     H14Y     HAL2     0.900000E-01   1.00800           0
     24210 MEMB     216      POPE     C315     CTL2    -0.180000       12.0110           0
     24211 MEMB     216      POPE     H15X     HAL2     0.900000E-01   1.00800           0
     24212 MEMB     216      POPE     H15Y     HAL2     0.900000E-01   1.00800           0
     24213 MEMB     216      POPE     C316     CTL3    -0.270000       12.0110           0
     24214 MEMB     216      POPE     H16X     HAL3     0.900000E-01   1.00800           0
     24215 MEMB     216      POPE     H16Y     HAL3     0.900000E-01   1.00800           0
     24216 MEMB     216      POPE     H16Z     HAL3     0.900000E-01   1.00800           0
     24217 MEMB     217      POPE     N        NH3L    -0.300000       14.0070           0
     24218 MEMB     217      POPE     HN1      HCL      0.330000       1.00800           0
     24219 MEMB     217      POPE     HN2      HCL      0.330000       1.00800           0
     24220 MEMB     217      POPE     HN3      HCL      0.330000       1.00800           0
     24221 MEMB     217      POPE     C12      CTL2     0.130000       12.0110           0
     24222 MEMB     217      POPE     H12A     HAL2     0.900000E-01   1.00800           0
     24223 MEMB     217      POPE     H12B     HAL2     0.900000E-01   1.00800           0
     24224 MEMB     217      POPE     C11      CTL2    -0.800000E-01   12.0110           0
     24225 MEMB     217      POPE     H11A     HAL2     0.900000E-01   1.00800           0
     24226 MEMB     217      POPE     H11B     HAL2     0.900000E-01   1.00800           0
     24227 MEMB     217      POPE     P        PL        1.50000       30.9740           0
     24228 MEMB     217      POPE     O13      O2L     -0.780000       15.9994           0
     24229 MEMB     217      POPE     O14      O2L     -0.780000       15.9994           0
     24230 MEMB     217      POPE     O11      OSLP    -0.570000       15.9994           0
     24231 MEMB     217      POPE     O12      OSLP    -0.570000       15.9994           0
     24232 MEMB     217      POPE     C1       CTL2    -0.800000E-01   12.0110           0
     24233 MEMB     217      POPE     HA       HAL2     0.900000E-01   1.00800           0
     24234 MEMB     217      POPE     HB       HAL2     0.900000E-01   1.00800           0
     24235 MEMB     217      POPE     C2       CTL1     0.170000       12.0110           0
     24236 MEMB     217      POPE     HS       HAL1     0.900000E-01   1.00800           0
     24237 MEMB     217      POPE     O21      OSL     -0.490000       15.9994           0
     24238 MEMB     217      POPE     C21      CL       0.900000       12.0110           0
     24239 MEMB     217      POPE     O22      OBL     -0.630000       15.9994           0
     24240 MEMB     217      POPE     C22      CTL2    -0.220000       12.0110           0
     24241 MEMB     217      POPE     H2R      HAL2     0.900000E-01   1.00800           0
     24242 MEMB     217      POPE     H2S      HAL2     0.900000E-01   1.00800           0
     24243 MEMB     217      POPE     C3       CTL2     0.800000E-01   12.0110           0
     24244 MEMB     217      POPE     HX       HAL2     0.900000E-01   1.00800           0
     24245 MEMB     217      POPE     HY       HAL2     0.900000E-01   1.00800           0
     24246 MEMB     217      POPE     O31      OSL     -0.490000       15.9994           0
     24247 MEMB     217      POPE     C31      CL       0.900000       12.0110           0
     24248 MEMB     217      POPE     O32      OBL     -0.630000       15.9994           0
     24249 MEMB     217      POPE     C32      CTL2    -0.220000       12.0110           0
     24250 MEMB     217      POPE     H2X      HAL2     0.900000E-01   1.00800           0
     24251 MEMB     217      POPE     H2Y      HAL2     0.900000E-01   1.00800           0
     24252 MEMB     217      POPE     C23      CTL2    -0.180000       12.0110           0
     24253 MEMB     217      POPE     H3R      HAL2     0.900000E-01   1.00800           0
     24254 MEMB     217      POPE     H3S      HAL2     0.900000E-01   1.00800           0
     24255 MEMB     217      POPE     C24      CTL2    -0.180000       12.0110           0
     24256 MEMB     217      POPE     H4R      HAL2     0.900000E-01   1.00800           0
     24257 MEMB     217      POPE     H4S      HAL2     0.900000E-01   1.00800           0
     24258 MEMB     217      POPE     C25      CTL2    -0.180000       12.0110           0
     24259 MEMB     217      POPE     H5R      HAL2     0.900000E-01   1.00800           0
     24260 MEMB     217      POPE     H5S      HAL2     0.900000E-01   1.00800           0
     24261 MEMB     217      POPE     C26      CTL2    -0.180000       12.0110           0
     24262 MEMB     217      POPE     H6R      HAL2     0.900000E-01   1.00800           0
     24263 MEMB     217      POPE     H6S      HAL2     0.900000E-01   1.00800           0
     24264 MEMB     217      POPE     C27      CTL2    -0.180000       12.0110           0
     24265 MEMB     217      POPE     H7R      HAL2     0.900000E-01   1.00800           0
     24266 MEMB     217      POPE     H7S      HAL2     0.900000E-01   1.00800           0
     24267 MEMB     217      POPE     C28      CTL2    -0.180000       12.0110           0
     24268 MEMB     217      POPE     H8R      HAL2     0.900000E-01   1.00800           0
     24269 MEMB     217      POPE     H8S      HAL2     0.900000E-01   1.00800           0
     24270 MEMB     217      POPE     C29      CEL1    -0.150000       12.0110           0
     24271 MEMB     217      POPE     H91      HEL1     0.150000       1.00800           0
     24272 MEMB     217      POPE     C210     CEL1    -0.150000       12.0110           0
     24273 MEMB     217      POPE     H101     HEL1     0.150000       1.00800           0
     24274 MEMB     217      POPE     C211     CTL2    -0.180000       12.0110           0
     24275 MEMB     217      POPE     H11R     HAL2     0.900000E-01   1.00800           0
     24276 MEMB     217      POPE     H11S     HAL2     0.900000E-01   1.00800           0
     24277 MEMB     217      POPE     C212     CTL2    -0.180000       12.0110           0
     24278 MEMB     217      POPE     H12R     HAL2     0.900000E-01   1.00800           0
     24279 MEMB     217      POPE     H12S     HAL2     0.900000E-01   1.00800           0
     24280 MEMB     217      POPE     C213     CTL2    -0.180000       12.0110           0
     24281 MEMB     217      POPE     H13R     HAL2     0.900000E-01   1.00800           0
     24282 MEMB     217      POPE     H13S     HAL2     0.900000E-01   1.00800           0
     24283 MEMB     217      POPE     C214     CTL2    -0.180000       12.0110           0
     24284 MEMB     217      POPE     H14R     HAL2     0.900000E-01   1.00800           0
     24285 MEMB     217      POPE     H14S     HAL2     0.900000E-01   1.00800           0
     24286 MEMB     217      POPE     C215     CTL2    -0.180000       12.0110           0
     24287 MEMB     217      POPE     H15R     HAL2     0.900000E-01   1.00800           0
     24288 MEMB     217      POPE     H15S     HAL2     0.900000E-01   1.00800           0
     24289 MEMB     217      POPE     C216     CTL2    -0.180000       12.0110           0
     24290 MEMB     217      POPE     H16R     HAL2     0.900000E-01   1.00800           0
     24291 MEMB     217      POPE     H16S     HAL2     0.900000E-01   1.00800           0
     24292 MEMB     217      POPE     C217     CTL2    -0.180000       12.0110           0
     24293 MEMB     217      POPE     H17R     HAL2     0.900000E-01   1.00800           0
     24294 MEMB     217      POPE     H17S     HAL2     0.900000E-01   1.00800           0
     24295 MEMB     217      POPE     C218     CTL3    -0.270000       12.0110           0
     24296 MEMB     217      POPE     H18R     HAL3     0.900000E-01   1.00800           0
     24297 MEMB     217      POPE     H18S     HAL3     0.900000E-01   1.00800           0
     24298 MEMB     217      POPE     H18T     HAL3     0.900000E-01   1.00800           0
     24299 MEMB     217      POPE     C33      CTL2    -0.180000       12.0110           0
     24300 MEMB     217      POPE     H3X      HAL2     0.900000E-01   1.00800           0
     24301 MEMB     217      POPE     H3Y      HAL2     0.900000E-01   1.00800           0
     24302 MEMB     217      POPE     C34      CTL2    -0.180000       12.0110           0
     24303 MEMB     217      POPE     H4X      HAL2     0.900000E-01   1.00800           0
     24304 MEMB     217      POPE     H4Y      HAL2     0.900000E-01   1.00800           0
     24305 MEMB     217      POPE     C35      CTL2    -0.180000       12.0110           0
     24306 MEMB     217      POPE     H5X      HAL2     0.900000E-01   1.00800           0
     24307 MEMB     217      POPE     H5Y      HAL2     0.900000E-01   1.00800           0
     24308 MEMB     217      POPE     C36      CTL2    -0.180000       12.0110           0
     24309 MEMB     217      POPE     H6X      HAL2     0.900000E-01   1.00800           0
     24310 MEMB     217      POPE     H6Y      HAL2     0.900000E-01   1.00800           0
     24311 MEMB     217      POPE     C37      CTL2    -0.180000       12.0110           0
     24312 MEMB     217      POPE     H7X      HAL2     0.900000E-01   1.00800           0
     24313 MEMB     217      POPE     H7Y      HAL2     0.900000E-01   1.00800           0
     24314 MEMB     217      POPE     C38      CTL2    -0.180000       12.0110           0
     24315 MEMB     217      POPE     H8X      HAL2     0.900000E-01   1.00800           0
     24316 MEMB     217      POPE     H8Y      HAL2     0.900000E-01   1.00800           0
     24317 MEMB     217      POPE     C39      CTL2    -0.180000       12.0110           0
     24318 MEMB     217      POPE     H9X      HAL2     0.900000E-01   1.00800           0
     24319 MEMB     217      POPE     H9Y      HAL2     0.900000E-01   1.00800           0
     24320 MEMB     217      POPE     C310     CTL2    -0.180000       12.0110           0
     24321 MEMB     217      POPE     H10X     HAL2     0.900000E-01   1.00800           0
     24322 MEMB     217      POPE     H10Y     HAL2     0.900000E-01   1.00800           0
     24323 MEMB     217      POPE     C311     CTL2    -0.180000       12.0110           0
     24324 MEMB     217      POPE     H11X     HAL2     0.900000E-01   1.00800           0
     24325 MEMB     217      POPE     H11Y     HAL2     0.900000E-01   1.00800           0
     24326 MEMB     217      POPE     C312     CTL2    -0.180000       12.0110           0
     24327 MEMB     217      POPE     H12X     HAL2     0.900000E-01   1.00800           0
     24328 MEMB     217      POPE     H12Y     HAL2     0.900000E-01   1.00800           0
     24329 MEMB     217      POPE     C313     CTL2    -0.180000       12.0110           0
     24330 MEMB     217      POPE     H13X     HAL2     0.900000E-01   1.00800           0
     24331 MEMB     217      POPE     H13Y     HAL2     0.900000E-01   1.00800           0
     24332 MEMB     217      POPE     C314     CTL2    -0.180000       12.0110           0
     24333 MEMB     217      POPE     H14X     HAL2     0.900000E-01   1.00800           0
     24334 MEMB     217      POPE     H14Y     HAL2     0.900000E-01   1.00800           0
     24335 MEMB     217      POPE     C315     CTL2    -0.180000       12.0110           0
     24336 MEMB     217      POPE     H15X     HAL2     0.900000E-01   1.00800           0
     24337 MEMB     217      POPE     H15Y     HAL2     0.900000E-01   1.00800           0
     24338 MEMB     217      POPE     C316     CTL3    -0.270000       12.0110           0
     24339 MEMB     217      POPE     H16X     HAL3     0.900000E-01   1.00800           0
     24340 MEMB     217      POPE     H16Y     HAL3     0.900000E-01   1.00800           0
     24341 MEMB     217      POPE     H16Z     HAL3     0.900000E-01   1.00800           0
     24342 MEMB     218      POPE     N        NH3L    -0.300000       14.0070           0
     24343 MEMB     218      POPE     HN1      HCL      0.330000       1.00800           0
     24344 MEMB     218      POPE     HN2      HCL      0.330000       1.00800           0
     24345 MEMB     218      POPE     HN3      HCL      0.330000       1.00800           0
     24346 MEMB     218      POPE     C12      CTL2     0.130000       12.0110           0
     24347 MEMB     218      POPE     H12A     HAL2     0.900000E-01   1.00800           0
     24348 MEMB     218      POPE     H12B     HAL2     0.900000E-01   1.00800           0
     24349 MEMB     218      POPE     C11      CTL2    -0.800000E-01   12.0110           0
     24350 MEMB     218      POPE     H11A     HAL2     0.900000E-01   1.00800           0
     24351 MEMB     218      POPE     H11B     HAL2     0.900000E-01   1.00800           0
     24352 MEMB     218      POPE     P        PL        1.50000       30.9740           0
     24353 MEMB     218      POPE     O13      O2L     -0.780000       15.9994           0
     24354 MEMB     218      POPE     O14      O2L     -0.780000       15.9994           0
     24355 MEMB     218      POPE     O11      OSLP    -0.570000       15.9994           0
     24356 MEMB     218      POPE     O12      OSLP    -0.570000       15.9994           0
     24357 MEMB     218      POPE     C1       CTL2    -0.800000E-01   12.0110           0
     24358 MEMB     218      POPE     HA       HAL2     0.900000E-01   1.00800           0
     24359 MEMB     218      POPE     HB       HAL2     0.900000E-01   1.00800           0
     24360 MEMB     218      POPE     C2       CTL1     0.170000       12.0110           0
     24361 MEMB     218      POPE     HS       HAL1     0.900000E-01   1.00800           0
     24362 MEMB     218      POPE     O21      OSL     -0.490000       15.9994           0
     24363 MEMB     218      POPE     C21      CL       0.900000       12.0110           0
     24364 MEMB     218      POPE     O22      OBL     -0.630000       15.9994           0
     24365 MEMB     218      POPE     C22      CTL2    -0.220000       12.0110           0
     24366 MEMB     218      POPE     H2R      HAL2     0.900000E-01   1.00800           0
     24367 MEMB     218      POPE     H2S      HAL2     0.900000E-01   1.00800           0
     24368 MEMB     218      POPE     C3       CTL2     0.800000E-01   12.0110           0
     24369 MEMB     218      POPE     HX       HAL2     0.900000E-01   1.00800           0
     24370 MEMB     218      POPE     HY       HAL2     0.900000E-01   1.00800           0
     24371 MEMB     218      POPE     O31      OSL     -0.490000       15.9994           0
     24372 MEMB     218      POPE     C31      CL       0.900000       12.0110           0
     24373 MEMB     218      POPE     O32      OBL     -0.630000       15.9994           0
     24374 MEMB     218      POPE     C32      CTL2    -0.220000       12.0110           0
     24375 MEMB     218      POPE     H2X      HAL2     0.900000E-01   1.00800           0
     24376 MEMB     218      POPE     H2Y      HAL2     0.900000E-01   1.00800           0
     24377 MEMB     218      POPE     C23      CTL2    -0.180000       12.0110           0
     24378 MEMB     218      POPE     H3R      HAL2     0.900000E-01   1.00800           0
     24379 MEMB     218      POPE     H3S      HAL2     0.900000E-01   1.00800           0
     24380 MEMB     218      POPE     C24      CTL2    -0.180000       12.0110           0
     24381 MEMB     218      POPE     H4R      HAL2     0.900000E-01   1.00800           0
     24382 MEMB     218      POPE     H4S      HAL2     0.900000E-01   1.00800           0
     24383 MEMB     218      POPE     C25      CTL2    -0.180000       12.0110           0
     24384 MEMB     218      POPE     H5R      HAL2     0.900000E-01   1.00800           0
     24385 MEMB     218      POPE     H5S      HAL2     0.900000E-01   1.00800           0
     24386 MEMB     218      POPE     C26      CTL2    -0.180000       12.0110           0
     24387 MEMB     218      POPE     H6R      HAL2     0.900000E-01   1.00800           0
     24388 MEMB     218      POPE     H6S      HAL2     0.900000E-01   1.00800           0
     24389 MEMB     218      POPE     C27      CTL2    -0.180000       12.0110           0
     24390 MEMB     218      POPE     H7R      HAL2     0.900000E-01   1.00800           0
     24391 MEMB     218      POPE     H7S      HAL2     0.900000E-01   1.00800           0
     24392 MEMB     218      POPE     C28      CTL2    -0.180000       12.0110           0
     24393 MEMB     218      POPE     H8R      HAL2     0.900000E-01   1.00800           0
     24394 MEMB     218      POPE     H8S      HAL2     0.900000E-01   1.00800           0
     24395 MEMB     218      POPE     C29      CEL1    -0.150000       12.0110           0
     24396 MEMB     218      POPE     H91      HEL1     0.150000       1.00800           0
     24397 MEMB     218      POPE     C210     CEL1    -0.150000       12.0110           0
     24398 MEMB     218      POPE     H101     HEL1     0.150000       1.00800           0
     24399 MEMB     218      POPE     C211     CTL2    -0.180000       12.0110           0
     24400 MEMB     218      POPE     H11R     HAL2     0.900000E-01   1.00800           0
     24401 MEMB     218      POPE     H11S     HAL2     0.900000E-01   1.00800           0
     24402 MEMB     218      POPE     C212     CTL2    -0.180000       12.0110           0
     24403 MEMB     218      POPE     H12R     HAL2     0.900000E-01   1.00800           0
     24404 MEMB     218      POPE     H12S     HAL2     0.900000E-01   1.00800           0
     24405 MEMB     218      POPE     C213     CTL2    -0.180000       12.0110           0
     24406 MEMB     218      POPE     H13R     HAL2     0.900000E-01   1.00800           0
     24407 MEMB     218      POPE     H13S     HAL2     0.900000E-01   1.00800           0
     24408 MEMB     218      POPE     C214     CTL2    -0.180000       12.0110           0
     24409 MEMB     218      POPE     H14R     HAL2     0.900000E-01   1.00800           0
     24410 MEMB     218      POPE     H14S     HAL2     0.900000E-01   1.00800           0
     24411 MEMB     218      POPE     C215     CTL2    -0.180000       12.0110           0
     24412 MEMB     218      POPE     H15R     HAL2     0.900000E-01   1.00800           0
     24413 MEMB     218      POPE     H15S     HAL2     0.900000E-01   1.00800           0
     24414 MEMB     218      POPE     C216     CTL2    -0.180000       12.0110           0
     24415 MEMB     218      POPE     H16R     HAL2     0.900000E-01   1.00800           0
     24416 MEMB     218      POPE     H16S     HAL2     0.900000E-01   1.00800           0
     24417 MEMB     218      POPE     C217     CTL2    -0.180000       12.0110           0
     24418 MEMB     218      POPE     H17R     HAL2     0.900000E-01   1.00800           0
     24419 MEMB     218      POPE     H17S     HAL2     0.900000E-01   1.00800           0
     24420 MEMB     218      POPE     C218     CTL3    -0.270000       12.0110           0
     24421 MEMB     218      POPE     H18R     HAL3     0.900000E-01   1.00800           0
     24422 MEMB     218      POPE     H18S     HAL3     0.900000E-01   1.00800           0
     24423 MEMB     218      POPE     H18T     HAL3     0.900000E-01   1.00800           0
     24424 MEMB     218      POPE     C33      CTL2    -0.180000       12.0110           0
     24425 MEMB     218      POPE     H3X      HAL2     0.900000E-01   1.00800           0
     24426 MEMB     218      POPE     H3Y      HAL2     0.900000E-01   1.00800           0
     24427 MEMB     218      POPE     C34      CTL2    -0.180000       12.0110           0
     24428 MEMB     218      POPE     H4X      HAL2     0.900000E-01   1.00800           0
     24429 MEMB     218      POPE     H4Y      HAL2     0.900000E-01   1.00800           0
     24430 MEMB     218      POPE     C35      CTL2    -0.180000       12.0110           0
     24431 MEMB     218      POPE     H5X      HAL2     0.900000E-01   1.00800           0
     24432 MEMB     218      POPE     H5Y      HAL2     0.900000E-01   1.00800           0
     24433 MEMB     218      POPE     C36      CTL2    -0.180000       12.0110           0
     24434 MEMB     218      POPE     H6X      HAL2     0.900000E-01   1.00800           0
     24435 MEMB     218      POPE     H6Y      HAL2     0.900000E-01   1.00800           0
     24436 MEMB     218      POPE     C37      CTL2    -0.180000       12.0110           0
     24437 MEMB     218      POPE     H7X      HAL2     0.900000E-01   1.00800           0
     24438 MEMB     218      POPE     H7Y      HAL2     0.900000E-01   1.00800           0
     24439 MEMB     218      POPE     C38      CTL2    -0.180000       12.0110           0
     24440 MEMB     218      POPE     H8X      HAL2     0.900000E-01   1.00800           0
     24441 MEMB     218      POPE     H8Y      HAL2     0.900000E-01   1.00800           0
     24442 MEMB     218      POPE     C39      CTL2    -0.180000       12.0110           0
     24443 MEMB     218      POPE     H9X      HAL2     0.900000E-01   1.00800           0
     24444 MEMB     218      POPE     H9Y      HAL2     0.900000E-01   1.00800           0
     24445 MEMB     218      POPE     C310     CTL2    -0.180000       12.0110           0
     24446 MEMB     218      POPE     H10X     HAL2     0.900000E-01   1.00800           0
     24447 MEMB     218      POPE     H10Y     HAL2     0.900000E-01   1.00800           0
     24448 MEMB     218      POPE     C311     CTL2    -0.180000       12.0110           0
     24449 MEMB     218      POPE     H11X     HAL2     0.900000E-01   1.00800           0
     24450 MEMB     218      POPE     H11Y     HAL2     0.900000E-01   1.00800           0
     24451 MEMB     218      POPE     C312     CTL2    -0.180000       12.0110           0
     24452 MEMB     218      POPE     H12X     HAL2     0.900000E-01   1.00800           0
     24453 MEMB     218      POPE     H12Y     HAL2     0.900000E-01   1.00800           0
     24454 MEMB     218      POPE     C313     CTL2    -0.180000       12.0110           0
     24455 MEMB     218      POPE     H13X     HAL2     0.900000E-01   1.00800           0
     24456 MEMB     218      POPE     H13Y     HAL2     0.900000E-01   1.00800           0
     24457 MEMB     218      POPE     C314     CTL2    -0.180000       12.0110           0
     24458 MEMB     218      POPE     H14X     HAL2     0.900000E-01   1.00800           0
     24459 MEMB     218      POPE     H14Y     HAL2     0.900000E-01   1.00800           0
     24460 MEMB     218      POPE     C315     CTL2    -0.180000       12.0110           0
     24461 MEMB     218      POPE     H15X     HAL2     0.900000E-01   1.00800           0
     24462 MEMB     218      POPE     H15Y     HAL2     0.900000E-01   1.00800           0
     24463 MEMB     218      POPE     C316     CTL3    -0.270000       12.0110           0
     24464 MEMB     218      POPE     H16X     HAL3     0.900000E-01   1.00800           0
     24465 MEMB     218      POPE     H16Y     HAL3     0.900000E-01   1.00800           0
     24466 MEMB     218      POPE     H16Z     HAL3     0.900000E-01   1.00800           0
     24467 MEMB     219      POPC     N        NTL     -0.600000       14.0070           0
     24468 MEMB     219      POPC     C12      CTL2    -0.100000       12.0110           0
     24469 MEMB     219      POPC     H12A     HL       0.250000       1.00800           0
     24470 MEMB     219      POPC     H12B     HL       0.250000       1.00800           0
     24471 MEMB     219      POPC     C13      CTL5    -0.350000       12.0110           0
     24472 MEMB     219      POPC     H13A     HL       0.250000       1.00800           0
     24473 MEMB     219      POPC     H13B     HL       0.250000       1.00800           0
     24474 MEMB     219      POPC     H13C     HL       0.250000       1.00800           0
     24475 MEMB     219      POPC     C14      CTL5    -0.350000       12.0110           0
     24476 MEMB     219      POPC     H14A     HL       0.250000       1.00800           0
     24477 MEMB     219      POPC     H14B     HL       0.250000       1.00800           0
     24478 MEMB     219      POPC     H14C     HL       0.250000       1.00800           0
     24479 MEMB     219      POPC     C15      CTL5    -0.350000       12.0110           0
     24480 MEMB     219      POPC     H15A     HL       0.250000       1.00800           0
     24481 MEMB     219      POPC     H15B     HL       0.250000       1.00800           0
     24482 MEMB     219      POPC     H15C     HL       0.250000       1.00800           0
     24483 MEMB     219      POPC     C11      CTL2    -0.800000E-01   12.0110           0
     24484 MEMB     219      POPC     H11A     HAL2     0.900000E-01   1.00800           0
     24485 MEMB     219      POPC     H11B     HAL2     0.900000E-01   1.00800           0
     24486 MEMB     219      POPC     P        PL        1.50000       30.9740           0
     24487 MEMB     219      POPC     O13      O2L     -0.780000       15.9994           0
     24488 MEMB     219      POPC     O14      O2L     -0.780000       15.9994           0
     24489 MEMB     219      POPC     O12      OSLP    -0.570000       15.9994           0
     24490 MEMB     219      POPC     O11      OSLP    -0.570000       15.9994           0
     24491 MEMB     219      POPC     C1       CTL2    -0.800000E-01   12.0110           0
     24492 MEMB     219      POPC     HA       HAL2     0.900000E-01   1.00800           0
     24493 MEMB     219      POPC     HB       HAL2     0.900000E-01   1.00800           0
     24494 MEMB     219      POPC     C2       CTL1     0.170000       12.0110           0
     24495 MEMB     219      POPC     HS       HAL1     0.900000E-01   1.00800           0
     24496 MEMB     219      POPC     O21      OSL     -0.490000       15.9994           0
     24497 MEMB     219      POPC     C21      CL       0.900000       12.0110           0
     24498 MEMB     219      POPC     O22      OBL     -0.630000       15.9994           0
     24499 MEMB     219      POPC     C22      CTL2    -0.220000       12.0110           0
     24500 MEMB     219      POPC     H2R      HAL2     0.900000E-01   1.00800           0
     24501 MEMB     219      POPC     H2S      HAL2     0.900000E-01   1.00800           0
     24502 MEMB     219      POPC     C3       CTL2     0.800000E-01   12.0110           0
     24503 MEMB     219      POPC     HX       HAL2     0.900000E-01   1.00800           0
     24504 MEMB     219      POPC     HY       HAL2     0.900000E-01   1.00800           0
     24505 MEMB     219      POPC     O31      OSL     -0.490000       15.9994           0
     24506 MEMB     219      POPC     C31      CL       0.900000       12.0110           0
     24507 MEMB     219      POPC     O32      OBL     -0.630000       15.9994           0
     24508 MEMB     219      POPC     C32      CTL2    -0.220000       12.0110           0
     24509 MEMB     219      POPC     H2X      HAL2     0.900000E-01   1.00800           0
     24510 MEMB     219      POPC     H2Y      HAL2     0.900000E-01   1.00800           0
     24511 MEMB     219      POPC     C23      CTL2    -0.180000       12.0110           0
     24512 MEMB     219      POPC     H3R      HAL2     0.900000E-01   1.00800           0
     24513 MEMB     219      POPC     H3S      HAL2     0.900000E-01   1.00800           0
     24514 MEMB     219      POPC     C24      CTL2    -0.180000       12.0110           0
     24515 MEMB     219      POPC     H4R      HAL2     0.900000E-01   1.00800           0
     24516 MEMB     219      POPC     H4S      HAL2     0.900000E-01   1.00800           0
     24517 MEMB     219      POPC     C25      CTL2    -0.180000       12.0110           0
     24518 MEMB     219      POPC     H5R      HAL2     0.900000E-01   1.00800           0
     24519 MEMB     219      POPC     H5S      HAL2     0.900000E-01   1.00800           0
     24520 MEMB     219      POPC     C26      CTL2    -0.180000       12.0110           0
     24521 MEMB     219      POPC     H6R      HAL2     0.900000E-01   1.00800           0
     24522 MEMB     219      POPC     H6S      HAL2     0.900000E-01   1.00800           0
     24523 MEMB     219      POPC     C27      CTL2    -0.180000       12.0110           0
     24524 MEMB     219      POPC     H7R      HAL2     0.900000E-01   1.00800           0
     24525 MEMB     219      POPC     H7S      HAL2     0.900000E-01   1.00800           0
     24526 MEMB     219      POPC     C28      CTL2    -0.180000       12.0110           0
     24527 MEMB     219      POPC     H8R      HAL2     0.900000E-01   1.00800           0
     24528 MEMB     219      POPC     H8S      HAL2     0.900000E-01   1.00800           0
     24529 MEMB     219      POPC     C29      CEL1    -0.150000       12.0110           0
     24530 MEMB     219      POPC     H91      HEL1     0.150000       1.00800           0
     24531 MEMB     219      POPC     C210     CEL1    -0.150000       12.0110           0
     24532 MEMB     219      POPC     H101     HEL1     0.150000       1.00800           0
     24533 MEMB     219      POPC     C211     CTL2    -0.180000       12.0110           0
     24534 MEMB     219      POPC     H11R     HAL2     0.900000E-01   1.00800           0
     24535 MEMB     219      POPC     H11S     HAL2     0.900000E-01   1.00800           0
     24536 MEMB     219      POPC     C212     CTL2    -0.180000       12.0110           0
     24537 MEMB     219      POPC     H12R     HAL2     0.900000E-01   1.00800           0
     24538 MEMB     219      POPC     H12S     HAL2     0.900000E-01   1.00800           0
     24539 MEMB     219      POPC     C213     CTL2    -0.180000       12.0110           0
     24540 MEMB     219      POPC     H13R     HAL2     0.900000E-01   1.00800           0
     24541 MEMB     219      POPC     H13S     HAL2     0.900000E-01   1.00800           0
     24542 MEMB     219      POPC     C214     CTL2    -0.180000       12.0110           0
     24543 MEMB     219      POPC     H14R     HAL2     0.900000E-01   1.00800           0
     24544 MEMB     219      POPC     H14S     HAL2     0.900000E-01   1.00800           0
     24545 MEMB     219      POPC     C215     CTL2    -0.180000       12.0110           0
     24546 MEMB     219      POPC     H15R     HAL2     0.900000E-01   1.00800           0
     24547 MEMB     219      POPC     H15S     HAL2     0.900000E-01   1.00800           0
     24548 MEMB     219      POPC     C216     CTL2    -0.180000       12.0110           0
     24549 MEMB     219      POPC     H16R     HAL2     0.900000E-01   1.00800           0
     24550 MEMB     219      POPC     H16S     HAL2     0.900000E-01   1.00800           0
     24551 MEMB     219      POPC     C217     CTL2    -0.180000       12.0110           0
     24552 MEMB     219      POPC     H17R     HAL2     0.900000E-01   1.00800           0
     24553 MEMB     219      POPC     H17S     HAL2     0.900000E-01   1.00800           0
     24554 MEMB     219      POPC     C218     CTL3    -0.270000       12.0110           0
     24555 MEMB     219      POPC     H18R     HAL3     0.900000E-01   1.00800           0
     24556 MEMB     219      POPC     H18S     HAL3     0.900000E-01   1.00800           0
     24557 MEMB     219      POPC     H18T     HAL3     0.900000E-01   1.00800           0
     24558 MEMB     219      POPC     C33      CTL2    -0.180000       12.0110           0
     24559 MEMB     219      POPC     H3X      HAL2     0.900000E-01   1.00800           0
     24560 MEMB     219      POPC     H3Y      HAL2     0.900000E-01   1.00800           0
     24561 MEMB     219      POPC     C34      CTL2    -0.180000       12.0110           0
     24562 MEMB     219      POPC     H4X      HAL2     0.900000E-01   1.00800           0
     24563 MEMB     219      POPC     H4Y      HAL2     0.900000E-01   1.00800           0
     24564 MEMB     219      POPC     C35      CTL2    -0.180000       12.0110           0
     24565 MEMB     219      POPC     H5X      HAL2     0.900000E-01   1.00800           0
     24566 MEMB     219      POPC     H5Y      HAL2     0.900000E-01   1.00800           0
     24567 MEMB     219      POPC     C36      CTL2    -0.180000       12.0110           0
     24568 MEMB     219      POPC     H6X      HAL2     0.900000E-01   1.00800           0
     24569 MEMB     219      POPC     H6Y      HAL2     0.900000E-01   1.00800           0
     24570 MEMB     219      POPC     C37      CTL2    -0.180000       12.0110           0
     24571 MEMB     219      POPC     H7X      HAL2     0.900000E-01   1.00800           0
     24572 MEMB     219      POPC     H7Y      HAL2     0.900000E-01   1.00800           0
     24573 MEMB     219      POPC     C38      CTL2    -0.180000       12.0110           0
     24574 MEMB     219      POPC     H8X      HAL2     0.900000E-01   1.00800           0
     24575 MEMB     219      POPC     H8Y      HAL2     0.900000E-01   1.00800           0
     24576 MEMB     219      POPC     C39      CTL2    -0.180000       12.0110           0
     24577 MEMB     219      POPC     H9X      HAL2     0.900000E-01   1.00800           0
     24578 MEMB     219      POPC     H9Y      HAL2     0.900000E-01   1.00800           0
     24579 MEMB     219      POPC     C310     CTL2    -0.180000       12.0110           0
     24580 MEMB     219      POPC     H10X     HAL2     0.900000E-01   1.00800           0
     24581 MEMB     219      POPC     H10Y     HAL2     0.900000E-01   1.00800           0
     24582 MEMB     219      POPC     C311     CTL2    -0.180000       12.0110           0
     24583 MEMB     219      POPC     H11X     HAL2     0.900000E-01   1.00800           0
     24584 MEMB     219      POPC     H11Y     HAL2     0.900000E-01   1.00800           0
     24585 MEMB     219      POPC     C312     CTL2    -0.180000       12.0110           0
     24586 MEMB     219      POPC     H12X     HAL2     0.900000E-01   1.00800           0
     24587 MEMB     219      POPC     H12Y     HAL2     0.900000E-01   1.00800           0
     24588 MEMB     219      POPC     C313     CTL2    -0.180000       12.0110           0
     24589 MEMB     219      POPC     H13X     HAL2     0.900000E-01   1.00800           0
     24590 MEMB     219      POPC     H13Y     HAL2     0.900000E-01   1.00800           0
     24591 MEMB     219      POPC     C314     CTL2    -0.180000       12.0110           0
     24592 MEMB     219      POPC     H14X     HAL2     0.900000E-01   1.00800           0
     24593 MEMB     219      POPC     H14Y     HAL2     0.900000E-01   1.00800           0
     24594 MEMB     219      POPC     C315     CTL2    -0.180000       12.0110           0
     24595 MEMB     219      POPC     H15X     HAL2     0.900000E-01   1.00800           0
     24596 MEMB     219      POPC     H15Y     HAL2     0.900000E-01   1.00800           0
     24597 MEMB     219      POPC     C316     CTL3    -0.270000       12.0110           0
     24598 MEMB     219      POPC     H16X     HAL3     0.900000E-01   1.00800           0
     24599 MEMB     219      POPC     H16Y     HAL3     0.900000E-01   1.00800           0
     24600 MEMB     219      POPC     H16Z     HAL3     0.900000E-01   1.00800           0
     24601 MEMB     220      POPE     N        NH3L    -0.300000       14.0070           0
     24602 MEMB     220      POPE     HN1      HCL      0.330000       1.00800           0
     24603 MEMB     220      POPE     HN2      HCL      0.330000       1.00800           0
     24604 MEMB     220      POPE     HN3      HCL      0.330000       1.00800           0
     24605 MEMB     220      POPE     C12      CTL2     0.130000       12.0110           0
     24606 MEMB     220      POPE     H12A     HAL2     0.900000E-01   1.00800           0
     24607 MEMB     220      POPE     H12B     HAL2     0.900000E-01   1.00800           0
     24608 MEMB     220      POPE     C11      CTL2    -0.800000E-01   12.0110           0
     24609 MEMB     220      POPE     H11A     HAL2     0.900000E-01   1.00800           0
     24610 MEMB     220      POPE     H11B     HAL2     0.900000E-01   1.00800           0
     24611 MEMB     220      POPE     P        PL        1.50000       30.9740           0
     24612 MEMB     220      POPE     O13      O2L     -0.780000       15.9994           0
     24613 MEMB     220      POPE     O14      O2L     -0.780000       15.9994           0
     24614 MEMB     220      POPE     O11      OSLP    -0.570000       15.9994           0
     24615 MEMB     220      POPE     O12      OSLP    -0.570000       15.9994           0
     24616 MEMB     220      POPE     C1       CTL2    -0.800000E-01   12.0110           0
     24617 MEMB     220      POPE     HA       HAL2     0.900000E-01   1.00800           0
     24618 MEMB     220      POPE     HB       HAL2     0.900000E-01   1.00800           0
     24619 MEMB     220      POPE     C2       CTL1     0.170000       12.0110           0
     24620 MEMB     220      POPE     HS       HAL1     0.900000E-01   1.00800           0
     24621 MEMB     220      POPE     O21      OSL     -0.490000       15.9994           0
     24622 MEMB     220      POPE     C21      CL       0.900000       12.0110           0
     24623 MEMB     220      POPE     O22      OBL     -0.630000       15.9994           0
     24624 MEMB     220      POPE     C22      CTL2    -0.220000       12.0110           0
     24625 MEMB     220      POPE     H2R      HAL2     0.900000E-01   1.00800           0
     24626 MEMB     220      POPE     H2S      HAL2     0.900000E-01   1.00800           0
     24627 MEMB     220      POPE     C3       CTL2     0.800000E-01   12.0110           0
     24628 MEMB     220      POPE     HX       HAL2     0.900000E-01   1.00800           0
     24629 MEMB     220      POPE     HY       HAL2     0.900000E-01   1.00800           0
     24630 MEMB     220      POPE     O31      OSL     -0.490000       15.9994           0
     24631 MEMB     220      POPE     C31      CL       0.900000       12.0110           0
     24632 MEMB     220      POPE     O32      OBL     -0.630000       15.9994           0
     24633 MEMB     220      POPE     C32      CTL2    -0.220000       12.0110           0
     24634 MEMB     220      POPE     H2X      HAL2     0.900000E-01   1.00800           0
     24635 MEMB     220      POPE     H2Y      HAL2     0.900000E-01   1.00800           0
     24636 MEMB     220      POPE     C23      CTL2    -0.180000       12.0110           0
     24637 MEMB     220      POPE     H3R      HAL2     0.900000E-01   1.00800           0
     24638 MEMB     220      POPE     H3S      HAL2     0.900000E-01   1.00800           0
     24639 MEMB     220      POPE     C24      CTL2    -0.180000       12.0110           0
     24640 MEMB     220      POPE     H4R      HAL2     0.900000E-01   1.00800           0
     24641 MEMB     220      POPE     H4S      HAL2     0.900000E-01   1.00800           0
     24642 MEMB     220      POPE     C25      CTL2    -0.180000       12.0110           0
     24643 MEMB     220      POPE     H5R      HAL2     0.900000E-01   1.00800           0
     24644 MEMB     220      POPE     H5S      HAL2     0.900000E-01   1.00800           0
     24645 MEMB     220      POPE     C26      CTL2    -0.180000       12.0110           0
     24646 MEMB     220      POPE     H6R      HAL2     0.900000E-01   1.00800           0
     24647 MEMB     220      POPE     H6S      HAL2     0.900000E-01   1.00800           0
     24648 MEMB     220      POPE     C27      CTL2    -0.180000       12.0110           0
     24649 MEMB     220      POPE     H7R      HAL2     0.900000E-01   1.00800           0
     24650 MEMB     220      POPE     H7S      HAL2     0.900000E-01   1.00800           0
     24651 MEMB     220      POPE     C28      CTL2    -0.180000       12.0110           0
     24652 MEMB     220      POPE     H8R      HAL2     0.900000E-01   1.00800           0
     24653 MEMB     220      POPE     H8S      HAL2     0.900000E-01   1.00800           0
     24654 MEMB     220      POPE     C29      CEL1    -0.150000       12.0110           0
     24655 MEMB     220      POPE     H91      HEL1     0.150000       1.00800           0
     24656 MEMB     220      POPE     C210     CEL1    -0.150000       12.0110           0
     24657 MEMB     220      POPE     H101     HEL1     0.150000       1.00800           0
     24658 MEMB     220      POPE     C211     CTL2    -0.180000       12.0110           0
     24659 MEMB     220      POPE     H11R     HAL2     0.900000E-01   1.00800           0
     24660 MEMB     220      POPE     H11S     HAL2     0.900000E-01   1.00800           0
     24661 MEMB     220      POPE     C212     CTL2    -0.180000       12.0110           0
     24662 MEMB     220      POPE     H12R     HAL2     0.900000E-01   1.00800           0
     24663 MEMB     220      POPE     H12S     HAL2     0.900000E-01   1.00800           0
     24664 MEMB     220      POPE     C213     CTL2    -0.180000       12.0110           0
     24665 MEMB     220      POPE     H13R     HAL2     0.900000E-01   1.00800           0
     24666 MEMB     220      POPE     H13S     HAL2     0.900000E-01   1.00800           0
     24667 MEMB     220      POPE     C214     CTL2    -0.180000       12.0110           0
     24668 MEMB     220      POPE     H14R     HAL2     0.900000E-01   1.00800           0
     24669 MEMB     220      POPE     H14S     HAL2     0.900000E-01   1.00800           0
     24670 MEMB     220      POPE     C215     CTL2    -0.180000       12.0110           0
     24671 MEMB     220      POPE     H15R     HAL2     0.900000E-01   1.00800           0
     24672 MEMB     220      POPE     H15S     HAL2     0.900000E-01   1.00800           0
     24673 MEMB     220      POPE     C216     CTL2    -0.180000       12.0110           0
     24674 MEMB     220      POPE     H16R     HAL2     0.900000E-01   1.00800           0
     24675 MEMB     220      POPE     H16S     HAL2     0.900000E-01   1.00800           0
     24676 MEMB     220      POPE     C217     CTL2    -0.180000       12.0110           0
     24677 MEMB     220      POPE     H17R     HAL2     0.900000E-01   1.00800           0
     24678 MEMB     220      POPE     H17S     HAL2     0.900000E-01   1.00800           0
     24679 MEMB     220      POPE     C218     CTL3    -0.270000       12.0110           0
     24680 MEMB     220      POPE     H18R     HAL3     0.900000E-01   1.00800           0
     24681 MEMB     220      POPE     H18S     HAL3     0.900000E-01   1.00800           0
     24682 MEMB     220      POPE     H18T     HAL3     0.900000E-01   1.00800           0
     24683 MEMB     220      POPE     C33      CTL2    -0.180000       12.0110           0
     24684 MEMB     220      POPE     H3X      HAL2     0.900000E-01   1.00800           0
     24685 MEMB     220      POPE     H3Y      HAL2     0.900000E-01   1.00800           0
     24686 MEMB     220      POPE     C34      CTL2    -0.180000       12.0110           0
     24687 MEMB     220      POPE     H4X      HAL2     0.900000E-01   1.00800           0
     24688 MEMB     220      POPE     H4Y      HAL2     0.900000E-01   1.00800           0
     24689 MEMB     220      POPE     C35      CTL2    -0.180000       12.0110           0
     24690 MEMB     220      POPE     H5X      HAL2     0.900000E-01   1.00800           0
     24691 MEMB     220      POPE     H5Y      HAL2     0.900000E-01   1.00800           0
     24692 MEMB     220      POPE     C36      CTL2    -0.180000       12.0110           0
     24693 MEMB     220      POPE     H6X      HAL2     0.900000E-01   1.00800           0
     24694 MEMB     220      POPE     H6Y      HAL2     0.900000E-01   1.00800           0
     24695 MEMB     220      POPE     C37      CTL2    -0.180000       12.0110           0
     24696 MEMB     220      POPE     H7X      HAL2     0.900000E-01   1.00800           0
     24697 MEMB     220      POPE     H7Y      HAL2     0.900000E-01   1.00800           0
     24698 MEMB     220      POPE     C38      CTL2    -0.180000       12.0110           0
     24699 MEMB     220      POPE     H8X      HAL2     0.900000E-01   1.00800           0
     24700 MEMB     220      POPE     H8Y      HAL2     0.900000E-01   1.00800           0
     24701 MEMB     220      POPE     C39      CTL2    -0.180000       12.0110           0
     24702 MEMB     220      POPE     H9X      HAL2     0.900000E-01   1.00800           0
     24703 MEMB     220      POPE     H9Y      HAL2     0.900000E-01   1.00800           0
     24704 MEMB     220      POPE     C310     CTL2    -0.180000       12.0110           0
     24705 MEMB     220      POPE     H10X     HAL2     0.900000E-01   1.00800           0
     24706 MEMB     220      POPE     H10Y     HAL2     0.900000E-01   1.00800           0
     24707 MEMB     220      POPE     C311     CTL2    -0.180000       12.0110           0
     24708 MEMB     220      POPE     H11X     HAL2     0.900000E-01   1.00800           0
     24709 MEMB     220      POPE     H11Y     HAL2     0.900000E-01   1.00800           0
     24710 MEMB     220      POPE     C312     CTL2    -0.180000       12.0110           0
     24711 MEMB     220      POPE     H12X     HAL2     0.900000E-01   1.00800           0
     24712 MEMB     220      POPE     H12Y     HAL2     0.900000E-01   1.00800           0
     24713 MEMB     220      POPE     C313     CTL2    -0.180000       12.0110           0
     24714 MEMB     220      POPE     H13X     HAL2     0.900000E-01   1.00800           0
     24715 MEMB     220      POPE     H13Y     HAL2     0.900000E-01   1.00800           0
     24716 MEMB     220      POPE     C314     CTL2    -0.180000       12.0110           0
     24717 MEMB     220      POPE     H14X     HAL2     0.900000E-01   1.00800           0
     24718 MEMB     220      POPE     H14Y     HAL2     0.900000E-01   1.00800           0
     24719 MEMB     220      POPE     C315     CTL2    -0.180000       12.0110           0
     24720 MEMB     220      POPE     H15X     HAL2     0.900000E-01   1.00800           0
     24721 MEMB     220      POPE     H15Y     HAL2     0.900000E-01   1.00800           0
     24722 MEMB     220      POPE     C316     CTL3    -0.270000       12.0110           0
     24723 MEMB     220      POPE     H16X     HAL3     0.900000E-01   1.00800           0
     24724 MEMB     220      POPE     H16Y     HAL3     0.900000E-01   1.00800           0
     24725 MEMB     220      POPE     H16Z     HAL3     0.900000E-01   1.00800           0
     24726 MEMB     221      POPE     N        NH3L    -0.300000       14.0070           0
     24727 MEMB     221      POPE     HN1      HCL      0.330000       1.00800           0
     24728 MEMB     221      POPE     HN2      HCL      0.330000       1.00800           0
     24729 MEMB     221      POPE     HN3      HCL      0.330000       1.00800           0
     24730 MEMB     221      POPE     C12      CTL2     0.130000       12.0110           0
     24731 MEMB     221      POPE     H12A     HAL2     0.900000E-01   1.00800           0
     24732 MEMB     221      POPE     H12B     HAL2     0.900000E-01   1.00800           0
     24733 MEMB     221      POPE     C11      CTL2    -0.800000E-01   12.0110           0
     24734 MEMB     221      POPE     H11A     HAL2     0.900000E-01   1.00800           0
     24735 MEMB     221      POPE     H11B     HAL2     0.900000E-01   1.00800           0
     24736 MEMB     221      POPE     P        PL        1.50000       30.9740           0
     24737 MEMB     221      POPE     O13      O2L     -0.780000       15.9994           0
     24738 MEMB     221      POPE     O14      O2L     -0.780000       15.9994           0
     24739 MEMB     221      POPE     O11      OSLP    -0.570000       15.9994           0
     24740 MEMB     221      POPE     O12      OSLP    -0.570000       15.9994           0
     24741 MEMB     221      POPE     C1       CTL2    -0.800000E-01   12.0110           0
     24742 MEMB     221      POPE     HA       HAL2     0.900000E-01   1.00800           0
     24743 MEMB     221      POPE     HB       HAL2     0.900000E-01   1.00800           0
     24744 MEMB     221      POPE     C2       CTL1     0.170000       12.0110           0
     24745 MEMB     221      POPE     HS       HAL1     0.900000E-01   1.00800           0
     24746 MEMB     221      POPE     O21      OSL     -0.490000       15.9994           0
     24747 MEMB     221      POPE     C21      CL       0.900000       12.0110           0
     24748 MEMB     221      POPE     O22      OBL     -0.630000       15.9994           0
     24749 MEMB     221      POPE     C22      CTL2    -0.220000       12.0110           0
     24750 MEMB     221      POPE     H2R      HAL2     0.900000E-01   1.00800           0
     24751 MEMB     221      POPE     H2S      HAL2     0.900000E-01   1.00800           0
     24752 MEMB     221      POPE     C3       CTL2     0.800000E-01   12.0110           0
     24753 MEMB     221      POPE     HX       HAL2     0.900000E-01   1.00800           0
     24754 MEMB     221      POPE     HY       HAL2     0.900000E-01   1.00800           0
     24755 MEMB     221      POPE     O31      OSL     -0.490000       15.9994           0
     24756 MEMB     221      POPE     C31      CL       0.900000       12.0110           0
     24757 MEMB     221      POPE     O32      OBL     -0.630000       15.9994           0
     24758 MEMB     221      POPE     C32      CTL2    -0.220000       12.0110           0
     24759 MEMB     221      POPE     H2X      HAL2     0.900000E-01   1.00800           0
     24760 MEMB     221      POPE     H2Y      HAL2     0.900000E-01   1.00800           0
     24761 MEMB     221      POPE     C23      CTL2    -0.180000       12.0110           0
     24762 MEMB     221      POPE     H3R      HAL2     0.900000E-01   1.00800           0
     24763 MEMB     221      POPE     H3S      HAL2     0.900000E-01   1.00800           0
     24764 MEMB     221      POPE     C24      CTL2    -0.180000       12.0110           0
     24765 MEMB     221      POPE     H4R      HAL2     0.900000E-01   1.00800           0
     24766 MEMB     221      POPE     H4S      HAL2     0.900000E-01   1.00800           0
     24767 MEMB     221      POPE     C25      CTL2    -0.180000       12.0110           0
     24768 MEMB     221      POPE     H5R      HAL2     0.900000E-01   1.00800           0
     24769 MEMB     221      POPE     H5S      HAL2     0.900000E-01   1.00800           0
     24770 MEMB     221      POPE     C26      CTL2    -0.180000       12.0110           0
     24771 MEMB     221      POPE     H6R      HAL2     0.900000E-01   1.00800           0
     24772 MEMB     221      POPE     H6S      HAL2     0.900000E-01   1.00800           0
     24773 MEMB     221      POPE     C27      CTL2    -0.180000       12.0110           0
     24774 MEMB     221      POPE     H7R      HAL2     0.900000E-01   1.00800           0
     24775 MEMB     221      POPE     H7S      HAL2     0.900000E-01   1.00800           0
     24776 MEMB     221      POPE     C28      CTL2    -0.180000       12.0110           0
     24777 MEMB     221      POPE     H8R      HAL2     0.900000E-01   1.00800           0
     24778 MEMB     221      POPE     H8S      HAL2     0.900000E-01   1.00800           0
     24779 MEMB     221      POPE     C29      CEL1    -0.150000       12.0110           0
     24780 MEMB     221      POPE     H91      HEL1     0.150000       1.00800           0
     24781 MEMB     221      POPE     C210     CEL1    -0.150000       12.0110           0
     24782 MEMB     221      POPE     H101     HEL1     0.150000       1.00800           0
     24783 MEMB     221      POPE     C211     CTL2    -0.180000       12.0110           0
     24784 MEMB     221      POPE     H11R     HAL2     0.900000E-01   1.00800           0
     24785 MEMB     221      POPE     H11S     HAL2     0.900000E-01   1.00800           0
     24786 MEMB     221      POPE     C212     CTL2    -0.180000       12.0110           0
     24787 MEMB     221      POPE     H12R     HAL2     0.900000E-01   1.00800           0
     24788 MEMB     221      POPE     H12S     HAL2     0.900000E-01   1.00800           0
     24789 MEMB     221      POPE     C213     CTL2    -0.180000       12.0110           0
     24790 MEMB     221      POPE     H13R     HAL2     0.900000E-01   1.00800           0
     24791 MEMB     221      POPE     H13S     HAL2     0.900000E-01   1.00800           0
     24792 MEMB     221      POPE     C214     CTL2    -0.180000       12.0110           0
     24793 MEMB     221      POPE     H14R     HAL2     0.900000E-01   1.00800           0
     24794 MEMB     221      POPE     H14S     HAL2     0.900000E-01   1.00800           0
     24795 MEMB     221      POPE     C215     CTL2    -0.180000       12.0110           0
     24796 MEMB     221      POPE     H15R     HAL2     0.900000E-01   1.00800           0
     24797 MEMB     221      POPE     H15S     HAL2     0.900000E-01   1.00800           0
     24798 MEMB     221      POPE     C216     CTL2    -0.180000       12.0110           0
     24799 MEMB     221      POPE     H16R     HAL2     0.900000E-01   1.00800           0
     24800 MEMB     221      POPE     H16S     HAL2     0.900000E-01   1.00800           0
     24801 MEMB     221      POPE     C217     CTL2    -0.180000       12.0110           0
     24802 MEMB     221      POPE     H17R     HAL2     0.900000E-01   1.00800           0
     24803 MEMB     221      POPE     H17S     HAL2     0.900000E-01   1.00800           0
     24804 MEMB     221      POPE     C218     CTL3    -0.270000       12.0110           0
     24805 MEMB     221      POPE     H18R     HAL3     0.900000E-01   1.00800           0
     24806 MEMB     221      POPE     H18S     HAL3     0.900000E-01   1.00800           0
     24807 MEMB     221      POPE     H18T     HAL3     0.900000E-01   1.00800           0
     24808 MEMB     221      POPE     C33      CTL2    -0.180000       12.0110           0
     24809 MEMB     221      POPE     H3X      HAL2     0.900000E-01   1.00800           0
     24810 MEMB     221      POPE     H3Y      HAL2     0.900000E-01   1.00800           0
     24811 MEMB     221      POPE     C34      CTL2    -0.180000       12.0110           0
     24812 MEMB     221      POPE     H4X      HAL2     0.900000E-01   1.00800           0
     24813 MEMB     221      POPE     H4Y      HAL2     0.900000E-01   1.00800           0
     24814 MEMB     221      POPE     C35      CTL2    -0.180000       12.0110           0
     24815 MEMB     221      POPE     H5X      HAL2     0.900000E-01   1.00800           0
     24816 MEMB     221      POPE     H5Y      HAL2     0.900000E-01   1.00800           0
     24817 MEMB     221      POPE     C36      CTL2    -0.180000       12.0110           0
     24818 MEMB     221      POPE     H6X      HAL2     0.900000E-01   1.00800           0
     24819 MEMB     221      POPE     H6Y      HAL2     0.900000E-01   1.00800           0
     24820 MEMB     221      POPE     C37      CTL2    -0.180000       12.0110           0
     24821 MEMB     221      POPE     H7X      HAL2     0.900000E-01   1.00800           0
     24822 MEMB     221      POPE     H7Y      HAL2     0.900000E-01   1.00800           0
     24823 MEMB     221      POPE     C38      CTL2    -0.180000       12.0110           0
     24824 MEMB     221      POPE     H8X      HAL2     0.900000E-01   1.00800           0
     24825 MEMB     221      POPE     H8Y      HAL2     0.900000E-01   1.00800           0
     24826 MEMB     221      POPE     C39      CTL2    -0.180000       12.0110           0
     24827 MEMB     221      POPE     H9X      HAL2     0.900000E-01   1.00800           0
     24828 MEMB     221      POPE     H9Y      HAL2     0.900000E-01   1.00800           0
     24829 MEMB     221      POPE     C310     CTL2    -0.180000       12.0110           0
     24830 MEMB     221      POPE     H10X     HAL2     0.900000E-01   1.00800           0
     24831 MEMB     221      POPE     H10Y     HAL2     0.900000E-01   1.00800           0
     24832 MEMB     221      POPE     C311     CTL2    -0.180000       12.0110           0
     24833 MEMB     221      POPE     H11X     HAL2     0.900000E-01   1.00800           0
     24834 MEMB     221      POPE     H11Y     HAL2     0.900000E-01   1.00800           0
     24835 MEMB     221      POPE     C312     CTL2    -0.180000       12.0110           0
     24836 MEMB     221      POPE     H12X     HAL2     0.900000E-01   1.00800           0
     24837 MEMB     221      POPE     H12Y     HAL2     0.900000E-01   1.00800           0
     24838 MEMB     221      POPE     C313     CTL2    -0.180000       12.0110           0
     24839 MEMB     221      POPE     H13X     HAL2     0.900000E-01   1.00800           0
     24840 MEMB     221      POPE     H13Y     HAL2     0.900000E-01   1.00800           0
     24841 MEMB     221      POPE     C314     CTL2    -0.180000       12.0110           0
     24842 MEMB     221      POPE     H14X     HAL2     0.900000E-01   1.00800           0
     24843 MEMB     221      POPE     H14Y     HAL2     0.900000E-01   1.00800           0
     24844 MEMB     221      POPE     C315     CTL2    -0.180000       12.0110           0
     24845 MEMB     221      POPE     H15X     HAL2     0.900000E-01   1.00800           0
     24846 MEMB     221      POPE     H15Y     HAL2     0.900000E-01   1.00800           0
     24847 MEMB     221      POPE     C316     CTL3    -0.270000       12.0110           0
     24848 MEMB     221      POPE     H16X     HAL3     0.900000E-01   1.00800           0
     24849 MEMB     221      POPE     H16Y     HAL3     0.900000E-01   1.00800           0
     24850 MEMB     221      POPE     H16Z     HAL3     0.900000E-01   1.00800           0
     24851 MEMB     222      POPC     N        NTL     -0.600000       14.0070           0
     24852 MEMB     222      POPC     C12      CTL2    -0.100000       12.0110           0
     24853 MEMB     222      POPC     H12A     HL       0.250000       1.00800           0
     24854 MEMB     222      POPC     H12B     HL       0.250000       1.00800           0
     24855 MEMB     222      POPC     C13      CTL5    -0.350000       12.0110           0
     24856 MEMB     222      POPC     H13A     HL       0.250000       1.00800           0
     24857 MEMB     222      POPC     H13B     HL       0.250000       1.00800           0
     24858 MEMB     222      POPC     H13C     HL       0.250000       1.00800           0
     24859 MEMB     222      POPC     C14      CTL5    -0.350000       12.0110           0
     24860 MEMB     222      POPC     H14A     HL       0.250000       1.00800           0
     24861 MEMB     222      POPC     H14B     HL       0.250000       1.00800           0
     24862 MEMB     222      POPC     H14C     HL       0.250000       1.00800           0
     24863 MEMB     222      POPC     C15      CTL5    -0.350000       12.0110           0
     24864 MEMB     222      POPC     H15A     HL       0.250000       1.00800           0
     24865 MEMB     222      POPC     H15B     HL       0.250000       1.00800           0
     24866 MEMB     222      POPC     H15C     HL       0.250000       1.00800           0
     24867 MEMB     222      POPC     C11      CTL2    -0.800000E-01   12.0110           0
     24868 MEMB     222      POPC     H11A     HAL2     0.900000E-01   1.00800           0
     24869 MEMB     222      POPC     H11B     HAL2     0.900000E-01   1.00800           0
     24870 MEMB     222      POPC     P        PL        1.50000       30.9740           0
     24871 MEMB     222      POPC     O13      O2L     -0.780000       15.9994           0
     24872 MEMB     222      POPC     O14      O2L     -0.780000       15.9994           0
     24873 MEMB     222      POPC     O12      OSLP    -0.570000       15.9994           0
     24874 MEMB     222      POPC     O11      OSLP    -0.570000       15.9994           0
     24875 MEMB     222      POPC     C1       CTL2    -0.800000E-01   12.0110           0
     24876 MEMB     222      POPC     HA       HAL2     0.900000E-01   1.00800           0
     24877 MEMB     222      POPC     HB       HAL2     0.900000E-01   1.00800           0
     24878 MEMB     222      POPC     C2       CTL1     0.170000       12.0110           0
     24879 MEMB     222      POPC     HS       HAL1     0.900000E-01   1.00800           0
     24880 MEMB     222      POPC     O21      OSL     -0.490000       15.9994           0
     24881 MEMB     222      POPC     C21      CL       0.900000       12.0110           0
     24882 MEMB     222      POPC     O22      OBL     -0.630000       15.9994           0
     24883 MEMB     222      POPC     C22      CTL2    -0.220000       12.0110           0
     24884 MEMB     222      POPC     H2R      HAL2     0.900000E-01   1.00800           0
     24885 MEMB     222      POPC     H2S      HAL2     0.900000E-01   1.00800           0
     24886 MEMB     222      POPC     C3       CTL2     0.800000E-01   12.0110           0
     24887 MEMB     222      POPC     HX       HAL2     0.900000E-01   1.00800           0
     24888 MEMB     222      POPC     HY       HAL2     0.900000E-01   1.00800           0
     24889 MEMB     222      POPC     O31      OSL     -0.490000       15.9994           0
     24890 MEMB     222      POPC     C31      CL       0.900000       12.0110           0
     24891 MEMB     222      POPC     O32      OBL     -0.630000       15.9994           0
     24892 MEMB     222      POPC     C32      CTL2    -0.220000       12.0110           0
     24893 MEMB     222      POPC     H2X      HAL2     0.900000E-01   1.00800           0
     24894 MEMB     222      POPC     H2Y      HAL2     0.900000E-01   1.00800           0
     24895 MEMB     222      POPC     C23      CTL2    -0.180000       12.0110           0
     24896 MEMB     222      POPC     H3R      HAL2     0.900000E-01   1.00800           0
     24897 MEMB     222      POPC     H3S      HAL2     0.900000E-01   1.00800           0
     24898 MEMB     222      POPC     C24      CTL2    -0.180000       12.0110           0
     24899 MEMB     222      POPC     H4R      HAL2     0.900000E-01   1.00800           0
     24900 MEMB     222      POPC     H4S      HAL2     0.900000E-01   1.00800           0
     24901 MEMB     222      POPC     C25      CTL2    -0.180000       12.0110           0
     24902 MEMB     222      POPC     H5R      HAL2     0.900000E-01   1.00800           0
     24903 MEMB     222      POPC     H5S      HAL2     0.900000E-01   1.00800           0
     24904 MEMB     222      POPC     C26      CTL2    -0.180000       12.0110           0
     24905 MEMB     222      POPC     H6R      HAL2     0.900000E-01   1.00800           0
     24906 MEMB     222      POPC     H6S      HAL2     0.900000E-01   1.00800           0
     24907 MEMB     222      POPC     C27      CTL2    -0.180000       12.0110           0
     24908 MEMB     222      POPC     H7R      HAL2     0.900000E-01   1.00800           0
     24909 MEMB     222      POPC     H7S      HAL2     0.900000E-01   1.00800           0
     24910 MEMB     222      POPC     C28      CTL2    -0.180000       12.0110           0
     24911 MEMB     222      POPC     H8R      HAL2     0.900000E-01   1.00800           0
     24912 MEMB     222      POPC     H8S      HAL2     0.900000E-01   1.00800           0
     24913 MEMB     222      POPC     C29      CEL1    -0.150000       12.0110           0
     24914 MEMB     222      POPC     H91      HEL1     0.150000       1.00800           0
     24915 MEMB     222      POPC     C210     CEL1    -0.150000       12.0110           0
     24916 MEMB     222      POPC     H101     HEL1     0.150000       1.00800           0
     24917 MEMB     222      POPC     C211     CTL2    -0.180000       12.0110           0
     24918 MEMB     222      POPC     H11R     HAL2     0.900000E-01   1.00800           0
     24919 MEMB     222      POPC     H11S     HAL2     0.900000E-01   1.00800           0
     24920 MEMB     222      POPC     C212     CTL2    -0.180000       12.0110           0
     24921 MEMB     222      POPC     H12R     HAL2     0.900000E-01   1.00800           0
     24922 MEMB     222      POPC     H12S     HAL2     0.900000E-01   1.00800           0
     24923 MEMB     222      POPC     C213     CTL2    -0.180000       12.0110           0
     24924 MEMB     222      POPC     H13R     HAL2     0.900000E-01   1.00800           0
     24925 MEMB     222      POPC     H13S     HAL2     0.900000E-01   1.00800           0
     24926 MEMB     222      POPC     C214     CTL2    -0.180000       12.0110           0
     24927 MEMB     222      POPC     H14R     HAL2     0.900000E-01   1.00800           0
     24928 MEMB     222      POPC     H14S     HAL2     0.900000E-01   1.00800           0
     24929 MEMB     222      POPC     C215     CTL2    -0.180000       12.0110           0
     24930 MEMB     222      POPC     H15R     HAL2     0.900000E-01   1.00800           0
     24931 MEMB     222      POPC     H15S     HAL2     0.900000E-01   1.00800           0
     24932 MEMB     222      POPC     C216     CTL2    -0.180000       12.0110           0
     24933 MEMB     222      POPC     H16R     HAL2     0.900000E-01   1.00800           0
     24934 MEMB     222      POPC     H16S     HAL2     0.900000E-01   1.00800           0
     24935 MEMB     222      POPC     C217     CTL2    -0.180000       12.0110           0
     24936 MEMB     222      POPC     H17R     HAL2     0.900000E-01   1.00800           0
     24937 MEMB     222      POPC     H17S     HAL2     0.900000E-01   1.00800           0
     24938 MEMB     222      POPC     C218     CTL3    -0.270000       12.0110           0
     24939 MEMB     222      POPC     H18R     HAL3     0.900000E-01   1.00800           0
     24940 MEMB     222      POPC     H18S     HAL3     0.900000E-01   1.00800           0
     24941 MEMB     222      POPC     H18T     HAL3     0.900000E-01   1.00800           0
     24942 MEMB     222      POPC     C33      CTL2    -0.180000       12.0110           0
     24943 MEMB     222      POPC     H3X      HAL2     0.900000E-01   1.00800           0
     24944 MEMB     222      POPC     H3Y      HAL2     0.900000E-01   1.00800           0
     24945 MEMB     222      POPC     C34      CTL2    -0.180000       12.0110           0
     24946 MEMB     222      POPC     H4X      HAL2     0.900000E-01   1.00800           0
     24947 MEMB     222      POPC     H4Y      HAL2     0.900000E-01   1.00800           0
     24948 MEMB     222      POPC     C35      CTL2    -0.180000       12.0110           0
     24949 MEMB     222      POPC     H5X      HAL2     0.900000E-01   1.00800           0
     24950 MEMB     222      POPC     H5Y      HAL2     0.900000E-01   1.00800           0
     24951 MEMB     222      POPC     C36      CTL2    -0.180000       12.0110           0
     24952 MEMB     222      POPC     H6X      HAL2     0.900000E-01   1.00800           0
     24953 MEMB     222      POPC     H6Y      HAL2     0.900000E-01   1.00800           0
     24954 MEMB     222      POPC     C37      CTL2    -0.180000       12.0110           0
     24955 MEMB     222      POPC     H7X      HAL2     0.900000E-01   1.00800           0
     24956 MEMB     222      POPC     H7Y      HAL2     0.900000E-01   1.00800           0
     24957 MEMB     222      POPC     C38      CTL2    -0.180000       12.0110           0
     24958 MEMB     222      POPC     H8X      HAL2     0.900000E-01   1.00800           0
     24959 MEMB     222      POPC     H8Y      HAL2     0.900000E-01   1.00800           0
     24960 MEMB     222      POPC     C39      CTL2    -0.180000       12.0110           0
     24961 MEMB     222      POPC     H9X      HAL2     0.900000E-01   1.00800           0
     24962 MEMB     222      POPC     H9Y      HAL2     0.900000E-01   1.00800           0
     24963 MEMB     222      POPC     C310     CTL2    -0.180000       12.0110           0
     24964 MEMB     222      POPC     H10X     HAL2     0.900000E-01   1.00800           0
     24965 MEMB     222      POPC     H10Y     HAL2     0.900000E-01   1.00800           0
     24966 MEMB     222      POPC     C311     CTL2    -0.180000       12.0110           0
     24967 MEMB     222      POPC     H11X     HAL2     0.900000E-01   1.00800           0
     24968 MEMB     222      POPC     H11Y     HAL2     0.900000E-01   1.00800           0
     24969 MEMB     222      POPC     C312     CTL2    -0.180000       12.0110           0
     24970 MEMB     222      POPC     H12X     HAL2     0.900000E-01   1.00800           0
     24971 MEMB     222      POPC     H12Y     HAL2     0.900000E-01   1.00800           0
     24972 MEMB     222      POPC     C313     CTL2    -0.180000       12.0110           0
     24973 MEMB     222      POPC     H13X     HAL2     0.900000E-01   1.00800           0
     24974 MEMB     222      POPC     H13Y     HAL2     0.900000E-01   1.00800           0
     24975 MEMB     222      POPC     C314     CTL2    -0.180000       12.0110           0
     24976 MEMB     222      POPC     H14X     HAL2     0.900000E-01   1.00800           0
     24977 MEMB     222      POPC     H14Y     HAL2     0.900000E-01   1.00800           0
     24978 MEMB     222      POPC     C315     CTL2    -0.180000       12.0110           0
     24979 MEMB     222      POPC     H15X     HAL2     0.900000E-01   1.00800           0
     24980 MEMB     222      POPC     H15Y     HAL2     0.900000E-01   1.00800           0
     24981 MEMB     222      POPC     C316     CTL3    -0.270000       12.0110           0
     24982 MEMB     222      POPC     H16X     HAL3     0.900000E-01   1.00800           0
     24983 MEMB     222      POPC     H16Y     HAL3     0.900000E-01   1.00800           0
     24984 MEMB     222      POPC     H16Z     HAL3     0.900000E-01   1.00800           0
     24985 MEMB     223      POPC     N        NTL     -0.600000       14.0070           0
     24986 MEMB     223      POPC     C12      CTL2    -0.100000       12.0110           0
     24987 MEMB     223      POPC     H12A     HL       0.250000       1.00800           0
     24988 MEMB     223      POPC     H12B     HL       0.250000       1.00800           0
     24989 MEMB     223      POPC     C13      CTL5    -0.350000       12.0110           0
     24990 MEMB     223      POPC     H13A     HL       0.250000       1.00800           0
     24991 MEMB     223      POPC     H13B     HL       0.250000       1.00800           0
     24992 MEMB     223      POPC     H13C     HL       0.250000       1.00800           0
     24993 MEMB     223      POPC     C14      CTL5    -0.350000       12.0110           0
     24994 MEMB     223      POPC     H14A     HL       0.250000       1.00800           0
     24995 MEMB     223      POPC     H14B     HL       0.250000       1.00800           0
     24996 MEMB     223      POPC     H14C     HL       0.250000       1.00800           0
     24997 MEMB     223      POPC     C15      CTL5    -0.350000       12.0110           0
     24998 MEMB     223      POPC     H15A     HL       0.250000       1.00800           0
     24999 MEMB     223      POPC     H15B     HL       0.250000       1.00800           0
     25000 MEMB     223      POPC     H15C     HL       0.250000       1.00800           0
     25001 MEMB     223      POPC     C11      CTL2    -0.800000E-01   12.0110           0
     25002 MEMB     223      POPC     H11A     HAL2     0.900000E-01   1.00800           0
     25003 MEMB     223      POPC     H11B     HAL2     0.900000E-01   1.00800           0
     25004 MEMB     223      POPC     P        PL        1.50000       30.9740           0
     25005 MEMB     223      POPC     O13      O2L     -0.780000       15.9994           0
     25006 MEMB     223      POPC     O14      O2L     -0.780000       15.9994           0
     25007 MEMB     223      POPC     O12      OSLP    -0.570000       15.9994           0
     25008 MEMB     223      POPC     O11      OSLP    -0.570000       15.9994           0
     25009 MEMB     223      POPC     C1       CTL2    -0.800000E-01   12.0110           0
     25010 MEMB     223      POPC     HA       HAL2     0.900000E-01   1.00800           0
     25011 MEMB     223      POPC     HB       HAL2     0.900000E-01   1.00800           0
     25012 MEMB     223      POPC     C2       CTL1     0.170000       12.0110           0
     25013 MEMB     223      POPC     HS       HAL1     0.900000E-01   1.00800           0
     25014 MEMB     223      POPC     O21      OSL     -0.490000       15.9994           0
     25015 MEMB     223      POPC     C21      CL       0.900000       12.0110           0
     25016 MEMB     223      POPC     O22      OBL     -0.630000       15.9994           0
     25017 MEMB     223      POPC     C22      CTL2    -0.220000       12.0110           0
     25018 MEMB     223      POPC     H2R      HAL2     0.900000E-01   1.00800           0
     25019 MEMB     223      POPC     H2S      HAL2     0.900000E-01   1.00800           0
     25020 MEMB     223      POPC     C3       CTL2     0.800000E-01   12.0110           0
     25021 MEMB     223      POPC     HX       HAL2     0.900000E-01   1.00800           0
     25022 MEMB     223      POPC     HY       HAL2     0.900000E-01   1.00800           0
     25023 MEMB     223      POPC     O31      OSL     -0.490000       15.9994           0
     25024 MEMB     223      POPC     C31      CL       0.900000       12.0110           0
     25025 MEMB     223      POPC     O32      OBL     -0.630000       15.9994           0
     25026 MEMB     223      POPC     C32      CTL2    -0.220000       12.0110           0
     25027 MEMB     223      POPC     H2X      HAL2     0.900000E-01   1.00800           0
     25028 MEMB     223      POPC     H2Y      HAL2     0.900000E-01   1.00800           0
     25029 MEMB     223      POPC     C23      CTL2    -0.180000       12.0110           0
     25030 MEMB     223      POPC     H3R      HAL2     0.900000E-01   1.00800           0
     25031 MEMB     223      POPC     H3S      HAL2     0.900000E-01   1.00800           0
     25032 MEMB     223      POPC     C24      CTL2    -0.180000       12.0110           0
     25033 MEMB     223      POPC     H4R      HAL2     0.900000E-01   1.00800           0
     25034 MEMB     223      POPC     H4S      HAL2     0.900000E-01   1.00800           0
     25035 MEMB     223      POPC     C25      CTL2    -0.180000       12.0110           0
     25036 MEMB     223      POPC     H5R      HAL2     0.900000E-01   1.00800           0
     25037 MEMB     223      POPC     H5S      HAL2     0.900000E-01   1.00800           0
     25038 MEMB     223      POPC     C26      CTL2    -0.180000       12.0110           0
     25039 MEMB     223      POPC     H6R      HAL2     0.900000E-01   1.00800           0
     25040 MEMB     223      POPC     H6S      HAL2     0.900000E-01   1.00800           0
     25041 MEMB     223      POPC     C27      CTL2    -0.180000       12.0110           0
     25042 MEMB     223      POPC     H7R      HAL2     0.900000E-01   1.00800           0
     25043 MEMB     223      POPC     H7S      HAL2     0.900000E-01   1.00800           0
     25044 MEMB     223      POPC     C28      CTL2    -0.180000       12.0110           0
     25045 MEMB     223      POPC     H8R      HAL2     0.900000E-01   1.00800           0
     25046 MEMB     223      POPC     H8S      HAL2     0.900000E-01   1.00800           0
     25047 MEMB     223      POPC     C29      CEL1    -0.150000       12.0110           0
     25048 MEMB     223      POPC     H91      HEL1     0.150000       1.00800           0
     25049 MEMB     223      POPC     C210     CEL1    -0.150000       12.0110           0
     25050 MEMB     223      POPC     H101     HEL1     0.150000       1.00800           0
     25051 MEMB     223      POPC     C211     CTL2    -0.180000       12.0110           0
     25052 MEMB     223      POPC     H11R     HAL2     0.900000E-01   1.00800           0
     25053 MEMB     223      POPC     H11S     HAL2     0.900000E-01   1.00800           0
     25054 MEMB     223      POPC     C212     CTL2    -0.180000       12.0110           0
     25055 MEMB     223      POPC     H12R     HAL2     0.900000E-01   1.00800           0
     25056 MEMB     223      POPC     H12S     HAL2     0.900000E-01   1.00800           0
     25057 MEMB     223      POPC     C213     CTL2    -0.180000       12.0110           0
     25058 MEMB     223      POPC     H13R     HAL2     0.900000E-01   1.00800           0
     25059 MEMB     223      POPC     H13S     HAL2     0.900000E-01   1.00800           0
     25060 MEMB     223      POPC     C214     CTL2    -0.180000       12.0110           0
     25061 MEMB     223      POPC     H14R     HAL2     0.900000E-01   1.00800           0
     25062 MEMB     223      POPC     H14S     HAL2     0.900000E-01   1.00800           0
     25063 MEMB     223      POPC     C215     CTL2    -0.180000       12.0110           0
     25064 MEMB     223      POPC     H15R     HAL2     0.900000E-01   1.00800           0
     25065 MEMB     223      POPC     H15S     HAL2     0.900000E-01   1.00800           0
     25066 MEMB     223      POPC     C216     CTL2    -0.180000       12.0110           0
     25067 MEMB     223      POPC     H16R     HAL2     0.900000E-01   1.00800           0
     25068 MEMB     223      POPC     H16S     HAL2     0.900000E-01   1.00800           0
     25069 MEMB     223      POPC     C217     CTL2    -0.180000       12.0110           0
     25070 MEMB     223      POPC     H17R     HAL2     0.900000E-01   1.00800           0
     25071 MEMB     223      POPC     H17S     HAL2     0.900000E-01   1.00800           0
     25072 MEMB     223      POPC     C218     CTL3    -0.270000       12.0110           0
     25073 MEMB     223      POPC     H18R     HAL3     0.900000E-01   1.00800           0
     25074 MEMB     223      POPC     H18S     HAL3     0.900000E-01   1.00800           0
     25075 MEMB     223      POPC     H18T     HAL3     0.900000E-01   1.00800           0
     25076 MEMB     223      POPC     C33      CTL2    -0.180000       12.0110           0
     25077 MEMB     223      POPC     H3X      HAL2     0.900000E-01   1.00800           0
     25078 MEMB     223      POPC     H3Y      HAL2     0.900000E-01   1.00800           0
     25079 MEMB     223      POPC     C34      CTL2    -0.180000       12.0110           0
     25080 MEMB     223      POPC     H4X      HAL2     0.900000E-01   1.00800           0
     25081 MEMB     223      POPC     H4Y      HAL2     0.900000E-01   1.00800           0
     25082 MEMB     223      POPC     C35      CTL2    -0.180000       12.0110           0
     25083 MEMB     223      POPC     H5X      HAL2     0.900000E-01   1.00800           0
     25084 MEMB     223      POPC     H5Y      HAL2     0.900000E-01   1.00800           0
     25085 MEMB     223      POPC     C36      CTL2    -0.180000       12.0110           0
     25086 MEMB     223      POPC     H6X      HAL2     0.900000E-01   1.00800           0
     25087 MEMB     223      POPC     H6Y      HAL2     0.900000E-01   1.00800           0
     25088 MEMB     223      POPC     C37      CTL2    -0.180000       12.0110           0
     25089 MEMB     223      POPC     H7X      HAL2     0.900000E-01   1.00800           0
     25090 MEMB     223      POPC     H7Y      HAL2     0.900000E-01   1.00800           0
     25091 MEMB     223      POPC     C38      CTL2    -0.180000       12.0110           0
     25092 MEMB     223      POPC     H8X      HAL2     0.900000E-01   1.00800           0
     25093 MEMB     223      POPC     H8Y      HAL2     0.900000E-01   1.00800           0
     25094 MEMB     223      POPC     C39      CTL2    -0.180000       12.0110           0
     25095 MEMB     223      POPC     H9X      HAL2     0.900000E-01   1.00800           0
     25096 MEMB     223      POPC     H9Y      HAL2     0.900000E-01   1.00800           0
     25097 MEMB     223      POPC     C310     CTL2    -0.180000       12.0110           0
     25098 MEMB     223      POPC     H10X     HAL2     0.900000E-01   1.00800           0
     25099 MEMB     223      POPC     H10Y     HAL2     0.900000E-01   1.00800           0
     25100 MEMB     223      POPC     C311     CTL2    -0.180000       12.0110           0
     25101 MEMB     223      POPC     H11X     HAL2     0.900000E-01   1.00800           0
     25102 MEMB     223      POPC     H11Y     HAL2     0.900000E-01   1.00800           0
     25103 MEMB     223      POPC     C312     CTL2    -0.180000       12.0110           0
     25104 MEMB     223      POPC     H12X     HAL2     0.900000E-01   1.00800           0
     25105 MEMB     223      POPC     H12Y     HAL2     0.900000E-01   1.00800           0
     25106 MEMB     223      POPC     C313     CTL2    -0.180000       12.0110           0
     25107 MEMB     223      POPC     H13X     HAL2     0.900000E-01   1.00800           0
     25108 MEMB     223      POPC     H13Y     HAL2     0.900000E-01   1.00800           0
     25109 MEMB     223      POPC     C314     CTL2    -0.180000       12.0110           0
     25110 MEMB     223      POPC     H14X     HAL2     0.900000E-01   1.00800           0
     25111 MEMB     223      POPC     H14Y     HAL2     0.900000E-01   1.00800           0
     25112 MEMB     223      POPC     C315     CTL2    -0.180000       12.0110           0
     25113 MEMB     223      POPC     H15X     HAL2     0.900000E-01   1.00800           0
     25114 MEMB     223      POPC     H15Y     HAL2     0.900000E-01   1.00800           0
     25115 MEMB     223      POPC     C316     CTL3    -0.270000       12.0110           0
     25116 MEMB     223      POPC     H16X     HAL3     0.900000E-01   1.00800           0
     25117 MEMB     223      POPC     H16Y     HAL3     0.900000E-01   1.00800           0
     25118 MEMB     223      POPC     H16Z     HAL3     0.900000E-01   1.00800           0
     25119 MEMB     224      POPE     N        NH3L    -0.300000       14.0070           0
     25120 MEMB     224      POPE     HN1      HCL      0.330000       1.00800           0
     25121 MEMB     224      POPE     HN2      HCL      0.330000       1.00800           0
     25122 MEMB     224      POPE     HN3      HCL      0.330000       1.00800           0
     25123 MEMB     224      POPE     C12      CTL2     0.130000       12.0110           0
     25124 MEMB     224      POPE     H12A     HAL2     0.900000E-01   1.00800           0
     25125 MEMB     224      POPE     H12B     HAL2     0.900000E-01   1.00800           0
     25126 MEMB     224      POPE     C11      CTL2    -0.800000E-01   12.0110           0
     25127 MEMB     224      POPE     H11A     HAL2     0.900000E-01   1.00800           0
     25128 MEMB     224      POPE     H11B     HAL2     0.900000E-01   1.00800           0
     25129 MEMB     224      POPE     P        PL        1.50000       30.9740           0
     25130 MEMB     224      POPE     O13      O2L     -0.780000       15.9994           0
     25131 MEMB     224      POPE     O14      O2L     -0.780000       15.9994           0
     25132 MEMB     224      POPE     O11      OSLP    -0.570000       15.9994           0
     25133 MEMB     224      POPE     O12      OSLP    -0.570000       15.9994           0
     25134 MEMB     224      POPE     C1       CTL2    -0.800000E-01   12.0110           0
     25135 MEMB     224      POPE     HA       HAL2     0.900000E-01   1.00800           0
     25136 MEMB     224      POPE     HB       HAL2     0.900000E-01   1.00800           0
     25137 MEMB     224      POPE     C2       CTL1     0.170000       12.0110           0
     25138 MEMB     224      POPE     HS       HAL1     0.900000E-01   1.00800           0
     25139 MEMB     224      POPE     O21      OSL     -0.490000       15.9994           0
     25140 MEMB     224      POPE     C21      CL       0.900000       12.0110           0
     25141 MEMB     224      POPE     O22      OBL     -0.630000       15.9994           0
     25142 MEMB     224      POPE     C22      CTL2    -0.220000       12.0110           0
     25143 MEMB     224      POPE     H2R      HAL2     0.900000E-01   1.00800           0
     25144 MEMB     224      POPE     H2S      HAL2     0.900000E-01   1.00800           0
     25145 MEMB     224      POPE     C3       CTL2     0.800000E-01   12.0110           0
     25146 MEMB     224      POPE     HX       HAL2     0.900000E-01   1.00800           0
     25147 MEMB     224      POPE     HY       HAL2     0.900000E-01   1.00800           0
     25148 MEMB     224      POPE     O31      OSL     -0.490000       15.9994           0
     25149 MEMB     224      POPE     C31      CL       0.900000       12.0110           0
     25150 MEMB     224      POPE     O32      OBL     -0.630000       15.9994           0
     25151 MEMB     224      POPE     C32      CTL2    -0.220000       12.0110           0
     25152 MEMB     224      POPE     H2X      HAL2     0.900000E-01   1.00800           0
     25153 MEMB     224      POPE     H2Y      HAL2     0.900000E-01   1.00800           0
     25154 MEMB     224      POPE     C23      CTL2    -0.180000       12.0110           0
     25155 MEMB     224      POPE     H3R      HAL2     0.900000E-01   1.00800           0
     25156 MEMB     224      POPE     H3S      HAL2     0.900000E-01   1.00800           0
     25157 MEMB     224      POPE     C24      CTL2    -0.180000       12.0110           0
     25158 MEMB     224      POPE     H4R      HAL2     0.900000E-01   1.00800           0
     25159 MEMB     224      POPE     H4S      HAL2     0.900000E-01   1.00800           0
     25160 MEMB     224      POPE     C25      CTL2    -0.180000       12.0110           0
     25161 MEMB     224      POPE     H5R      HAL2     0.900000E-01   1.00800           0
     25162 MEMB     224      POPE     H5S      HAL2     0.900000E-01   1.00800           0
     25163 MEMB     224      POPE     C26      CTL2    -0.180000       12.0110           0
     25164 MEMB     224      POPE     H6R      HAL2     0.900000E-01   1.00800           0
     25165 MEMB     224      POPE     H6S      HAL2     0.900000E-01   1.00800           0
     25166 MEMB     224      POPE     C27      CTL2    -0.180000       12.0110           0
     25167 MEMB     224      POPE     H7R      HAL2     0.900000E-01   1.00800           0
     25168 MEMB     224      POPE     H7S      HAL2     0.900000E-01   1.00800           0
     25169 MEMB     224      POPE     C28      CTL2    -0.180000       12.0110           0
     25170 MEMB     224      POPE     H8R      HAL2     0.900000E-01   1.00800           0
     25171 MEMB     224      POPE     H8S      HAL2     0.900000E-01   1.00800           0
     25172 MEMB     224      POPE     C29      CEL1    -0.150000       12.0110           0
     25173 MEMB     224      POPE     H91      HEL1     0.150000       1.00800           0
     25174 MEMB     224      POPE     C210     CEL1    -0.150000       12.0110           0
     25175 MEMB     224      POPE     H101     HEL1     0.150000       1.00800           0
     25176 MEMB     224      POPE     C211     CTL2    -0.180000       12.0110           0
     25177 MEMB     224      POPE     H11R     HAL2     0.900000E-01   1.00800           0
     25178 MEMB     224      POPE     H11S     HAL2     0.900000E-01   1.00800           0
     25179 MEMB     224      POPE     C212     CTL2    -0.180000       12.0110           0
     25180 MEMB     224      POPE     H12R     HAL2     0.900000E-01   1.00800           0
     25181 MEMB     224      POPE     H12S     HAL2     0.900000E-01   1.00800           0
     25182 MEMB     224      POPE     C213     CTL2    -0.180000       12.0110           0
     25183 MEMB     224      POPE     H13R     HAL2     0.900000E-01   1.00800           0
     25184 MEMB     224      POPE     H13S     HAL2     0.900000E-01   1.00800           0
     25185 MEMB     224      POPE     C214     CTL2    -0.180000       12.0110           0
     25186 MEMB     224      POPE     H14R     HAL2     0.900000E-01   1.00800           0
     25187 MEMB     224      POPE     H14S     HAL2     0.900000E-01   1.00800           0
     25188 MEMB     224      POPE     C215     CTL2    -0.180000       12.0110           0
     25189 MEMB     224      POPE     H15R     HAL2     0.900000E-01   1.00800           0
     25190 MEMB     224      POPE     H15S     HAL2     0.900000E-01   1.00800           0
     25191 MEMB     224      POPE     C216     CTL2    -0.180000       12.0110           0
     25192 MEMB     224      POPE     H16R     HAL2     0.900000E-01   1.00800           0
     25193 MEMB     224      POPE     H16S     HAL2     0.900000E-01   1.00800           0
     25194 MEMB     224      POPE     C217     CTL2    -0.180000       12.0110           0
     25195 MEMB     224      POPE     H17R     HAL2     0.900000E-01   1.00800           0
     25196 MEMB     224      POPE     H17S     HAL2     0.900000E-01   1.00800           0
     25197 MEMB     224      POPE     C218     CTL3    -0.270000       12.0110           0
     25198 MEMB     224      POPE     H18R     HAL3     0.900000E-01   1.00800           0
     25199 MEMB     224      POPE     H18S     HAL3     0.900000E-01   1.00800           0
     25200 MEMB     224      POPE     H18T     HAL3     0.900000E-01   1.00800           0
     25201 MEMB     224      POPE     C33      CTL2    -0.180000       12.0110           0
     25202 MEMB     224      POPE     H3X      HAL2     0.900000E-01   1.00800           0
     25203 MEMB     224      POPE     H3Y      HAL2     0.900000E-01   1.00800           0
     25204 MEMB     224      POPE     C34      CTL2    -0.180000       12.0110           0
     25205 MEMB     224      POPE     H4X      HAL2     0.900000E-01   1.00800           0
     25206 MEMB     224      POPE     H4Y      HAL2     0.900000E-01   1.00800           0
     25207 MEMB     224      POPE     C35      CTL2    -0.180000       12.0110           0
     25208 MEMB     224      POPE     H5X      HAL2     0.900000E-01   1.00800           0
     25209 MEMB     224      POPE     H5Y      HAL2     0.900000E-01   1.00800           0
     25210 MEMB     224      POPE     C36      CTL2    -0.180000       12.0110           0
     25211 MEMB     224      POPE     H6X      HAL2     0.900000E-01   1.00800           0
     25212 MEMB     224      POPE     H6Y      HAL2     0.900000E-01   1.00800           0
     25213 MEMB     224      POPE     C37      CTL2    -0.180000       12.0110           0
     25214 MEMB     224      POPE     H7X      HAL2     0.900000E-01   1.00800           0
     25215 MEMB     224      POPE     H7Y      HAL2     0.900000E-01   1.00800           0
     25216 MEMB     224      POPE     C38      CTL2    -0.180000       12.0110           0
     25217 MEMB     224      POPE     H8X      HAL2     0.900000E-01   1.00800           0
     25218 MEMB     224      POPE     H8Y      HAL2     0.900000E-01   1.00800           0
     25219 MEMB     224      POPE     C39      CTL2    -0.180000       12.0110           0
     25220 MEMB     224      POPE     H9X      HAL2     0.900000E-01   1.00800           0
     25221 MEMB     224      POPE     H9Y      HAL2     0.900000E-01   1.00800           0
     25222 MEMB     224      POPE     C310     CTL2    -0.180000       12.0110           0
     25223 MEMB     224      POPE     H10X     HAL2     0.900000E-01   1.00800           0
     25224 MEMB     224      POPE     H10Y     HAL2     0.900000E-01   1.00800           0
     25225 MEMB     224      POPE     C311     CTL2    -0.180000       12.0110           0
     25226 MEMB     224      POPE     H11X     HAL2     0.900000E-01   1.00800           0
     25227 MEMB     224      POPE     H11Y     HAL2     0.900000E-01   1.00800           0
     25228 MEMB     224      POPE     C312     CTL2    -0.180000       12.0110           0
     25229 MEMB     224      POPE     H12X     HAL2     0.900000E-01   1.00800           0
     25230 MEMB     224      POPE     H12Y     HAL2     0.900000E-01   1.00800           0
     25231 MEMB     224      POPE     C313     CTL2    -0.180000       12.0110           0
     25232 MEMB     224      POPE     H13X     HAL2     0.900000E-01   1.00800           0
     25233 MEMB     224      POPE     H13Y     HAL2     0.900000E-01   1.00800           0
     25234 MEMB     224      POPE     C314     CTL2    -0.180000       12.0110           0
     25235 MEMB     224      POPE     H14X     HAL2     0.900000E-01   1.00800           0
     25236 MEMB     224      POPE     H14Y     HAL2     0.900000E-01   1.00800           0
     25237 MEMB     224      POPE     C315     CTL2    -0.180000       12.0110           0
     25238 MEMB     224      POPE     H15X     HAL2     0.900000E-01   1.00800           0
     25239 MEMB     224      POPE     H15Y     HAL2     0.900000E-01   1.00800           0
     25240 MEMB     224      POPE     C316     CTL3    -0.270000       12.0110           0
     25241 MEMB     224      POPE     H16X     HAL3     0.900000E-01   1.00800           0
     25242 MEMB     224      POPE     H16Y     HAL3     0.900000E-01   1.00800           0
     25243 MEMB     224      POPE     H16Z     HAL3     0.900000E-01   1.00800           0
     25244 MEMB     225      POPC     N        NTL     -0.600000       14.0070           0
     25245 MEMB     225      POPC     C12      CTL2    -0.100000       12.0110           0
     25246 MEMB     225      POPC     H12A     HL       0.250000       1.00800           0
     25247 MEMB     225      POPC     H12B     HL       0.250000       1.00800           0
     25248 MEMB     225      POPC     C13      CTL5    -0.350000       12.0110           0
     25249 MEMB     225      POPC     H13A     HL       0.250000       1.00800           0
     25250 MEMB     225      POPC     H13B     HL       0.250000       1.00800           0
     25251 MEMB     225      POPC     H13C     HL       0.250000       1.00800           0
     25252 MEMB     225      POPC     C14      CTL5    -0.350000       12.0110           0
     25253 MEMB     225      POPC     H14A     HL       0.250000       1.00800           0
     25254 MEMB     225      POPC     H14B     HL       0.250000       1.00800           0
     25255 MEMB     225      POPC     H14C     HL       0.250000       1.00800           0
     25256 MEMB     225      POPC     C15      CTL5    -0.350000       12.0110           0
     25257 MEMB     225      POPC     H15A     HL       0.250000       1.00800           0
     25258 MEMB     225      POPC     H15B     HL       0.250000       1.00800           0
     25259 MEMB     225      POPC     H15C     HL       0.250000       1.00800           0
     25260 MEMB     225      POPC     C11      CTL2    -0.800000E-01   12.0110           0
     25261 MEMB     225      POPC     H11A     HAL2     0.900000E-01   1.00800           0
     25262 MEMB     225      POPC     H11B     HAL2     0.900000E-01   1.00800           0
     25263 MEMB     225      POPC     P        PL        1.50000       30.9740           0
     25264 MEMB     225      POPC     O13      O2L     -0.780000       15.9994           0
     25265 MEMB     225      POPC     O14      O2L     -0.780000       15.9994           0
     25266 MEMB     225      POPC     O12      OSLP    -0.570000       15.9994           0
     25267 MEMB     225      POPC     O11      OSLP    -0.570000       15.9994           0
     25268 MEMB     225      POPC     C1       CTL2    -0.800000E-01   12.0110           0
     25269 MEMB     225      POPC     HA       HAL2     0.900000E-01   1.00800           0
     25270 MEMB     225      POPC     HB       HAL2     0.900000E-01   1.00800           0
     25271 MEMB     225      POPC     C2       CTL1     0.170000       12.0110           0
     25272 MEMB     225      POPC     HS       HAL1     0.900000E-01   1.00800           0
     25273 MEMB     225      POPC     O21      OSL     -0.490000       15.9994           0
     25274 MEMB     225      POPC     C21      CL       0.900000       12.0110           0
     25275 MEMB     225      POPC     O22      OBL     -0.630000       15.9994           0
     25276 MEMB     225      POPC     C22      CTL2    -0.220000       12.0110           0
     25277 MEMB     225      POPC     H2R      HAL2     0.900000E-01   1.00800           0
     25278 MEMB     225      POPC     H2S      HAL2     0.900000E-01   1.00800           0
     25279 MEMB     225      POPC     C3       CTL2     0.800000E-01   12.0110           0
     25280 MEMB     225      POPC     HX       HAL2     0.900000E-01   1.00800           0
     25281 MEMB     225      POPC     HY       HAL2     0.900000E-01   1.00800           0
     25282 MEMB     225      POPC     O31      OSL     -0.490000       15.9994           0
     25283 MEMB     225      POPC     C31      CL       0.900000       12.0110           0
     25284 MEMB     225      POPC     O32      OBL     -0.630000       15.9994           0
     25285 MEMB     225      POPC     C32      CTL2    -0.220000       12.0110           0
     25286 MEMB     225      POPC     H2X      HAL2     0.900000E-01   1.00800           0
     25287 MEMB     225      POPC     H2Y      HAL2     0.900000E-01   1.00800           0
     25288 MEMB     225      POPC     C23      CTL2    -0.180000       12.0110           0
     25289 MEMB     225      POPC     H3R      HAL2     0.900000E-01   1.00800           0
     25290 MEMB     225      POPC     H3S      HAL2     0.900000E-01   1.00800           0
     25291 MEMB     225      POPC     C24      CTL2    -0.180000       12.0110           0
     25292 MEMB     225      POPC     H4R      HAL2     0.900000E-01   1.00800           0
     25293 MEMB     225      POPC     H4S      HAL2     0.900000E-01   1.00800           0
     25294 MEMB     225      POPC     C25      CTL2    -0.180000       12.0110           0
     25295 MEMB     225      POPC     H5R      HAL2     0.900000E-01   1.00800           0
     25296 MEMB     225      POPC     H5S      HAL2     0.900000E-01   1.00800           0
     25297 MEMB     225      POPC     C26      CTL2    -0.180000       12.0110           0
     25298 MEMB     225      POPC     H6R      HAL2     0.900000E-01   1.00800           0
     25299 MEMB     225      POPC     H6S      HAL2     0.900000E-01   1.00800           0
     25300 MEMB     225      POPC     C27      CTL2    -0.180000       12.0110           0
     25301 MEMB     225      POPC     H7R      HAL2     0.900000E-01   1.00800           0
     25302 MEMB     225      POPC     H7S      HAL2     0.900000E-01   1.00800           0
     25303 MEMB     225      POPC     C28      CTL2    -0.180000       12.0110           0
     25304 MEMB     225      POPC     H8R      HAL2     0.900000E-01   1.00800           0
     25305 MEMB     225      POPC     H8S      HAL2     0.900000E-01   1.00800           0
     25306 MEMB     225      POPC     C29      CEL1    -0.150000       12.0110           0
     25307 MEMB     225      POPC     H91      HEL1     0.150000       1.00800           0
     25308 MEMB     225      POPC     C210     CEL1    -0.150000       12.0110           0
     25309 MEMB     225      POPC     H101     HEL1     0.150000       1.00800           0
     25310 MEMB     225      POPC     C211     CTL2    -0.180000       12.0110           0
     25311 MEMB     225      POPC     H11R     HAL2     0.900000E-01   1.00800           0
     25312 MEMB     225      POPC     H11S     HAL2     0.900000E-01   1.00800           0
     25313 MEMB     225      POPC     C212     CTL2    -0.180000       12.0110           0
     25314 MEMB     225      POPC     H12R     HAL2     0.900000E-01   1.00800           0
     25315 MEMB     225      POPC     H12S     HAL2     0.900000E-01   1.00800           0
     25316 MEMB     225      POPC     C213     CTL2    -0.180000       12.0110           0
     25317 MEMB     225      POPC     H13R     HAL2     0.900000E-01   1.00800           0
     25318 MEMB     225      POPC     H13S     HAL2     0.900000E-01   1.00800           0
     25319 MEMB     225      POPC     C214     CTL2    -0.180000       12.0110           0
     25320 MEMB     225      POPC     H14R     HAL2     0.900000E-01   1.00800           0
     25321 MEMB     225      POPC     H14S     HAL2     0.900000E-01   1.00800           0
     25322 MEMB     225      POPC     C215     CTL2    -0.180000       12.0110           0
     25323 MEMB     225      POPC     H15R     HAL2     0.900000E-01   1.00800           0
     25324 MEMB     225      POPC     H15S     HAL2     0.900000E-01   1.00800           0
     25325 MEMB     225      POPC     C216     CTL2    -0.180000       12.0110           0
     25326 MEMB     225      POPC     H16R     HAL2     0.900000E-01   1.00800           0
     25327 MEMB     225      POPC     H16S     HAL2     0.900000E-01   1.00800           0
     25328 MEMB     225      POPC     C217     CTL2    -0.180000       12.0110           0
     25329 MEMB     225      POPC     H17R     HAL2     0.900000E-01   1.00800           0
     25330 MEMB     225      POPC     H17S     HAL2     0.900000E-01   1.00800           0
     25331 MEMB     225      POPC     C218     CTL3    -0.270000       12.0110           0
     25332 MEMB     225      POPC     H18R     HAL3     0.900000E-01   1.00800           0
     25333 MEMB     225      POPC     H18S     HAL3     0.900000E-01   1.00800           0
     25334 MEMB     225      POPC     H18T     HAL3     0.900000E-01   1.00800           0
     25335 MEMB     225      POPC     C33      CTL2    -0.180000       12.0110           0
     25336 MEMB     225      POPC     H3X      HAL2     0.900000E-01   1.00800           0
     25337 MEMB     225      POPC     H3Y      HAL2     0.900000E-01   1.00800           0
     25338 MEMB     225      POPC     C34      CTL2    -0.180000       12.0110           0
     25339 MEMB     225      POPC     H4X      HAL2     0.900000E-01   1.00800           0
     25340 MEMB     225      POPC     H4Y      HAL2     0.900000E-01   1.00800           0
     25341 MEMB     225      POPC     C35      CTL2    -0.180000       12.0110           0
     25342 MEMB     225      POPC     H5X      HAL2     0.900000E-01   1.00800           0
     25343 MEMB     225      POPC     H5Y      HAL2     0.900000E-01   1.00800           0
     25344 MEMB     225      POPC     C36      CTL2    -0.180000       12.0110           0
     25345 MEMB     225      POPC     H6X      HAL2     0.900000E-01   1.00800           0
     25346 MEMB     225      POPC     H6Y      HAL2     0.900000E-01   1.00800           0
     25347 MEMB     225      POPC     C37      CTL2    -0.180000       12.0110           0
     25348 MEMB     225      POPC     H7X      HAL2     0.900000E-01   1.00800           0
     25349 MEMB     225      POPC     H7Y      HAL2     0.900000E-01   1.00800           0
     25350 MEMB     225      POPC     C38      CTL2    -0.180000       12.0110           0
     25351 MEMB     225      POPC     H8X      HAL2     0.900000E-01   1.00800           0
     25352 MEMB     225      POPC     H8Y      HAL2     0.900000E-01   1.00800           0
     25353 MEMB     225      POPC     C39      CTL2    -0.180000       12.0110           0
     25354 MEMB     225      POPC     H9X      HAL2     0.900000E-01   1.00800           0
     25355 MEMB     225      POPC     H9Y      HAL2     0.900000E-01   1.00800           0
     25356 MEMB     225      POPC     C310     CTL2    -0.180000       12.0110           0
     25357 MEMB     225      POPC     H10X     HAL2     0.900000E-01   1.00800           0
     25358 MEMB     225      POPC     H10Y     HAL2     0.900000E-01   1.00800           0
     25359 MEMB     225      POPC     C311     CTL2    -0.180000       12.0110           0
     25360 MEMB     225      POPC     H11X     HAL2     0.900000E-01   1.00800           0
     25361 MEMB     225      POPC     H11Y     HAL2     0.900000E-01   1.00800           0
     25362 MEMB     225      POPC     C312     CTL2    -0.180000       12.0110           0
     25363 MEMB     225      POPC     H12X     HAL2     0.900000E-01   1.00800           0
     25364 MEMB     225      POPC     H12Y     HAL2     0.900000E-01   1.00800           0
     25365 MEMB     225      POPC     C313     CTL2    -0.180000       12.0110           0
     25366 MEMB     225      POPC     H13X     HAL2     0.900000E-01   1.00800           0
     25367 MEMB     225      POPC     H13Y     HAL2     0.900000E-01   1.00800           0
     25368 MEMB     225      POPC     C314     CTL2    -0.180000       12.0110           0
     25369 MEMB     225      POPC     H14X     HAL2     0.900000E-01   1.00800           0
     25370 MEMB     225      POPC     H14Y     HAL2     0.900000E-01   1.00800           0
     25371 MEMB     225      POPC     C315     CTL2    -0.180000       12.0110           0
     25372 MEMB     225      POPC     H15X     HAL2     0.900000E-01   1.00800           0
     25373 MEMB     225      POPC     H15Y     HAL2     0.900000E-01   1.00800           0
     25374 MEMB     225      POPC     C316     CTL3    -0.270000       12.0110           0
     25375 MEMB     225      POPC     H16X     HAL3     0.900000E-01   1.00800           0
     25376 MEMB     225      POPC     H16Y     HAL3     0.900000E-01   1.00800           0
     25377 MEMB     225      POPC     H16Z     HAL3     0.900000E-01   1.00800           0
     25378 MEMB     226      POPE     N        NH3L    -0.300000       14.0070           0
     25379 MEMB     226      POPE     HN1      HCL      0.330000       1.00800           0
     25380 MEMB     226      POPE     HN2      HCL      0.330000       1.00800           0
     25381 MEMB     226      POPE     HN3      HCL      0.330000       1.00800           0
     25382 MEMB     226      POPE     C12      CTL2     0.130000       12.0110           0
     25383 MEMB     226      POPE     H12A     HAL2     0.900000E-01   1.00800           0
     25384 MEMB     226      POPE     H12B     HAL2     0.900000E-01   1.00800           0
     25385 MEMB     226      POPE     C11      CTL2    -0.800000E-01   12.0110           0
     25386 MEMB     226      POPE     H11A     HAL2     0.900000E-01   1.00800           0
     25387 MEMB     226      POPE     H11B     HAL2     0.900000E-01   1.00800           0
     25388 MEMB     226      POPE     P        PL        1.50000       30.9740           0
     25389 MEMB     226      POPE     O13      O2L     -0.780000       15.9994           0
     25390 MEMB     226      POPE     O14      O2L     -0.780000       15.9994           0
     25391 MEMB     226      POPE     O11      OSLP    -0.570000       15.9994           0
     25392 MEMB     226      POPE     O12      OSLP    -0.570000       15.9994           0
     25393 MEMB     226      POPE     C1       CTL2    -0.800000E-01   12.0110           0
     25394 MEMB     226      POPE     HA       HAL2     0.900000E-01   1.00800           0
     25395 MEMB     226      POPE     HB       HAL2     0.900000E-01   1.00800           0
     25396 MEMB     226      POPE     C2       CTL1     0.170000       12.0110           0
     25397 MEMB     226      POPE     HS       HAL1     0.900000E-01   1.00800           0
     25398 MEMB     226      POPE     O21      OSL     -0.490000       15.9994           0
     25399 MEMB     226      POPE     C21      CL       0.900000       12.0110           0
     25400 MEMB     226      POPE     O22      OBL     -0.630000       15.9994           0
     25401 MEMB     226      POPE     C22      CTL2    -0.220000       12.0110           0
     25402 MEMB     226      POPE     H2R      HAL2     0.900000E-01   1.00800           0
     25403 MEMB     226      POPE     H2S      HAL2     0.900000E-01   1.00800           0
     25404 MEMB     226      POPE     C3       CTL2     0.800000E-01   12.0110           0
     25405 MEMB     226      POPE     HX       HAL2     0.900000E-01   1.00800           0
     25406 MEMB     226      POPE     HY       HAL2     0.900000E-01   1.00800           0
     25407 MEMB     226      POPE     O31      OSL     -0.490000       15.9994           0
     25408 MEMB     226      POPE     C31      CL       0.900000       12.0110           0
     25409 MEMB     226      POPE     O32      OBL     -0.630000       15.9994           0
     25410 MEMB     226      POPE     C32      CTL2    -0.220000       12.0110           0
     25411 MEMB     226      POPE     H2X      HAL2     0.900000E-01   1.00800           0
     25412 MEMB     226      POPE     H2Y      HAL2     0.900000E-01   1.00800           0
     25413 MEMB     226      POPE     C23      CTL2    -0.180000       12.0110           0
     25414 MEMB     226      POPE     H3R      HAL2     0.900000E-01   1.00800           0
     25415 MEMB     226      POPE     H3S      HAL2     0.900000E-01   1.00800           0
     25416 MEMB     226      POPE     C24      CTL2    -0.180000       12.0110           0
     25417 MEMB     226      POPE     H4R      HAL2     0.900000E-01   1.00800           0
     25418 MEMB     226      POPE     H4S      HAL2     0.900000E-01   1.00800           0
     25419 MEMB     226      POPE     C25      CTL2    -0.180000       12.0110           0
     25420 MEMB     226      POPE     H5R      HAL2     0.900000E-01   1.00800           0
     25421 MEMB     226      POPE     H5S      HAL2     0.900000E-01   1.00800           0
     25422 MEMB     226      POPE     C26      CTL2    -0.180000       12.0110           0
     25423 MEMB     226      POPE     H6R      HAL2     0.900000E-01   1.00800           0
     25424 MEMB     226      POPE     H6S      HAL2     0.900000E-01   1.00800           0
     25425 MEMB     226      POPE     C27      CTL2    -0.180000       12.0110           0
     25426 MEMB     226      POPE     H7R      HAL2     0.900000E-01   1.00800           0
     25427 MEMB     226      POPE     H7S      HAL2     0.900000E-01   1.00800           0
     25428 MEMB     226      POPE     C28      CTL2    -0.180000       12.0110           0
     25429 MEMB     226      POPE     H8R      HAL2     0.900000E-01   1.00800           0
     25430 MEMB     226      POPE     H8S      HAL2     0.900000E-01   1.00800           0
     25431 MEMB     226      POPE     C29      CEL1    -0.150000       12.0110           0
     25432 MEMB     226      POPE     H91      HEL1     0.150000       1.00800           0
     25433 MEMB     226      POPE     C210     CEL1    -0.150000       12.0110           0
     25434 MEMB     226      POPE     H101     HEL1     0.150000       1.00800           0
     25435 MEMB     226      POPE     C211     CTL2    -0.180000       12.0110           0
     25436 MEMB     226      POPE     H11R     HAL2     0.900000E-01   1.00800           0
     25437 MEMB     226      POPE     H11S     HAL2     0.900000E-01   1.00800           0
     25438 MEMB     226      POPE     C212     CTL2    -0.180000       12.0110           0
     25439 MEMB     226      POPE     H12R     HAL2     0.900000E-01   1.00800           0
     25440 MEMB     226      POPE     H12S     HAL2     0.900000E-01   1.00800           0
     25441 MEMB     226      POPE     C213     CTL2    -0.180000       12.0110           0
     25442 MEMB     226      POPE     H13R     HAL2     0.900000E-01   1.00800           0
     25443 MEMB     226      POPE     H13S     HAL2     0.900000E-01   1.00800           0
     25444 MEMB     226      POPE     C214     CTL2    -0.180000       12.0110           0
     25445 MEMB     226      POPE     H14R     HAL2     0.900000E-01   1.00800           0
     25446 MEMB     226      POPE     H14S     HAL2     0.900000E-01   1.00800           0
     25447 MEMB     226      POPE     C215     CTL2    -0.180000       12.0110           0
     25448 MEMB     226      POPE     H15R     HAL2     0.900000E-01   1.00800           0
     25449 MEMB     226      POPE     H15S     HAL2     0.900000E-01   1.00800           0
     25450 MEMB     226      POPE     C216     CTL2    -0.180000       12.0110           0
     25451 MEMB     226      POPE     H16R     HAL2     0.900000E-01   1.00800           0
     25452 MEMB     226      POPE     H16S     HAL2     0.900000E-01   1.00800           0
     25453 MEMB     226      POPE     C217     CTL2    -0.180000       12.0110           0
     25454 MEMB     226      POPE     H17R     HAL2     0.900000E-01   1.00800           0
     25455 MEMB     226      POPE     H17S     HAL2     0.900000E-01   1.00800           0
     25456 MEMB     226      POPE     C218     CTL3    -0.270000       12.0110           0
     25457 MEMB     226      POPE     H18R     HAL3     0.900000E-01   1.00800           0
     25458 MEMB     226      POPE     H18S     HAL3     0.900000E-01   1.00800           0
     25459 MEMB     226      POPE     H18T     HAL3     0.900000E-01   1.00800           0
     25460 MEMB     226      POPE     C33      CTL2    -0.180000       12.0110           0
     25461 MEMB     226      POPE     H3X      HAL2     0.900000E-01   1.00800           0
     25462 MEMB     226      POPE     H3Y      HAL2     0.900000E-01   1.00800           0
     25463 MEMB     226      POPE     C34      CTL2    -0.180000       12.0110           0
     25464 MEMB     226      POPE     H4X      HAL2     0.900000E-01   1.00800           0
     25465 MEMB     226      POPE     H4Y      HAL2     0.900000E-01   1.00800           0
     25466 MEMB     226      POPE     C35      CTL2    -0.180000       12.0110           0
     25467 MEMB     226      POPE     H5X      HAL2     0.900000E-01   1.00800           0
     25468 MEMB     226      POPE     H5Y      HAL2     0.900000E-01   1.00800           0
     25469 MEMB     226      POPE     C36      CTL2    -0.180000       12.0110           0
     25470 MEMB     226      POPE     H6X      HAL2     0.900000E-01   1.00800           0
     25471 MEMB     226      POPE     H6Y      HAL2     0.900000E-01   1.00800           0
     25472 MEMB     226      POPE     C37      CTL2    -0.180000       12.0110           0
     25473 MEMB     226      POPE     H7X      HAL2     0.900000E-01   1.00800           0
     25474 MEMB     226      POPE     H7Y      HAL2     0.900000E-01   1.00800           0
     25475 MEMB     226      POPE     C38      CTL2    -0.180000       12.0110           0
     25476 MEMB     226      POPE     H8X      HAL2     0.900000E-01   1.00800           0
     25477 MEMB     226      POPE     H8Y      HAL2     0.900000E-01   1.00800           0
     25478 MEMB     226      POPE     C39      CTL2    -0.180000       12.0110           0
     25479 MEMB     226      POPE     H9X      HAL2     0.900000E-01   1.00800           0
     25480 MEMB     226      POPE     H9Y      HAL2     0.900000E-01   1.00800           0
     25481 MEMB     226      POPE     C310     CTL2    -0.180000       12.0110           0
     25482 MEMB     226      POPE     H10X     HAL2     0.900000E-01   1.00800           0
     25483 MEMB     226      POPE     H10Y     HAL2     0.900000E-01   1.00800           0
     25484 MEMB     226      POPE     C311     CTL2    -0.180000       12.0110           0
     25485 MEMB     226      POPE     H11X     HAL2     0.900000E-01   1.00800           0
     25486 MEMB     226      POPE     H11Y     HAL2     0.900000E-01   1.00800           0
     25487 MEMB     226      POPE     C312     CTL2    -0.180000       12.0110           0
     25488 MEMB     226      POPE     H12X     HAL2     0.900000E-01   1.00800           0
     25489 MEMB     226      POPE     H12Y     HAL2     0.900000E-01   1.00800           0
     25490 MEMB     226      POPE     C313     CTL2    -0.180000       12.0110           0
     25491 MEMB     226      POPE     H13X     HAL2     0.900000E-01   1.00800           0
     25492 MEMB     226      POPE     H13Y     HAL2     0.900000E-01   1.00800           0
     25493 MEMB     226      POPE     C314     CTL2    -0.180000       12.0110           0
     25494 MEMB     226      POPE     H14X     HAL2     0.900000E-01   1.00800           0
     25495 MEMB     226      POPE     H14Y     HAL2     0.900000E-01   1.00800           0
     25496 MEMB     226      POPE     C315     CTL2    -0.180000       12.0110           0
     25497 MEMB     226      POPE     H15X     HAL2     0.900000E-01   1.00800           0
     25498 MEMB     226      POPE     H15Y     HAL2     0.900000E-01   1.00800           0
     25499 MEMB     226      POPE     C316     CTL3    -0.270000       12.0110           0
     25500 MEMB     226      POPE     H16X     HAL3     0.900000E-01   1.00800           0
     25501 MEMB     226      POPE     H16Y     HAL3     0.900000E-01   1.00800           0
     25502 MEMB     226      POPE     H16Z     HAL3     0.900000E-01   1.00800           0
     25503 MEMB     227      POPC     N        NTL     -0.600000       14.0070           0
     25504 MEMB     227      POPC     C12      CTL2    -0.100000       12.0110           0
     25505 MEMB     227      POPC     H12A     HL       0.250000       1.00800           0
     25506 MEMB     227      POPC     H12B     HL       0.250000       1.00800           0
     25507 MEMB     227      POPC     C13      CTL5    -0.350000       12.0110           0
     25508 MEMB     227      POPC     H13A     HL       0.250000       1.00800           0
     25509 MEMB     227      POPC     H13B     HL       0.250000       1.00800           0
     25510 MEMB     227      POPC     H13C     HL       0.250000       1.00800           0
     25511 MEMB     227      POPC     C14      CTL5    -0.350000       12.0110           0
     25512 MEMB     227      POPC     H14A     HL       0.250000       1.00800           0
     25513 MEMB     227      POPC     H14B     HL       0.250000       1.00800           0
     25514 MEMB     227      POPC     H14C     HL       0.250000       1.00800           0
     25515 MEMB     227      POPC     C15      CTL5    -0.350000       12.0110           0
     25516 MEMB     227      POPC     H15A     HL       0.250000       1.00800           0
     25517 MEMB     227      POPC     H15B     HL       0.250000       1.00800           0
     25518 MEMB     227      POPC     H15C     HL       0.250000       1.00800           0
     25519 MEMB     227      POPC     C11      CTL2    -0.800000E-01   12.0110           0
     25520 MEMB     227      POPC     H11A     HAL2     0.900000E-01   1.00800           0
     25521 MEMB     227      POPC     H11B     HAL2     0.900000E-01   1.00800           0
     25522 MEMB     227      POPC     P        PL        1.50000       30.9740           0
     25523 MEMB     227      POPC     O13      O2L     -0.780000       15.9994           0
     25524 MEMB     227      POPC     O14      O2L     -0.780000       15.9994           0
     25525 MEMB     227      POPC     O12      OSLP    -0.570000       15.9994           0
     25526 MEMB     227      POPC     O11      OSLP    -0.570000       15.9994           0
     25527 MEMB     227      POPC     C1       CTL2    -0.800000E-01   12.0110           0
     25528 MEMB     227      POPC     HA       HAL2     0.900000E-01   1.00800           0
     25529 MEMB     227      POPC     HB       HAL2     0.900000E-01   1.00800           0
     25530 MEMB     227      POPC     C2       CTL1     0.170000       12.0110           0
     25531 MEMB     227      POPC     HS       HAL1     0.900000E-01   1.00800           0
     25532 MEMB     227      POPC     O21      OSL     -0.490000       15.9994           0
     25533 MEMB     227      POPC     C21      CL       0.900000       12.0110           0
     25534 MEMB     227      POPC     O22      OBL     -0.630000       15.9994           0
     25535 MEMB     227      POPC     C22      CTL2    -0.220000       12.0110           0
     25536 MEMB     227      POPC     H2R      HAL2     0.900000E-01   1.00800           0
     25537 MEMB     227      POPC     H2S      HAL2     0.900000E-01   1.00800           0
     25538 MEMB     227      POPC     C3       CTL2     0.800000E-01   12.0110           0
     25539 MEMB     227      POPC     HX       HAL2     0.900000E-01   1.00800           0
     25540 MEMB     227      POPC     HY       HAL2     0.900000E-01   1.00800           0
     25541 MEMB     227      POPC     O31      OSL     -0.490000       15.9994           0
     25542 MEMB     227      POPC     C31      CL       0.900000       12.0110           0
     25543 MEMB     227      POPC     O32      OBL     -0.630000       15.9994           0
     25544 MEMB     227      POPC     C32      CTL2    -0.220000       12.0110           0
     25545 MEMB     227      POPC     H2X      HAL2     0.900000E-01   1.00800           0
     25546 MEMB     227      POPC     H2Y      HAL2     0.900000E-01   1.00800           0
     25547 MEMB     227      POPC     C23      CTL2    -0.180000       12.0110           0
     25548 MEMB     227      POPC     H3R      HAL2     0.900000E-01   1.00800           0
     25549 MEMB     227      POPC     H3S      HAL2     0.900000E-01   1.00800           0
     25550 MEMB     227      POPC     C24      CTL2    -0.180000       12.0110           0
     25551 MEMB     227      POPC     H4R      HAL2     0.900000E-01   1.00800           0
     25552 MEMB     227      POPC     H4S      HAL2     0.900000E-01   1.00800           0
     25553 MEMB     227      POPC     C25      CTL2    -0.180000       12.0110           0
     25554 MEMB     227      POPC     H5R      HAL2     0.900000E-01   1.00800           0
     25555 MEMB     227      POPC     H5S      HAL2     0.900000E-01   1.00800           0
     25556 MEMB     227      POPC     C26      CTL2    -0.180000       12.0110           0
     25557 MEMB     227      POPC     H6R      HAL2     0.900000E-01   1.00800           0
     25558 MEMB     227      POPC     H6S      HAL2     0.900000E-01   1.00800           0
     25559 MEMB     227      POPC     C27      CTL2    -0.180000       12.0110           0
     25560 MEMB     227      POPC     H7R      HAL2     0.900000E-01   1.00800           0
     25561 MEMB     227      POPC     H7S      HAL2     0.900000E-01   1.00800           0
     25562 MEMB     227      POPC     C28      CTL2    -0.180000       12.0110           0
     25563 MEMB     227      POPC     H8R      HAL2     0.900000E-01   1.00800           0
     25564 MEMB     227      POPC     H8S      HAL2     0.900000E-01   1.00800           0
     25565 MEMB     227      POPC     C29      CEL1    -0.150000       12.0110           0
     25566 MEMB     227      POPC     H91      HEL1     0.150000       1.00800           0
     25567 MEMB     227      POPC     C210     CEL1    -0.150000       12.0110           0
     25568 MEMB     227      POPC     H101     HEL1     0.150000       1.00800           0
     25569 MEMB     227      POPC     C211     CTL2    -0.180000       12.0110           0
     25570 MEMB     227      POPC     H11R     HAL2     0.900000E-01   1.00800           0
     25571 MEMB     227      POPC     H11S     HAL2     0.900000E-01   1.00800           0
     25572 MEMB     227      POPC     C212     CTL2    -0.180000       12.0110           0
     25573 MEMB     227      POPC     H12R     HAL2     0.900000E-01   1.00800           0
     25574 MEMB     227      POPC     H12S     HAL2     0.900000E-01   1.00800           0
     25575 MEMB     227      POPC     C213     CTL2    -0.180000       12.0110           0
     25576 MEMB     227      POPC     H13R     HAL2     0.900000E-01   1.00800           0
     25577 MEMB     227      POPC     H13S     HAL2     0.900000E-01   1.00800           0
     25578 MEMB     227      POPC     C214     CTL2    -0.180000       12.0110           0
     25579 MEMB     227      POPC     H14R     HAL2     0.900000E-01   1.00800           0
     25580 MEMB     227      POPC     H14S     HAL2     0.900000E-01   1.00800           0
     25581 MEMB     227      POPC     C215     CTL2    -0.180000       12.0110           0
     25582 MEMB     227      POPC     H15R     HAL2     0.900000E-01   1.00800           0
     25583 MEMB     227      POPC     H15S     HAL2     0.900000E-01   1.00800           0
     25584 MEMB     227      POPC     C216     CTL2    -0.180000       12.0110           0
     25585 MEMB     227      POPC     H16R     HAL2     0.900000E-01   1.00800           0
     25586 MEMB     227      POPC     H16S     HAL2     0.900000E-01   1.00800           0
     25587 MEMB     227      POPC     C217     CTL2    -0.180000       12.0110           0
     25588 MEMB     227      POPC     H17R     HAL2     0.900000E-01   1.00800           0
     25589 MEMB     227      POPC     H17S     HAL2     0.900000E-01   1.00800           0
     25590 MEMB     227      POPC     C218     CTL3    -0.270000       12.0110           0
     25591 MEMB     227      POPC     H18R     HAL3     0.900000E-01   1.00800           0
     25592 MEMB     227      POPC     H18S     HAL3     0.900000E-01   1.00800           0
     25593 MEMB     227      POPC     H18T     HAL3     0.900000E-01   1.00800           0
     25594 MEMB     227      POPC     C33      CTL2    -0.180000       12.0110           0
     25595 MEMB     227      POPC     H3X      HAL2     0.900000E-01   1.00800           0
     25596 MEMB     227      POPC     H3Y      HAL2     0.900000E-01   1.00800           0
     25597 MEMB     227      POPC     C34      CTL2    -0.180000       12.0110           0
     25598 MEMB     227      POPC     H4X      HAL2     0.900000E-01   1.00800           0
     25599 MEMB     227      POPC     H4Y      HAL2     0.900000E-01   1.00800           0
     25600 MEMB     227      POPC     C35      CTL2    -0.180000       12.0110           0
     25601 MEMB     227      POPC     H5X      HAL2     0.900000E-01   1.00800           0
     25602 MEMB     227      POPC     H5Y      HAL2     0.900000E-01   1.00800           0
     25603 MEMB     227      POPC     C36      CTL2    -0.180000       12.0110           0
     25604 MEMB     227      POPC     H6X      HAL2     0.900000E-01   1.00800           0
     25605 MEMB     227      POPC     H6Y      HAL2     0.900000E-01   1.00800           0
     25606 MEMB     227      POPC     C37      CTL2    -0.180000       12.0110           0
     25607 MEMB     227      POPC     H7X      HAL2     0.900000E-01   1.00800           0
     25608 MEMB     227      POPC     H7Y      HAL2     0.900000E-01   1.00800           0
     25609 MEMB     227      POPC     C38      CTL2    -0.180000       12.0110           0
     25610 MEMB     227      POPC     H8X      HAL2     0.900000E-01   1.00800           0
     25611 MEMB     227      POPC     H8Y      HAL2     0.900000E-01   1.00800           0
     25612 MEMB     227      POPC     C39      CTL2    -0.180000       12.0110           0
     25613 MEMB     227      POPC     H9X      HAL2     0.900000E-01   1.00800           0
     25614 MEMB     227      POPC     H9Y      HAL2     0.900000E-01   1.00800           0
     25615 MEMB     227      POPC     C310     CTL2    -0.180000       12.0110           0
     25616 MEMB     227      POPC     H10X     HAL2     0.900000E-01   1.00800           0
     25617 MEMB     227      POPC     H10Y     HAL2     0.900000E-01   1.00800           0
     25618 MEMB     227      POPC     C311     CTL2    -0.180000       12.0110           0
     25619 MEMB     227      POPC     H11X     HAL2     0.900000E-01   1.00800           0
     25620 MEMB     227      POPC     H11Y     HAL2     0.900000E-01   1.00800           0
     25621 MEMB     227      POPC     C312     CTL2    -0.180000       12.0110           0
     25622 MEMB     227      POPC     H12X     HAL2     0.900000E-01   1.00800           0
     25623 MEMB     227      POPC     H12Y     HAL2     0.900000E-01   1.00800           0
     25624 MEMB     227      POPC     C313     CTL2    -0.180000       12.0110           0
     25625 MEMB     227      POPC     H13X     HAL2     0.900000E-01   1.00800           0
     25626 MEMB     227      POPC     H13Y     HAL2     0.900000E-01   1.00800           0
     25627 MEMB     227      POPC     C314     CTL2    -0.180000       12.0110           0
     25628 MEMB     227      POPC     H14X     HAL2     0.900000E-01   1.00800           0
     25629 MEMB     227      POPC     H14Y     HAL2     0.900000E-01   1.00800           0
     25630 MEMB     227      POPC     C315     CTL2    -0.180000       12.0110           0
     25631 MEMB     227      POPC     H15X     HAL2     0.900000E-01   1.00800           0
     25632 MEMB     227      POPC     H15Y     HAL2     0.900000E-01   1.00800           0
     25633 MEMB     227      POPC     C316     CTL3    -0.270000       12.0110           0
     25634 MEMB     227      POPC     H16X     HAL3     0.900000E-01   1.00800           0
     25635 MEMB     227      POPC     H16Y     HAL3     0.900000E-01   1.00800           0
     25636 MEMB     227      POPC     H16Z     HAL3     0.900000E-01   1.00800           0
     25637 MEMB     228      POPC     N        NTL     -0.600000       14.0070           0
     25638 MEMB     228      POPC     C12      CTL2    -0.100000       12.0110           0
     25639 MEMB     228      POPC     H12A     HL       0.250000       1.00800           0
     25640 MEMB     228      POPC     H12B     HL       0.250000       1.00800           0
     25641 MEMB     228      POPC     C13      CTL5    -0.350000       12.0110           0
     25642 MEMB     228      POPC     H13A     HL       0.250000       1.00800           0
     25643 MEMB     228      POPC     H13B     HL       0.250000       1.00800           0
     25644 MEMB     228      POPC     H13C     HL       0.250000       1.00800           0
     25645 MEMB     228      POPC     C14      CTL5    -0.350000       12.0110           0
     25646 MEMB     228      POPC     H14A     HL       0.250000       1.00800           0
     25647 MEMB     228      POPC     H14B     HL       0.250000       1.00800           0
     25648 MEMB     228      POPC     H14C     HL       0.250000       1.00800           0
     25649 MEMB     228      POPC     C15      CTL5    -0.350000       12.0110           0
     25650 MEMB     228      POPC     H15A     HL       0.250000       1.00800           0
     25651 MEMB     228      POPC     H15B     HL       0.250000       1.00800           0
     25652 MEMB     228      POPC     H15C     HL       0.250000       1.00800           0
     25653 MEMB     228      POPC     C11      CTL2    -0.800000E-01   12.0110           0
     25654 MEMB     228      POPC     H11A     HAL2     0.900000E-01   1.00800           0
     25655 MEMB     228      POPC     H11B     HAL2     0.900000E-01   1.00800           0
     25656 MEMB     228      POPC     P        PL        1.50000       30.9740           0
     25657 MEMB     228      POPC     O13      O2L     -0.780000       15.9994           0
     25658 MEMB     228      POPC     O14      O2L     -0.780000       15.9994           0
     25659 MEMB     228      POPC     O12      OSLP    -0.570000       15.9994           0
     25660 MEMB     228      POPC     O11      OSLP    -0.570000       15.9994           0
     25661 MEMB     228      POPC     C1       CTL2    -0.800000E-01   12.0110           0
     25662 MEMB     228      POPC     HA       HAL2     0.900000E-01   1.00800           0
     25663 MEMB     228      POPC     HB       HAL2     0.900000E-01   1.00800           0
     25664 MEMB     228      POPC     C2       CTL1     0.170000       12.0110           0
     25665 MEMB     228      POPC     HS       HAL1     0.900000E-01   1.00800           0
     25666 MEMB     228      POPC     O21      OSL     -0.490000       15.9994           0
     25667 MEMB     228      POPC     C21      CL       0.900000       12.0110           0
     25668 MEMB     228      POPC     O22      OBL     -0.630000       15.9994           0
     25669 MEMB     228      POPC     C22      CTL2    -0.220000       12.0110           0
     25670 MEMB     228      POPC     H2R      HAL2     0.900000E-01   1.00800           0
     25671 MEMB     228      POPC     H2S      HAL2     0.900000E-01   1.00800           0
     25672 MEMB     228      POPC     C3       CTL2     0.800000E-01   12.0110           0
     25673 MEMB     228      POPC     HX       HAL2     0.900000E-01   1.00800           0
     25674 MEMB     228      POPC     HY       HAL2     0.900000E-01   1.00800           0
     25675 MEMB     228      POPC     O31      OSL     -0.490000       15.9994           0
     25676 MEMB     228      POPC     C31      CL       0.900000       12.0110           0
     25677 MEMB     228      POPC     O32      OBL     -0.630000       15.9994           0
     25678 MEMB     228      POPC     C32      CTL2    -0.220000       12.0110           0
     25679 MEMB     228      POPC     H2X      HAL2     0.900000E-01   1.00800           0
     25680 MEMB     228      POPC     H2Y      HAL2     0.900000E-01   1.00800           0
     25681 MEMB     228      POPC     C23      CTL2    -0.180000       12.0110           0
     25682 MEMB     228      POPC     H3R      HAL2     0.900000E-01   1.00800           0
     25683 MEMB     228      POPC     H3S      HAL2     0.900000E-01   1.00800           0
     25684 MEMB     228      POPC     C24      CTL2    -0.180000       12.0110           0
     25685 MEMB     228      POPC     H4R      HAL2     0.900000E-01   1.00800           0
     25686 MEMB     228      POPC     H4S      HAL2     0.900000E-01   1.00800           0
     25687 MEMB     228      POPC     C25      CTL2    -0.180000       12.0110           0
     25688 MEMB     228      POPC     H5R      HAL2     0.900000E-01   1.00800           0
     25689 MEMB     228      POPC     H5S      HAL2     0.900000E-01   1.00800           0
     25690 MEMB     228      POPC     C26      CTL2    -0.180000       12.0110           0
     25691 MEMB     228      POPC     H6R      HAL2     0.900000E-01   1.00800           0
     25692 MEMB     228      POPC     H6S      HAL2     0.900000E-01   1.00800           0
     25693 MEMB     228      POPC     C27      CTL2    -0.180000       12.0110           0
     25694 MEMB     228      POPC     H7R      HAL2     0.900000E-01   1.00800           0
     25695 MEMB     228      POPC     H7S      HAL2     0.900000E-01   1.00800           0
     25696 MEMB     228      POPC     C28      CTL2    -0.180000       12.0110           0
     25697 MEMB     228      POPC     H8R      HAL2     0.900000E-01   1.00800           0
     25698 MEMB     228      POPC     H8S      HAL2     0.900000E-01   1.00800           0
     25699 MEMB     228      POPC     C29      CEL1    -0.150000       12.0110           0
     25700 MEMB     228      POPC     H91      HEL1     0.150000       1.00800           0
     25701 MEMB     228      POPC     C210     CEL1    -0.150000       12.0110           0
     25702 MEMB     228      POPC     H101     HEL1     0.150000       1.00800           0
     25703 MEMB     228      POPC     C211     CTL2    -0.180000       12.0110           0
     25704 MEMB     228      POPC     H11R     HAL2     0.900000E-01   1.00800           0
     25705 MEMB     228      POPC     H11S     HAL2     0.900000E-01   1.00800           0
     25706 MEMB     228      POPC     C212     CTL2    -0.180000       12.0110           0
     25707 MEMB     228      POPC     H12R     HAL2     0.900000E-01   1.00800           0
     25708 MEMB     228      POPC     H12S     HAL2     0.900000E-01   1.00800           0
     25709 MEMB     228      POPC     C213     CTL2    -0.180000       12.0110           0
     25710 MEMB     228      POPC     H13R     HAL2     0.900000E-01   1.00800           0
     25711 MEMB     228      POPC     H13S     HAL2     0.900000E-01   1.00800           0
     25712 MEMB     228      POPC     C214     CTL2    -0.180000       12.0110           0
     25713 MEMB     228      POPC     H14R     HAL2     0.900000E-01   1.00800           0
     25714 MEMB     228      POPC     H14S     HAL2     0.900000E-01   1.00800           0
     25715 MEMB     228      POPC     C215     CTL2    -0.180000       12.0110           0
     25716 MEMB     228      POPC     H15R     HAL2     0.900000E-01   1.00800           0
     25717 MEMB     228      POPC     H15S     HAL2     0.900000E-01   1.00800           0
     25718 MEMB     228      POPC     C216     CTL2    -0.180000       12.0110           0
     25719 MEMB     228      POPC     H16R     HAL2     0.900000E-01   1.00800           0
     25720 MEMB     228      POPC     H16S     HAL2     0.900000E-01   1.00800           0
     25721 MEMB     228      POPC     C217     CTL2    -0.180000       12.0110           0
     25722 MEMB     228      POPC     H17R     HAL2     0.900000E-01   1.00800           0
     25723 MEMB     228      POPC     H17S     HAL2     0.900000E-01   1.00800           0
     25724 MEMB     228      POPC     C218     CTL3    -0.270000       12.0110           0
     25725 MEMB     228      POPC     H18R     HAL3     0.900000E-01   1.00800           0
     25726 MEMB     228      POPC     H18S     HAL3     0.900000E-01   1.00800           0
     25727 MEMB     228      POPC     H18T     HAL3     0.900000E-01   1.00800           0
     25728 MEMB     228      POPC     C33      CTL2    -0.180000       12.0110           0
     25729 MEMB     228      POPC     H3X      HAL2     0.900000E-01   1.00800           0
     25730 MEMB     228      POPC     H3Y      HAL2     0.900000E-01   1.00800           0
     25731 MEMB     228      POPC     C34      CTL2    -0.180000       12.0110           0
     25732 MEMB     228      POPC     H4X      HAL2     0.900000E-01   1.00800           0
     25733 MEMB     228      POPC     H4Y      HAL2     0.900000E-01   1.00800           0
     25734 MEMB     228      POPC     C35      CTL2    -0.180000       12.0110           0
     25735 MEMB     228      POPC     H5X      HAL2     0.900000E-01   1.00800           0
     25736 MEMB     228      POPC     H5Y      HAL2     0.900000E-01   1.00800           0
     25737 MEMB     228      POPC     C36      CTL2    -0.180000       12.0110           0
     25738 MEMB     228      POPC     H6X      HAL2     0.900000E-01   1.00800           0
     25739 MEMB     228      POPC     H6Y      HAL2     0.900000E-01   1.00800           0
     25740 MEMB     228      POPC     C37      CTL2    -0.180000       12.0110           0
     25741 MEMB     228      POPC     H7X      HAL2     0.900000E-01   1.00800           0
     25742 MEMB     228      POPC     H7Y      HAL2     0.900000E-01   1.00800           0
     25743 MEMB     228      POPC     C38      CTL2    -0.180000       12.0110           0
     25744 MEMB     228      POPC     H8X      HAL2     0.900000E-01   1.00800           0
     25745 MEMB     228      POPC     H8Y      HAL2     0.900000E-01   1.00800           0
     25746 MEMB     228      POPC     C39      CTL2    -0.180000       12.0110           0
     25747 MEMB     228      POPC     H9X      HAL2     0.900000E-01   1.00800           0
     25748 MEMB     228      POPC     H9Y      HAL2     0.900000E-01   1.00800           0
     25749 MEMB     228      POPC     C310     CTL2    -0.180000       12.0110           0
     25750 MEMB     228      POPC     H10X     HAL2     0.900000E-01   1.00800           0
     25751 MEMB     228      POPC     H10Y     HAL2     0.900000E-01   1.00800           0
     25752 MEMB     228      POPC     C311     CTL2    -0.180000       12.0110           0
     25753 MEMB     228      POPC     H11X     HAL2     0.900000E-01   1.00800           0
     25754 MEMB     228      POPC     H11Y     HAL2     0.900000E-01   1.00800           0
     25755 MEMB     228      POPC     C312     CTL2    -0.180000       12.0110           0
     25756 MEMB     228      POPC     H12X     HAL2     0.900000E-01   1.00800           0
     25757 MEMB     228      POPC     H12Y     HAL2     0.900000E-01   1.00800           0
     25758 MEMB     228      POPC     C313     CTL2    -0.180000       12.0110           0
     25759 MEMB     228      POPC     H13X     HAL2     0.900000E-01   1.00800           0
     25760 MEMB     228      POPC     H13Y     HAL2     0.900000E-01   1.00800           0
     25761 MEMB     228      POPC     C314     CTL2    -0.180000       12.0110           0
     25762 MEMB     228      POPC     H14X     HAL2     0.900000E-01   1.00800           0
     25763 MEMB     228      POPC     H14Y     HAL2     0.900000E-01   1.00800           0
     25764 MEMB     228      POPC     C315     CTL2    -0.180000       12.0110           0
     25765 MEMB     228      POPC     H15X     HAL2     0.900000E-01   1.00800           0
     25766 MEMB     228      POPC     H15Y     HAL2     0.900000E-01   1.00800           0
     25767 MEMB     228      POPC     C316     CTL3    -0.270000       12.0110           0
     25768 MEMB     228      POPC     H16X     HAL3     0.900000E-01   1.00800           0
     25769 MEMB     228      POPC     H16Y     HAL3     0.900000E-01   1.00800           0
     25770 MEMB     228      POPC     H16Z     HAL3     0.900000E-01   1.00800           0
     25771 MEMB     229      POPE     N        NH3L    -0.300000       14.0070           0
     25772 MEMB     229      POPE     HN1      HCL      0.330000       1.00800           0
     25773 MEMB     229      POPE     HN2      HCL      0.330000       1.00800           0
     25774 MEMB     229      POPE     HN3      HCL      0.330000       1.00800           0
     25775 MEMB     229      POPE     C12      CTL2     0.130000       12.0110           0
     25776 MEMB     229      POPE     H12A     HAL2     0.900000E-01   1.00800           0
     25777 MEMB     229      POPE     H12B     HAL2     0.900000E-01   1.00800           0
     25778 MEMB     229      POPE     C11      CTL2    -0.800000E-01   12.0110           0
     25779 MEMB     229      POPE     H11A     HAL2     0.900000E-01   1.00800           0
     25780 MEMB     229      POPE     H11B     HAL2     0.900000E-01   1.00800           0
     25781 MEMB     229      POPE     P        PL        1.50000       30.9740           0
     25782 MEMB     229      POPE     O13      O2L     -0.780000       15.9994           0
     25783 MEMB     229      POPE     O14      O2L     -0.780000       15.9994           0
     25784 MEMB     229      POPE     O11      OSLP    -0.570000       15.9994           0
     25785 MEMB     229      POPE     O12      OSLP    -0.570000       15.9994           0
     25786 MEMB     229      POPE     C1       CTL2    -0.800000E-01   12.0110           0
     25787 MEMB     229      POPE     HA       HAL2     0.900000E-01   1.00800           0
     25788 MEMB     229      POPE     HB       HAL2     0.900000E-01   1.00800           0
     25789 MEMB     229      POPE     C2       CTL1     0.170000       12.0110           0
     25790 MEMB     229      POPE     HS       HAL1     0.900000E-01   1.00800           0
     25791 MEMB     229      POPE     O21      OSL     -0.490000       15.9994           0
     25792 MEMB     229      POPE     C21      CL       0.900000       12.0110           0
     25793 MEMB     229      POPE     O22      OBL     -0.630000       15.9994           0
     25794 MEMB     229      POPE     C22      CTL2    -0.220000       12.0110           0
     25795 MEMB     229      POPE     H2R      HAL2     0.900000E-01   1.00800           0
     25796 MEMB     229      POPE     H2S      HAL2     0.900000E-01   1.00800           0
     25797 MEMB     229      POPE     C3       CTL2     0.800000E-01   12.0110           0
     25798 MEMB     229      POPE     HX       HAL2     0.900000E-01   1.00800           0
     25799 MEMB     229      POPE     HY       HAL2     0.900000E-01   1.00800           0
     25800 MEMB     229      POPE     O31      OSL     -0.490000       15.9994           0
     25801 MEMB     229      POPE     C31      CL       0.900000       12.0110           0
     25802 MEMB     229      POPE     O32      OBL     -0.630000       15.9994           0
     25803 MEMB     229      POPE     C32      CTL2    -0.220000       12.0110           0
     25804 MEMB     229      POPE     H2X      HAL2     0.900000E-01   1.00800           0
     25805 MEMB     229      POPE     H2Y      HAL2     0.900000E-01   1.00800           0
     25806 MEMB     229      POPE     C23      CTL2    -0.180000       12.0110           0
     25807 MEMB     229      POPE     H3R      HAL2     0.900000E-01   1.00800           0
     25808 MEMB     229      POPE     H3S      HAL2     0.900000E-01   1.00800           0
     25809 MEMB     229      POPE     C24      CTL2    -0.180000       12.0110           0
     25810 MEMB     229      POPE     H4R      HAL2     0.900000E-01   1.00800           0
     25811 MEMB     229      POPE     H4S      HAL2     0.900000E-01   1.00800           0
     25812 MEMB     229      POPE     C25      CTL2    -0.180000       12.0110           0
     25813 MEMB     229      POPE     H5R      HAL2     0.900000E-01   1.00800           0
     25814 MEMB     229      POPE     H5S      HAL2     0.900000E-01   1.00800           0
     25815 MEMB     229      POPE     C26      CTL2    -0.180000       12.0110           0
     25816 MEMB     229      POPE     H6R      HAL2     0.900000E-01   1.00800           0
     25817 MEMB     229      POPE     H6S      HAL2     0.900000E-01   1.00800           0
     25818 MEMB     229      POPE     C27      CTL2    -0.180000       12.0110           0
     25819 MEMB     229      POPE     H7R      HAL2     0.900000E-01   1.00800           0
     25820 MEMB     229      POPE     H7S      HAL2     0.900000E-01   1.00800           0
     25821 MEMB     229      POPE     C28      CTL2    -0.180000       12.0110           0
     25822 MEMB     229      POPE     H8R      HAL2     0.900000E-01   1.00800           0
     25823 MEMB     229      POPE     H8S      HAL2     0.900000E-01   1.00800           0
     25824 MEMB     229      POPE     C29      CEL1    -0.150000       12.0110           0
     25825 MEMB     229      POPE     H91      HEL1     0.150000       1.00800           0
     25826 MEMB     229      POPE     C210     CEL1    -0.150000       12.0110           0
     25827 MEMB     229      POPE     H101     HEL1     0.150000       1.00800           0
     25828 MEMB     229      POPE     C211     CTL2    -0.180000       12.0110           0
     25829 MEMB     229      POPE     H11R     HAL2     0.900000E-01   1.00800           0
     25830 MEMB     229      POPE     H11S     HAL2     0.900000E-01   1.00800           0
     25831 MEMB     229      POPE     C212     CTL2    -0.180000       12.0110           0
     25832 MEMB     229      POPE     H12R     HAL2     0.900000E-01   1.00800           0
     25833 MEMB     229      POPE     H12S     HAL2     0.900000E-01   1.00800           0
     25834 MEMB     229      POPE     C213     CTL2    -0.180000       12.0110           0
     25835 MEMB     229      POPE     H13R     HAL2     0.900000E-01   1.00800           0
     25836 MEMB     229      POPE     H13S     HAL2     0.900000E-01   1.00800           0
     25837 MEMB     229      POPE     C214     CTL2    -0.180000       12.0110           0
     25838 MEMB     229      POPE     H14R     HAL2     0.900000E-01   1.00800           0
     25839 MEMB     229      POPE     H14S     HAL2     0.900000E-01   1.00800           0
     25840 MEMB     229      POPE     C215     CTL2    -0.180000       12.0110           0
     25841 MEMB     229      POPE     H15R     HAL2     0.900000E-01   1.00800           0
     25842 MEMB     229      POPE     H15S     HAL2     0.900000E-01   1.00800           0
     25843 MEMB     229      POPE     C216     CTL2    -0.180000       12.0110           0
     25844 MEMB     229      POPE     H16R     HAL2     0.900000E-01   1.00800           0
     25845 MEMB     229      POPE     H16S     HAL2     0.900000E-01   1.00800           0
     25846 MEMB     229      POPE     C217     CTL2    -0.180000       12.0110           0
     25847 MEMB     229      POPE     H17R     HAL2     0.900000E-01   1.00800           0
     25848 MEMB     229      POPE     H17S     HAL2     0.900000E-01   1.00800           0
     25849 MEMB     229      POPE     C218     CTL3    -0.270000       12.0110           0
     25850 MEMB     229      POPE     H18R     HAL3     0.900000E-01   1.00800           0
     25851 MEMB     229      POPE     H18S     HAL3     0.900000E-01   1.00800           0
     25852 MEMB     229      POPE     H18T     HAL3     0.900000E-01   1.00800           0
     25853 MEMB     229      POPE     C33      CTL2    -0.180000       12.0110           0
     25854 MEMB     229      POPE     H3X      HAL2     0.900000E-01   1.00800           0
     25855 MEMB     229      POPE     H3Y      HAL2     0.900000E-01   1.00800           0
     25856 MEMB     229      POPE     C34      CTL2    -0.180000       12.0110           0
     25857 MEMB     229      POPE     H4X      HAL2     0.900000E-01   1.00800           0
     25858 MEMB     229      POPE     H4Y      HAL2     0.900000E-01   1.00800           0
     25859 MEMB     229      POPE     C35      CTL2    -0.180000       12.0110           0
     25860 MEMB     229      POPE     H5X      HAL2     0.900000E-01   1.00800           0
     25861 MEMB     229      POPE     H5Y      HAL2     0.900000E-01   1.00800           0
     25862 MEMB     229      POPE     C36      CTL2    -0.180000       12.0110           0
     25863 MEMB     229      POPE     H6X      HAL2     0.900000E-01   1.00800           0
     25864 MEMB     229      POPE     H6Y      HAL2     0.900000E-01   1.00800           0
     25865 MEMB     229      POPE     C37      CTL2    -0.180000       12.0110           0
     25866 MEMB     229      POPE     H7X      HAL2     0.900000E-01   1.00800           0
     25867 MEMB     229      POPE     H7Y      HAL2     0.900000E-01   1.00800           0
     25868 MEMB     229      POPE     C38      CTL2    -0.180000       12.0110           0
     25869 MEMB     229      POPE     H8X      HAL2     0.900000E-01   1.00800           0
     25870 MEMB     229      POPE     H8Y      HAL2     0.900000E-01   1.00800           0
     25871 MEMB     229      POPE     C39      CTL2    -0.180000       12.0110           0
     25872 MEMB     229      POPE     H9X      HAL2     0.900000E-01   1.00800           0
     25873 MEMB     229      POPE     H9Y      HAL2     0.900000E-01   1.00800           0
     25874 MEMB     229      POPE     C310     CTL2    -0.180000       12.0110           0
     25875 MEMB     229      POPE     H10X     HAL2     0.900000E-01   1.00800           0
     25876 MEMB     229      POPE     H10Y     HAL2     0.900000E-01   1.00800           0
     25877 MEMB     229      POPE     C311     CTL2    -0.180000       12.0110           0
     25878 MEMB     229      POPE     H11X     HAL2     0.900000E-01   1.00800           0
     25879 MEMB     229      POPE     H11Y     HAL2     0.900000E-01   1.00800           0
     25880 MEMB     229      POPE     C312     CTL2    -0.180000       12.0110           0
     25881 MEMB     229      POPE     H12X     HAL2     0.900000E-01   1.00800           0
     25882 MEMB     229      POPE     H12Y     HAL2     0.900000E-01   1.00800           0
     25883 MEMB     229      POPE     C313     CTL2    -0.180000       12.0110           0
     25884 MEMB     229      POPE     H13X     HAL2     0.900000E-01   1.00800           0
     25885 MEMB     229      POPE     H13Y     HAL2     0.900000E-01   1.00800           0
     25886 MEMB     229      POPE     C314     CTL2    -0.180000       12.0110           0
     25887 MEMB     229      POPE     H14X     HAL2     0.900000E-01   1.00800           0
     25888 MEMB     229      POPE     H14Y     HAL2     0.900000E-01   1.00800           0
     25889 MEMB     229      POPE     C315     CTL2    -0.180000       12.0110           0
     25890 MEMB     229      POPE     H15X     HAL2     0.900000E-01   1.00800           0
     25891 MEMB     229      POPE     H15Y     HAL2     0.900000E-01   1.00800           0
     25892 MEMB     229      POPE     C316     CTL3    -0.270000       12.0110           0
     25893 MEMB     229      POPE     H16X     HAL3     0.900000E-01   1.00800           0
     25894 MEMB     229      POPE     H16Y     HAL3     0.900000E-01   1.00800           0
     25895 MEMB     229      POPE     H16Z     HAL3     0.900000E-01   1.00800           0
     25896 MEMB     230      POPE     N        NH3L    -0.300000       14.0070           0
     25897 MEMB     230      POPE     HN1      HCL      0.330000       1.00800           0
     25898 MEMB     230      POPE     HN2      HCL      0.330000       1.00800           0
     25899 MEMB     230      POPE     HN3      HCL      0.330000       1.00800           0
     25900 MEMB     230      POPE     C12      CTL2     0.130000       12.0110           0
     25901 MEMB     230      POPE     H12A     HAL2     0.900000E-01   1.00800           0
     25902 MEMB     230      POPE     H12B     HAL2     0.900000E-01   1.00800           0
     25903 MEMB     230      POPE     C11      CTL2    -0.800000E-01   12.0110           0
     25904 MEMB     230      POPE     H11A     HAL2     0.900000E-01   1.00800           0
     25905 MEMB     230      POPE     H11B     HAL2     0.900000E-01   1.00800           0
     25906 MEMB     230      POPE     P        PL        1.50000       30.9740           0
     25907 MEMB     230      POPE     O13      O2L     -0.780000       15.9994           0
     25908 MEMB     230      POPE     O14      O2L     -0.780000       15.9994           0
     25909 MEMB     230      POPE     O11      OSLP    -0.570000       15.9994           0
     25910 MEMB     230      POPE     O12      OSLP    -0.570000       15.9994           0
     25911 MEMB     230      POPE     C1       CTL2    -0.800000E-01   12.0110           0
     25912 MEMB     230      POPE     HA       HAL2     0.900000E-01   1.00800           0
     25913 MEMB     230      POPE     HB       HAL2     0.900000E-01   1.00800           0
     25914 MEMB     230      POPE     C2       CTL1     0.170000       12.0110           0
     25915 MEMB     230      POPE     HS       HAL1     0.900000E-01   1.00800           0
     25916 MEMB     230      POPE     O21      OSL     -0.490000       15.9994           0
     25917 MEMB     230      POPE     C21      CL       0.900000       12.0110           0
     25918 MEMB     230      POPE     O22      OBL     -0.630000       15.9994           0
     25919 MEMB     230      POPE     C22      CTL2    -0.220000       12.0110           0
     25920 MEMB     230      POPE     H2R      HAL2     0.900000E-01   1.00800           0
     25921 MEMB     230      POPE     H2S      HAL2     0.900000E-01   1.00800           0
     25922 MEMB     230      POPE     C3       CTL2     0.800000E-01   12.0110           0
     25923 MEMB     230      POPE     HX       HAL2     0.900000E-01   1.00800           0
     25924 MEMB     230      POPE     HY       HAL2     0.900000E-01   1.00800           0
     25925 MEMB     230      POPE     O31      OSL     -0.490000       15.9994           0
     25926 MEMB     230      POPE     C31      CL       0.900000       12.0110           0
     25927 MEMB     230      POPE     O32      OBL     -0.630000       15.9994           0
     25928 MEMB     230      POPE     C32      CTL2    -0.220000       12.0110           0
     25929 MEMB     230      POPE     H2X      HAL2     0.900000E-01   1.00800           0
     25930 MEMB     230      POPE     H2Y      HAL2     0.900000E-01   1.00800           0
     25931 MEMB     230      POPE     C23      CTL2    -0.180000       12.0110           0
     25932 MEMB     230      POPE     H3R      HAL2     0.900000E-01   1.00800           0
     25933 MEMB     230      POPE     H3S      HAL2     0.900000E-01   1.00800           0
     25934 MEMB     230      POPE     C24      CTL2    -0.180000       12.0110           0
     25935 MEMB     230      POPE     H4R      HAL2     0.900000E-01   1.00800           0
     25936 MEMB     230      POPE     H4S      HAL2     0.900000E-01   1.00800           0
     25937 MEMB     230      POPE     C25      CTL2    -0.180000       12.0110           0
     25938 MEMB     230      POPE     H5R      HAL2     0.900000E-01   1.00800           0
     25939 MEMB     230      POPE     H5S      HAL2     0.900000E-01   1.00800           0
     25940 MEMB     230      POPE     C26      CTL2    -0.180000       12.0110           0
     25941 MEMB     230      POPE     H6R      HAL2     0.900000E-01   1.00800           0
     25942 MEMB     230      POPE     H6S      HAL2     0.900000E-01   1.00800           0
     25943 MEMB     230      POPE     C27      CTL2    -0.180000       12.0110           0
     25944 MEMB     230      POPE     H7R      HAL2     0.900000E-01   1.00800           0
     25945 MEMB     230      POPE     H7S      HAL2     0.900000E-01   1.00800           0
     25946 MEMB     230      POPE     C28      CTL2    -0.180000       12.0110           0
     25947 MEMB     230      POPE     H8R      HAL2     0.900000E-01   1.00800           0
     25948 MEMB     230      POPE     H8S      HAL2     0.900000E-01   1.00800           0
     25949 MEMB     230      POPE     C29      CEL1    -0.150000       12.0110           0
     25950 MEMB     230      POPE     H91      HEL1     0.150000       1.00800           0
     25951 MEMB     230      POPE     C210     CEL1    -0.150000       12.0110           0
     25952 MEMB     230      POPE     H101     HEL1     0.150000       1.00800           0
     25953 MEMB     230      POPE     C211     CTL2    -0.180000       12.0110           0
     25954 MEMB     230      POPE     H11R     HAL2     0.900000E-01   1.00800           0
     25955 MEMB     230      POPE     H11S     HAL2     0.900000E-01   1.00800           0
     25956 MEMB     230      POPE     C212     CTL2    -0.180000       12.0110           0
     25957 MEMB     230      POPE     H12R     HAL2     0.900000E-01   1.00800           0
     25958 MEMB     230      POPE     H12S     HAL2     0.900000E-01   1.00800           0
     25959 MEMB     230      POPE     C213     CTL2    -0.180000       12.0110           0
     25960 MEMB     230      POPE     H13R     HAL2     0.900000E-01   1.00800           0
     25961 MEMB     230      POPE     H13S     HAL2     0.900000E-01   1.00800           0
     25962 MEMB     230      POPE     C214     CTL2    -0.180000       12.0110           0
     25963 MEMB     230      POPE     H14R     HAL2     0.900000E-01   1.00800           0
     25964 MEMB     230      POPE     H14S     HAL2     0.900000E-01   1.00800           0
     25965 MEMB     230      POPE     C215     CTL2    -0.180000       12.0110           0
     25966 MEMB     230      POPE     H15R     HAL2     0.900000E-01   1.00800           0
     25967 MEMB     230      POPE     H15S     HAL2     0.900000E-01   1.00800           0
     25968 MEMB     230      POPE     C216     CTL2    -0.180000       12.0110           0
     25969 MEMB     230      POPE     H16R     HAL2     0.900000E-01   1.00800           0
     25970 MEMB     230      POPE     H16S     HAL2     0.900000E-01   1.00800           0
     25971 MEMB     230      POPE     C217     CTL2    -0.180000       12.0110           0
     25972 MEMB     230      POPE     H17R     HAL2     0.900000E-01   1.00800           0
     25973 MEMB     230      POPE     H17S     HAL2     0.900000E-01   1.00800           0
     25974 MEMB     230      POPE     C218     CTL3    -0.270000       12.0110           0
     25975 MEMB     230      POPE     H18R     HAL3     0.900000E-01   1.00800           0
     25976 MEMB     230      POPE     H18S     HAL3     0.900000E-01   1.00800           0
     25977 MEMB     230      POPE     H18T     HAL3     0.900000E-01   1.00800           0
     25978 MEMB     230      POPE     C33      CTL2    -0.180000       12.0110           0
     25979 MEMB     230      POPE     H3X      HAL2     0.900000E-01   1.00800           0
     25980 MEMB     230      POPE     H3Y      HAL2     0.900000E-01   1.00800           0
     25981 MEMB     230      POPE     C34      CTL2    -0.180000       12.0110           0
     25982 MEMB     230      POPE     H4X      HAL2     0.900000E-01   1.00800           0
     25983 MEMB     230      POPE     H4Y      HAL2     0.900000E-01   1.00800           0
     25984 MEMB     230      POPE     C35      CTL2    -0.180000       12.0110           0
     25985 MEMB     230      POPE     H5X      HAL2     0.900000E-01   1.00800           0
     25986 MEMB     230      POPE     H5Y      HAL2     0.900000E-01   1.00800           0
     25987 MEMB     230      POPE     C36      CTL2    -0.180000       12.0110           0
     25988 MEMB     230      POPE     H6X      HAL2     0.900000E-01   1.00800           0
     25989 MEMB     230      POPE     H6Y      HAL2     0.900000E-01   1.00800           0
     25990 MEMB     230      POPE     C37      CTL2    -0.180000       12.0110           0
     25991 MEMB     230      POPE     H7X      HAL2     0.900000E-01   1.00800           0
     25992 MEMB     230      POPE     H7Y      HAL2     0.900000E-01   1.00800           0
     25993 MEMB     230      POPE     C38      CTL2    -0.180000       12.0110           0
     25994 MEMB     230      POPE     H8X      HAL2     0.900000E-01   1.00800           0
     25995 MEMB     230      POPE     H8Y      HAL2     0.900000E-01   1.00800           0
     25996 MEMB     230      POPE     C39      CTL2    -0.180000       12.0110           0
     25997 MEMB     230      POPE     H9X      HAL2     0.900000E-01   1.00800           0
     25998 MEMB     230      POPE     H9Y      HAL2     0.900000E-01   1.00800           0
     25999 MEMB     230      POPE     C310     CTL2    -0.180000       12.0110           0
     26000 MEMB     230      POPE     H10X     HAL2     0.900000E-01   1.00800           0
     26001 MEMB     230      POPE     H10Y     HAL2     0.900000E-01   1.00800           0
     26002 MEMB     230      POPE     C311     CTL2    -0.180000       12.0110           0
     26003 MEMB     230      POPE     H11X     HAL2     0.900000E-01   1.00800           0
     26004 MEMB     230      POPE     H11Y     HAL2     0.900000E-01   1.00800           0
     26005 MEMB     230      POPE     C312     CTL2    -0.180000       12.0110           0
     26006 MEMB     230      POPE     H12X     HAL2     0.900000E-01   1.00800           0
     26007 MEMB     230      POPE     H12Y     HAL2     0.900000E-01   1.00800           0
     26008 MEMB     230      POPE     C313     CTL2    -0.180000       12.0110           0
     26009 MEMB     230      POPE     H13X     HAL2     0.900000E-01   1.00800           0
     26010 MEMB     230      POPE     H13Y     HAL2     0.900000E-01   1.00800           0
     26011 MEMB     230      POPE     C314     CTL2    -0.180000       12.0110           0
     26012 MEMB     230      POPE     H14X     HAL2     0.900000E-01   1.00800           0
     26013 MEMB     230      POPE     H14Y     HAL2     0.900000E-01   1.00800           0
     26014 MEMB     230      POPE     C315     CTL2    -0.180000       12.0110           0
     26015 MEMB     230      POPE     H15X     HAL2     0.900000E-01   1.00800           0
     26016 MEMB     230      POPE     H15Y     HAL2     0.900000E-01   1.00800           0
     26017 MEMB     230      POPE     C316     CTL3    -0.270000       12.0110           0
     26018 MEMB     230      POPE     H16X     HAL3     0.900000E-01   1.00800           0
     26019 MEMB     230      POPE     H16Y     HAL3     0.900000E-01   1.00800           0
     26020 MEMB     230      POPE     H16Z     HAL3     0.900000E-01   1.00800           0
     26021 MEMB     231      POPE     N        NH3L    -0.300000       14.0070           0
     26022 MEMB     231      POPE     HN1      HCL      0.330000       1.00800           0
     26023 MEMB     231      POPE     HN2      HCL      0.330000       1.00800           0
     26024 MEMB     231      POPE     HN3      HCL      0.330000       1.00800           0
     26025 MEMB     231      POPE     C12      CTL2     0.130000       12.0110           0
     26026 MEMB     231      POPE     H12A     HAL2     0.900000E-01   1.00800           0
     26027 MEMB     231      POPE     H12B     HAL2     0.900000E-01   1.00800           0
     26028 MEMB     231      POPE     C11      CTL2    -0.800000E-01   12.0110           0
     26029 MEMB     231      POPE     H11A     HAL2     0.900000E-01   1.00800           0
     26030 MEMB     231      POPE     H11B     HAL2     0.900000E-01   1.00800           0
     26031 MEMB     231      POPE     P        PL        1.50000       30.9740           0
     26032 MEMB     231      POPE     O13      O2L     -0.780000       15.9994           0
     26033 MEMB     231      POPE     O14      O2L     -0.780000       15.9994           0
     26034 MEMB     231      POPE     O11      OSLP    -0.570000       15.9994           0
     26035 MEMB     231      POPE     O12      OSLP    -0.570000       15.9994           0
     26036 MEMB     231      POPE     C1       CTL2    -0.800000E-01   12.0110           0
     26037 MEMB     231      POPE     HA       HAL2     0.900000E-01   1.00800           0
     26038 MEMB     231      POPE     HB       HAL2     0.900000E-01   1.00800           0
     26039 MEMB     231      POPE     C2       CTL1     0.170000       12.0110           0
     26040 MEMB     231      POPE     HS       HAL1     0.900000E-01   1.00800           0
     26041 MEMB     231      POPE     O21      OSL     -0.490000       15.9994           0
     26042 MEMB     231      POPE     C21      CL       0.900000       12.0110           0
     26043 MEMB     231      POPE     O22      OBL     -0.630000       15.9994           0
     26044 MEMB     231      POPE     C22      CTL2    -0.220000       12.0110           0
     26045 MEMB     231      POPE     H2R      HAL2     0.900000E-01   1.00800           0
     26046 MEMB     231      POPE     H2S      HAL2     0.900000E-01   1.00800           0
     26047 MEMB     231      POPE     C3       CTL2     0.800000E-01   12.0110           0
     26048 MEMB     231      POPE     HX       HAL2     0.900000E-01   1.00800           0
     26049 MEMB     231      POPE     HY       HAL2     0.900000E-01   1.00800           0
     26050 MEMB     231      POPE     O31      OSL     -0.490000       15.9994           0
     26051 MEMB     231      POPE     C31      CL       0.900000       12.0110           0
     26052 MEMB     231      POPE     O32      OBL     -0.630000       15.9994           0
     26053 MEMB     231      POPE     C32      CTL2    -0.220000       12.0110           0
     26054 MEMB     231      POPE     H2X      HAL2     0.900000E-01   1.00800           0
     26055 MEMB     231      POPE     H2Y      HAL2     0.900000E-01   1.00800           0
     26056 MEMB     231      POPE     C23      CTL2    -0.180000       12.0110           0
     26057 MEMB     231      POPE     H3R      HAL2     0.900000E-01   1.00800           0
     26058 MEMB     231      POPE     H3S      HAL2     0.900000E-01   1.00800           0
     26059 MEMB     231      POPE     C24      CTL2    -0.180000       12.0110           0
     26060 MEMB     231      POPE     H4R      HAL2     0.900000E-01   1.00800           0
     26061 MEMB     231      POPE     H4S      HAL2     0.900000E-01   1.00800           0
     26062 MEMB     231      POPE     C25      CTL2    -0.180000       12.0110           0
     26063 MEMB     231      POPE     H5R      HAL2     0.900000E-01   1.00800           0
     26064 MEMB     231      POPE     H5S      HAL2     0.900000E-01   1.00800           0
     26065 MEMB     231      POPE     C26      CTL2    -0.180000       12.0110           0
     26066 MEMB     231      POPE     H6R      HAL2     0.900000E-01   1.00800           0
     26067 MEMB     231      POPE     H6S      HAL2     0.900000E-01   1.00800           0
     26068 MEMB     231      POPE     C27      CTL2    -0.180000       12.0110           0
     26069 MEMB     231      POPE     H7R      HAL2     0.900000E-01   1.00800           0
     26070 MEMB     231      POPE     H7S      HAL2     0.900000E-01   1.00800           0
     26071 MEMB     231      POPE     C28      CTL2    -0.180000       12.0110           0
     26072 MEMB     231      POPE     H8R      HAL2     0.900000E-01   1.00800           0
     26073 MEMB     231      POPE     H8S      HAL2     0.900000E-01   1.00800           0
     26074 MEMB     231      POPE     C29      CEL1    -0.150000       12.0110           0
     26075 MEMB     231      POPE     H91      HEL1     0.150000       1.00800           0
     26076 MEMB     231      POPE     C210     CEL1    -0.150000       12.0110           0
     26077 MEMB     231      POPE     H101     HEL1     0.150000       1.00800           0
     26078 MEMB     231      POPE     C211     CTL2    -0.180000       12.0110           0
     26079 MEMB     231      POPE     H11R     HAL2     0.900000E-01   1.00800           0
     26080 MEMB     231      POPE     H11S     HAL2     0.900000E-01   1.00800           0
     26081 MEMB     231      POPE     C212     CTL2    -0.180000       12.0110           0
     26082 MEMB     231      POPE     H12R     HAL2     0.900000E-01   1.00800           0
     26083 MEMB     231      POPE     H12S     HAL2     0.900000E-01   1.00800           0
     26084 MEMB     231      POPE     C213     CTL2    -0.180000       12.0110           0
     26085 MEMB     231      POPE     H13R     HAL2     0.900000E-01   1.00800           0
     26086 MEMB     231      POPE     H13S     HAL2     0.900000E-01   1.00800           0
     26087 MEMB     231      POPE     C214     CTL2    -0.180000       12.0110           0
     26088 MEMB     231      POPE     H14R     HAL2     0.900000E-01   1.00800           0
     26089 MEMB     231      POPE     H14S     HAL2     0.900000E-01   1.00800           0
     26090 MEMB     231      POPE     C215     CTL2    -0.180000       12.0110           0
     26091 MEMB     231      POPE     H15R     HAL2     0.900000E-01   1.00800           0
     26092 MEMB     231      POPE     H15S     HAL2     0.900000E-01   1.00800           0
     26093 MEMB     231      POPE     C216     CTL2    -0.180000       12.0110           0
     26094 MEMB     231      POPE     H16R     HAL2     0.900000E-01   1.00800           0
     26095 MEMB     231      POPE     H16S     HAL2     0.900000E-01   1.00800           0
     26096 MEMB     231      POPE     C217     CTL2    -0.180000       12.0110           0
     26097 MEMB     231      POPE     H17R     HAL2     0.900000E-01   1.00800           0
     26098 MEMB     231      POPE     H17S     HAL2     0.900000E-01   1.00800           0
     26099 MEMB     231      POPE     C218     CTL3    -0.270000       12.0110           0
     26100 MEMB     231      POPE     H18R     HAL3     0.900000E-01   1.00800           0
     26101 MEMB     231      POPE     H18S     HAL3     0.900000E-01   1.00800           0
     26102 MEMB     231      POPE     H18T     HAL3     0.900000E-01   1.00800           0
     26103 MEMB     231      POPE     C33      CTL2    -0.180000       12.0110           0
     26104 MEMB     231      POPE     H3X      HAL2     0.900000E-01   1.00800           0
     26105 MEMB     231      POPE     H3Y      HAL2     0.900000E-01   1.00800           0
     26106 MEMB     231      POPE     C34      CTL2    -0.180000       12.0110           0
     26107 MEMB     231      POPE     H4X      HAL2     0.900000E-01   1.00800           0
     26108 MEMB     231      POPE     H4Y      HAL2     0.900000E-01   1.00800           0
     26109 MEMB     231      POPE     C35      CTL2    -0.180000       12.0110           0
     26110 MEMB     231      POPE     H5X      HAL2     0.900000E-01   1.00800           0
     26111 MEMB     231      POPE     H5Y      HAL2     0.900000E-01   1.00800           0
     26112 MEMB     231      POPE     C36      CTL2    -0.180000       12.0110           0
     26113 MEMB     231      POPE     H6X      HAL2     0.900000E-01   1.00800           0
     26114 MEMB     231      POPE     H6Y      HAL2     0.900000E-01   1.00800           0
     26115 MEMB     231      POPE     C37      CTL2    -0.180000       12.0110           0
     26116 MEMB     231      POPE     H7X      HAL2     0.900000E-01   1.00800           0
     26117 MEMB     231      POPE     H7Y      HAL2     0.900000E-01   1.00800           0
     26118 MEMB     231      POPE     C38      CTL2    -0.180000       12.0110           0
     26119 MEMB     231      POPE     H8X      HAL2     0.900000E-01   1.00800           0
     26120 MEMB     231      POPE     H8Y      HAL2     0.900000E-01   1.00800           0
     26121 MEMB     231      POPE     C39      CTL2    -0.180000       12.0110           0
     26122 MEMB     231      POPE     H9X      HAL2     0.900000E-01   1.00800           0
     26123 MEMB     231      POPE     H9Y      HAL2     0.900000E-01   1.00800           0
     26124 MEMB     231      POPE     C310     CTL2    -0.180000       12.0110           0
     26125 MEMB     231      POPE     H10X     HAL2     0.900000E-01   1.00800           0
     26126 MEMB     231      POPE     H10Y     HAL2     0.900000E-01   1.00800           0
     26127 MEMB     231      POPE     C311     CTL2    -0.180000       12.0110           0
     26128 MEMB     231      POPE     H11X     HAL2     0.900000E-01   1.00800           0
     26129 MEMB     231      POPE     H11Y     HAL2     0.900000E-01   1.00800           0
     26130 MEMB     231      POPE     C312     CTL2    -0.180000       12.0110           0
     26131 MEMB     231      POPE     H12X     HAL2     0.900000E-01   1.00800           0
     26132 MEMB     231      POPE     H12Y     HAL2     0.900000E-01   1.00800           0
     26133 MEMB     231      POPE     C313     CTL2    -0.180000       12.0110           0
     26134 MEMB     231      POPE     H13X     HAL2     0.900000E-01   1.00800           0
     26135 MEMB     231      POPE     H13Y     HAL2     0.900000E-01   1.00800           0
     26136 MEMB     231      POPE     C314     CTL2    -0.180000       12.0110           0
     26137 MEMB     231      POPE     H14X     HAL2     0.900000E-01   1.00800           0
     26138 MEMB     231      POPE     H14Y     HAL2     0.900000E-01   1.00800           0
     26139 MEMB     231      POPE     C315     CTL2    -0.180000       12.0110           0
     26140 MEMB     231      POPE     H15X     HAL2     0.900000E-01   1.00800           0
     26141 MEMB     231      POPE     H15Y     HAL2     0.900000E-01   1.00800           0
     26142 MEMB     231      POPE     C316     CTL3    -0.270000       12.0110           0
     26143 MEMB     231      POPE     H16X     HAL3     0.900000E-01   1.00800           0
     26144 MEMB     231      POPE     H16Y     HAL3     0.900000E-01   1.00800           0
     26145 MEMB     231      POPE     H16Z     HAL3     0.900000E-01   1.00800           0
     26146 MEMB     232      POPC     N        NTL     -0.600000       14.0070           0
     26147 MEMB     232      POPC     C12      CTL2    -0.100000       12.0110           0
     26148 MEMB     232      POPC     H12A     HL       0.250000       1.00800           0
     26149 MEMB     232      POPC     H12B     HL       0.250000       1.00800           0
     26150 MEMB     232      POPC     C13      CTL5    -0.350000       12.0110           0
     26151 MEMB     232      POPC     H13A     HL       0.250000       1.00800           0
     26152 MEMB     232      POPC     H13B     HL       0.250000       1.00800           0
     26153 MEMB     232      POPC     H13C     HL       0.250000       1.00800           0
     26154 MEMB     232      POPC     C14      CTL5    -0.350000       12.0110           0
     26155 MEMB     232      POPC     H14A     HL       0.250000       1.00800           0
     26156 MEMB     232      POPC     H14B     HL       0.250000       1.00800           0
     26157 MEMB     232      POPC     H14C     HL       0.250000       1.00800           0
     26158 MEMB     232      POPC     C15      CTL5    -0.350000       12.0110           0
     26159 MEMB     232      POPC     H15A     HL       0.250000       1.00800           0
     26160 MEMB     232      POPC     H15B     HL       0.250000       1.00800           0
     26161 MEMB     232      POPC     H15C     HL       0.250000       1.00800           0
     26162 MEMB     232      POPC     C11      CTL2    -0.800000E-01   12.0110           0
     26163 MEMB     232      POPC     H11A     HAL2     0.900000E-01   1.00800           0
     26164 MEMB     232      POPC     H11B     HAL2     0.900000E-01   1.00800           0
     26165 MEMB     232      POPC     P        PL        1.50000       30.9740           0
     26166 MEMB     232      POPC     O13      O2L     -0.780000       15.9994           0
     26167 MEMB     232      POPC     O14      O2L     -0.780000       15.9994           0
     26168 MEMB     232      POPC     O12      OSLP    -0.570000       15.9994           0
     26169 MEMB     232      POPC     O11      OSLP    -0.570000       15.9994           0
     26170 MEMB     232      POPC     C1       CTL2    -0.800000E-01   12.0110           0
     26171 MEMB     232      POPC     HA       HAL2     0.900000E-01   1.00800           0
     26172 MEMB     232      POPC     HB       HAL2     0.900000E-01   1.00800           0
     26173 MEMB     232      POPC     C2       CTL1     0.170000       12.0110           0
     26174 MEMB     232      POPC     HS       HAL1     0.900000E-01   1.00800           0
     26175 MEMB     232      POPC     O21      OSL     -0.490000       15.9994           0
     26176 MEMB     232      POPC     C21      CL       0.900000       12.0110           0
     26177 MEMB     232      POPC     O22      OBL     -0.630000       15.9994           0
     26178 MEMB     232      POPC     C22      CTL2    -0.220000       12.0110           0
     26179 MEMB     232      POPC     H2R      HAL2     0.900000E-01   1.00800           0
     26180 MEMB     232      POPC     H2S      HAL2     0.900000E-01   1.00800           0
     26181 MEMB     232      POPC     C3       CTL2     0.800000E-01   12.0110           0
     26182 MEMB     232      POPC     HX       HAL2     0.900000E-01   1.00800           0
     26183 MEMB     232      POPC     HY       HAL2     0.900000E-01   1.00800           0
     26184 MEMB     232      POPC     O31      OSL     -0.490000       15.9994           0
     26185 MEMB     232      POPC     C31      CL       0.900000       12.0110           0
     26186 MEMB     232      POPC     O32      OBL     -0.630000       15.9994           0
     26187 MEMB     232      POPC     C32      CTL2    -0.220000       12.0110           0
     26188 MEMB     232      POPC     H2X      HAL2     0.900000E-01   1.00800           0
     26189 MEMB     232      POPC     H2Y      HAL2     0.900000E-01   1.00800           0
     26190 MEMB     232      POPC     C23      CTL2    -0.180000       12.0110           0
     26191 MEMB     232      POPC     H3R      HAL2     0.900000E-01   1.00800           0
     26192 MEMB     232      POPC     H3S      HAL2     0.900000E-01   1.00800           0
     26193 MEMB     232      POPC     C24      CTL2    -0.180000       12.0110           0
     26194 MEMB     232      POPC     H4R      HAL2     0.900000E-01   1.00800           0
     26195 MEMB     232      POPC     H4S      HAL2     0.900000E-01   1.00800           0
     26196 MEMB     232      POPC     C25      CTL2    -0.180000       12.0110           0
     26197 MEMB     232      POPC     H5R      HAL2     0.900000E-01   1.00800           0
     26198 MEMB     232      POPC     H5S      HAL2     0.900000E-01   1.00800           0
     26199 MEMB     232      POPC     C26      CTL2    -0.180000       12.0110           0
     26200 MEMB     232      POPC     H6R      HAL2     0.900000E-01   1.00800           0
     26201 MEMB     232      POPC     H6S      HAL2     0.900000E-01   1.00800           0
     26202 MEMB     232      POPC     C27      CTL2    -0.180000       12.0110           0
     26203 MEMB     232      POPC     H7R      HAL2     0.900000E-01   1.00800           0
     26204 MEMB     232      POPC     H7S      HAL2     0.900000E-01   1.00800           0
     26205 MEMB     232      POPC     C28      CTL2    -0.180000       12.0110           0
     26206 MEMB     232      POPC     H8R      HAL2     0.900000E-01   1.00800           0
     26207 MEMB     232      POPC     H8S      HAL2     0.900000E-01   1.00800           0
     26208 MEMB     232      POPC     C29      CEL1    -0.150000       12.0110           0
     26209 MEMB     232      POPC     H91      HEL1     0.150000       1.00800           0
     26210 MEMB     232      POPC     C210     CEL1    -0.150000       12.0110           0
     26211 MEMB     232      POPC     H101     HEL1     0.150000       1.00800           0
     26212 MEMB     232      POPC     C211     CTL2    -0.180000       12.0110           0
     26213 MEMB     232      POPC     H11R     HAL2     0.900000E-01   1.00800           0
     26214 MEMB     232      POPC     H11S     HAL2     0.900000E-01   1.00800           0
     26215 MEMB     232      POPC     C212     CTL2    -0.180000       12.0110           0
     26216 MEMB     232      POPC     H12R     HAL2     0.900000E-01   1.00800           0
     26217 MEMB     232      POPC     H12S     HAL2     0.900000E-01   1.00800           0
     26218 MEMB     232      POPC     C213     CTL2    -0.180000       12.0110           0
     26219 MEMB     232      POPC     H13R     HAL2     0.900000E-01   1.00800           0
     26220 MEMB     232      POPC     H13S     HAL2     0.900000E-01   1.00800           0
     26221 MEMB     232      POPC     C214     CTL2    -0.180000       12.0110           0
     26222 MEMB     232      POPC     H14R     HAL2     0.900000E-01   1.00800           0
     26223 MEMB     232      POPC     H14S     HAL2     0.900000E-01   1.00800           0
     26224 MEMB     232      POPC     C215     CTL2    -0.180000       12.0110           0
     26225 MEMB     232      POPC     H15R     HAL2     0.900000E-01   1.00800           0
     26226 MEMB     232      POPC     H15S     HAL2     0.900000E-01   1.00800           0
     26227 MEMB     232      POPC     C216     CTL2    -0.180000       12.0110           0
     26228 MEMB     232      POPC     H16R     HAL2     0.900000E-01   1.00800           0
     26229 MEMB     232      POPC     H16S     HAL2     0.900000E-01   1.00800           0
     26230 MEMB     232      POPC     C217     CTL2    -0.180000       12.0110           0
     26231 MEMB     232      POPC     H17R     HAL2     0.900000E-01   1.00800           0
     26232 MEMB     232      POPC     H17S     HAL2     0.900000E-01   1.00800           0
     26233 MEMB     232      POPC     C218     CTL3    -0.270000       12.0110           0
     26234 MEMB     232      POPC     H18R     HAL3     0.900000E-01   1.00800           0
     26235 MEMB     232      POPC     H18S     HAL3     0.900000E-01   1.00800           0
     26236 MEMB     232      POPC     H18T     HAL3     0.900000E-01   1.00800           0
     26237 MEMB     232      POPC     C33      CTL2    -0.180000       12.0110           0
     26238 MEMB     232      POPC     H3X      HAL2     0.900000E-01   1.00800           0
     26239 MEMB     232      POPC     H3Y      HAL2     0.900000E-01   1.00800           0
     26240 MEMB     232      POPC     C34      CTL2    -0.180000       12.0110           0
     26241 MEMB     232      POPC     H4X      HAL2     0.900000E-01   1.00800           0
     26242 MEMB     232      POPC     H4Y      HAL2     0.900000E-01   1.00800           0
     26243 MEMB     232      POPC     C35      CTL2    -0.180000       12.0110           0
     26244 MEMB     232      POPC     H5X      HAL2     0.900000E-01   1.00800           0
     26245 MEMB     232      POPC     H5Y      HAL2     0.900000E-01   1.00800           0
     26246 MEMB     232      POPC     C36      CTL2    -0.180000       12.0110           0
     26247 MEMB     232      POPC     H6X      HAL2     0.900000E-01   1.00800           0
     26248 MEMB     232      POPC     H6Y      HAL2     0.900000E-01   1.00800           0
     26249 MEMB     232      POPC     C37      CTL2    -0.180000       12.0110           0
     26250 MEMB     232      POPC     H7X      HAL2     0.900000E-01   1.00800           0
     26251 MEMB     232      POPC     H7Y      HAL2     0.900000E-01   1.00800           0
     26252 MEMB     232      POPC     C38      CTL2    -0.180000       12.0110           0
     26253 MEMB     232      POPC     H8X      HAL2     0.900000E-01   1.00800           0
     26254 MEMB     232      POPC     H8Y      HAL2     0.900000E-01   1.00800           0
     26255 MEMB     232      POPC     C39      CTL2    -0.180000       12.0110           0
     26256 MEMB     232      POPC     H9X      HAL2     0.900000E-01   1.00800           0
     26257 MEMB     232      POPC     H9Y      HAL2     0.900000E-01   1.00800           0
     26258 MEMB     232      POPC     C310     CTL2    -0.180000       12.0110           0
     26259 MEMB     232      POPC     H10X     HAL2     0.900000E-01   1.00800           0
     26260 MEMB     232      POPC     H10Y     HAL2     0.900000E-01   1.00800           0
     26261 MEMB     232      POPC     C311     CTL2    -0.180000       12.0110           0
     26262 MEMB     232      POPC     H11X     HAL2     0.900000E-01   1.00800           0
     26263 MEMB     232      POPC     H11Y     HAL2     0.900000E-01   1.00800           0
     26264 MEMB     232      POPC     C312     CTL2    -0.180000       12.0110           0
     26265 MEMB     232      POPC     H12X     HAL2     0.900000E-01   1.00800           0
     26266 MEMB     232      POPC     H12Y     HAL2     0.900000E-01   1.00800           0
     26267 MEMB     232      POPC     C313     CTL2    -0.180000       12.0110           0
     26268 MEMB     232      POPC     H13X     HAL2     0.900000E-01   1.00800           0
     26269 MEMB     232      POPC     H13Y     HAL2     0.900000E-01   1.00800           0
     26270 MEMB     232      POPC     C314     CTL2    -0.180000       12.0110           0
     26271 MEMB     232      POPC     H14X     HAL2     0.900000E-01   1.00800           0
     26272 MEMB     232      POPC     H14Y     HAL2     0.900000E-01   1.00800           0
     26273 MEMB     232      POPC     C315     CTL2    -0.180000       12.0110           0
     26274 MEMB     232      POPC     H15X     HAL2     0.900000E-01   1.00800           0
     26275 MEMB     232      POPC     H15Y     HAL2     0.900000E-01   1.00800           0
     26276 MEMB     232      POPC     C316     CTL3    -0.270000       12.0110           0
     26277 MEMB     232      POPC     H16X     HAL3     0.900000E-01   1.00800           0
     26278 MEMB     232      POPC     H16Y     HAL3     0.900000E-01   1.00800           0
     26279 MEMB     232      POPC     H16Z     HAL3     0.900000E-01   1.00800           0
     26280 MEMB     233      POPC     N        NTL     -0.600000       14.0070           0
     26281 MEMB     233      POPC     C12      CTL2    -0.100000       12.0110           0
     26282 MEMB     233      POPC     H12A     HL       0.250000       1.00800           0
     26283 MEMB     233      POPC     H12B     HL       0.250000       1.00800           0
     26284 MEMB     233      POPC     C13      CTL5    -0.350000       12.0110           0
     26285 MEMB     233      POPC     H13A     HL       0.250000       1.00800           0
     26286 MEMB     233      POPC     H13B     HL       0.250000       1.00800           0
     26287 MEMB     233      POPC     H13C     HL       0.250000       1.00800           0
     26288 MEMB     233      POPC     C14      CTL5    -0.350000       12.0110           0
     26289 MEMB     233      POPC     H14A     HL       0.250000       1.00800           0
     26290 MEMB     233      POPC     H14B     HL       0.250000       1.00800           0
     26291 MEMB     233      POPC     H14C     HL       0.250000       1.00800           0
     26292 MEMB     233      POPC     C15      CTL5    -0.350000       12.0110           0
     26293 MEMB     233      POPC     H15A     HL       0.250000       1.00800           0
     26294 MEMB     233      POPC     H15B     HL       0.250000       1.00800           0
     26295 MEMB     233      POPC     H15C     HL       0.250000       1.00800           0
     26296 MEMB     233      POPC     C11      CTL2    -0.800000E-01   12.0110           0
     26297 MEMB     233      POPC     H11A     HAL2     0.900000E-01   1.00800           0
     26298 MEMB     233      POPC     H11B     HAL2     0.900000E-01   1.00800           0
     26299 MEMB     233      POPC     P        PL        1.50000       30.9740           0
     26300 MEMB     233      POPC     O13      O2L     -0.780000       15.9994           0
     26301 MEMB     233      POPC     O14      O2L     -0.780000       15.9994           0
     26302 MEMB     233      POPC     O12      OSLP    -0.570000       15.9994           0
     26303 MEMB     233      POPC     O11      OSLP    -0.570000       15.9994           0
     26304 MEMB     233      POPC     C1       CTL2    -0.800000E-01   12.0110           0
     26305 MEMB     233      POPC     HA       HAL2     0.900000E-01   1.00800           0
     26306 MEMB     233      POPC     HB       HAL2     0.900000E-01   1.00800           0
     26307 MEMB     233      POPC     C2       CTL1     0.170000       12.0110           0
     26308 MEMB     233      POPC     HS       HAL1     0.900000E-01   1.00800           0
     26309 MEMB     233      POPC     O21      OSL     -0.490000       15.9994           0
     26310 MEMB     233      POPC     C21      CL       0.900000       12.0110           0
     26311 MEMB     233      POPC     O22      OBL     -0.630000       15.9994           0
     26312 MEMB     233      POPC     C22      CTL2    -0.220000       12.0110           0
     26313 MEMB     233      POPC     H2R      HAL2     0.900000E-01   1.00800           0
     26314 MEMB     233      POPC     H2S      HAL2     0.900000E-01   1.00800           0
     26315 MEMB     233      POPC     C3       CTL2     0.800000E-01   12.0110           0
     26316 MEMB     233      POPC     HX       HAL2     0.900000E-01   1.00800           0
     26317 MEMB     233      POPC     HY       HAL2     0.900000E-01   1.00800           0
     26318 MEMB     233      POPC     O31      OSL     -0.490000       15.9994           0
     26319 MEMB     233      POPC     C31      CL       0.900000       12.0110           0
     26320 MEMB     233      POPC     O32      OBL     -0.630000       15.9994           0
     26321 MEMB     233      POPC     C32      CTL2    -0.220000       12.0110           0
     26322 MEMB     233      POPC     H2X      HAL2     0.900000E-01   1.00800           0
     26323 MEMB     233      POPC     H2Y      HAL2     0.900000E-01   1.00800           0
     26324 MEMB     233      POPC     C23      CTL2    -0.180000       12.0110           0
     26325 MEMB     233      POPC     H3R      HAL2     0.900000E-01   1.00800           0
     26326 MEMB     233      POPC     H3S      HAL2     0.900000E-01   1.00800           0
     26327 MEMB     233      POPC     C24      CTL2    -0.180000       12.0110           0
     26328 MEMB     233      POPC     H4R      HAL2     0.900000E-01   1.00800           0
     26329 MEMB     233      POPC     H4S      HAL2     0.900000E-01   1.00800           0
     26330 MEMB     233      POPC     C25      CTL2    -0.180000       12.0110           0
     26331 MEMB     233      POPC     H5R      HAL2     0.900000E-01   1.00800           0
     26332 MEMB     233      POPC     H5S      HAL2     0.900000E-01   1.00800           0
     26333 MEMB     233      POPC     C26      CTL2    -0.180000       12.0110           0
     26334 MEMB     233      POPC     H6R      HAL2     0.900000E-01   1.00800           0
     26335 MEMB     233      POPC     H6S      HAL2     0.900000E-01   1.00800           0
     26336 MEMB     233      POPC     C27      CTL2    -0.180000       12.0110           0
     26337 MEMB     233      POPC     H7R      HAL2     0.900000E-01   1.00800           0
     26338 MEMB     233      POPC     H7S      HAL2     0.900000E-01   1.00800           0
     26339 MEMB     233      POPC     C28      CTL2    -0.180000       12.0110           0
     26340 MEMB     233      POPC     H8R      HAL2     0.900000E-01   1.00800           0
     26341 MEMB     233      POPC     H8S      HAL2     0.900000E-01   1.00800           0
     26342 MEMB     233      POPC     C29      CEL1    -0.150000       12.0110           0
     26343 MEMB     233      POPC     H91      HEL1     0.150000       1.00800           0
     26344 MEMB     233      POPC     C210     CEL1    -0.150000       12.0110           0
     26345 MEMB     233      POPC     H101     HEL1     0.150000       1.00800           0
     26346 MEMB     233      POPC     C211     CTL2    -0.180000       12.0110           0
     26347 MEMB     233      POPC     H11R     HAL2     0.900000E-01   1.00800           0
     26348 MEMB     233      POPC     H11S     HAL2     0.900000E-01   1.00800           0
     26349 MEMB     233      POPC     C212     CTL2    -0.180000       12.0110           0
     26350 MEMB     233      POPC     H12R     HAL2     0.900000E-01   1.00800           0
     26351 MEMB     233      POPC     H12S     HAL2     0.900000E-01   1.00800           0
     26352 MEMB     233      POPC     C213     CTL2    -0.180000       12.0110           0
     26353 MEMB     233      POPC     H13R     HAL2     0.900000E-01   1.00800           0
     26354 MEMB     233      POPC     H13S     HAL2     0.900000E-01   1.00800           0
     26355 MEMB     233      POPC     C214     CTL2    -0.180000       12.0110           0
     26356 MEMB     233      POPC     H14R     HAL2     0.900000E-01   1.00800           0
     26357 MEMB     233      POPC     H14S     HAL2     0.900000E-01   1.00800           0
     26358 MEMB     233      POPC     C215     CTL2    -0.180000       12.0110           0
     26359 MEMB     233      POPC     H15R     HAL2     0.900000E-01   1.00800           0
     26360 MEMB     233      POPC     H15S     HAL2     0.900000E-01   1.00800           0
     26361 MEMB     233      POPC     C216     CTL2    -0.180000       12.0110           0
     26362 MEMB     233      POPC     H16R     HAL2     0.900000E-01   1.00800           0
     26363 MEMB     233      POPC     H16S     HAL2     0.900000E-01   1.00800           0
     26364 MEMB     233      POPC     C217     CTL2    -0.180000       12.0110           0
     26365 MEMB     233      POPC     H17R     HAL2     0.900000E-01   1.00800           0
     26366 MEMB     233      POPC     H17S     HAL2     0.900000E-01   1.00800           0
     26367 MEMB     233      POPC     C218     CTL3    -0.270000       12.0110           0
     26368 MEMB     233      POPC     H18R     HAL3     0.900000E-01   1.00800           0
     26369 MEMB     233      POPC     H18S     HAL3     0.900000E-01   1.00800           0
     26370 MEMB     233      POPC     H18T     HAL3     0.900000E-01   1.00800           0
     26371 MEMB     233      POPC     C33      CTL2    -0.180000       12.0110           0
     26372 MEMB     233      POPC     H3X      HAL2     0.900000E-01   1.00800           0
     26373 MEMB     233      POPC     H3Y      HAL2     0.900000E-01   1.00800           0
     26374 MEMB     233      POPC     C34      CTL2    -0.180000       12.0110           0
     26375 MEMB     233      POPC     H4X      HAL2     0.900000E-01   1.00800           0
     26376 MEMB     233      POPC     H4Y      HAL2     0.900000E-01   1.00800           0
     26377 MEMB     233      POPC     C35      CTL2    -0.180000       12.0110           0
     26378 MEMB     233      POPC     H5X      HAL2     0.900000E-01   1.00800           0
     26379 MEMB     233      POPC     H5Y      HAL2     0.900000E-01   1.00800           0
     26380 MEMB     233      POPC     C36      CTL2    -0.180000       12.0110           0
     26381 MEMB     233      POPC     H6X      HAL2     0.900000E-01   1.00800           0
     26382 MEMB     233      POPC     H6Y      HAL2     0.900000E-01   1.00800           0
     26383 MEMB     233      POPC     C37      CTL2    -0.180000       12.0110           0
     26384 MEMB     233      POPC     H7X      HAL2     0.900000E-01   1.00800           0
     26385 MEMB     233      POPC     H7Y      HAL2     0.900000E-01   1.00800           0
     26386 MEMB     233      POPC     C38      CTL2    -0.180000       12.0110           0
     26387 MEMB     233      POPC     H8X      HAL2     0.900000E-01   1.00800           0
     26388 MEMB     233      POPC     H8Y      HAL2     0.900000E-01   1.00800           0
     26389 MEMB     233      POPC     C39      CTL2    -0.180000       12.0110           0
     26390 MEMB     233      POPC     H9X      HAL2     0.900000E-01   1.00800           0
     26391 MEMB     233      POPC     H9Y      HAL2     0.900000E-01   1.00800           0
     26392 MEMB     233      POPC     C310     CTL2    -0.180000       12.0110           0
     26393 MEMB     233      POPC     H10X     HAL2     0.900000E-01   1.00800           0
     26394 MEMB     233      POPC     H10Y     HAL2     0.900000E-01   1.00800           0
     26395 MEMB     233      POPC     C311     CTL2    -0.180000       12.0110           0
     26396 MEMB     233      POPC     H11X     HAL2     0.900000E-01   1.00800           0
     26397 MEMB     233      POPC     H11Y     HAL2     0.900000E-01   1.00800           0
     26398 MEMB     233      POPC     C312     CTL2    -0.180000       12.0110           0
     26399 MEMB     233      POPC     H12X     HAL2     0.900000E-01   1.00800           0
     26400 MEMB     233      POPC     H12Y     HAL2     0.900000E-01   1.00800           0
     26401 MEMB     233      POPC     C313     CTL2    -0.180000       12.0110           0
     26402 MEMB     233      POPC     H13X     HAL2     0.900000E-01   1.00800           0
     26403 MEMB     233      POPC     H13Y     HAL2     0.900000E-01   1.00800           0
     26404 MEMB     233      POPC     C314     CTL2    -0.180000       12.0110           0
     26405 MEMB     233      POPC     H14X     HAL2     0.900000E-01   1.00800           0
     26406 MEMB     233      POPC     H14Y     HAL2     0.900000E-01   1.00800           0
     26407 MEMB     233      POPC     C315     CTL2    -0.180000       12.0110           0
     26408 MEMB     233      POPC     H15X     HAL2     0.900000E-01   1.00800           0
     26409 MEMB     233      POPC     H15Y     HAL2     0.900000E-01   1.00800           0
     26410 MEMB     233      POPC     C316     CTL3    -0.270000       12.0110           0
     26411 MEMB     233      POPC     H16X     HAL3     0.900000E-01   1.00800           0
     26412 MEMB     233      POPC     H16Y     HAL3     0.900000E-01   1.00800           0
     26413 MEMB     233      POPC     H16Z     HAL3     0.900000E-01   1.00800           0
     26414 MEMB     234      POPE     N        NH3L    -0.300000       14.0070           0
     26415 MEMB     234      POPE     HN1      HCL      0.330000       1.00800           0
     26416 MEMB     234      POPE     HN2      HCL      0.330000       1.00800           0
     26417 MEMB     234      POPE     HN3      HCL      0.330000       1.00800           0
     26418 MEMB     234      POPE     C12      CTL2     0.130000       12.0110           0
     26419 MEMB     234      POPE     H12A     HAL2     0.900000E-01   1.00800           0
     26420 MEMB     234      POPE     H12B     HAL2     0.900000E-01   1.00800           0
     26421 MEMB     234      POPE     C11      CTL2    -0.800000E-01   12.0110           0
     26422 MEMB     234      POPE     H11A     HAL2     0.900000E-01   1.00800           0
     26423 MEMB     234      POPE     H11B     HAL2     0.900000E-01   1.00800           0
     26424 MEMB     234      POPE     P        PL        1.50000       30.9740           0
     26425 MEMB     234      POPE     O13      O2L     -0.780000       15.9994           0
     26426 MEMB     234      POPE     O14      O2L     -0.780000       15.9994           0
     26427 MEMB     234      POPE     O11      OSLP    -0.570000       15.9994           0
     26428 MEMB     234      POPE     O12      OSLP    -0.570000       15.9994           0
     26429 MEMB     234      POPE     C1       CTL2    -0.800000E-01   12.0110           0
     26430 MEMB     234      POPE     HA       HAL2     0.900000E-01   1.00800           0
     26431 MEMB     234      POPE     HB       HAL2     0.900000E-01   1.00800           0
     26432 MEMB     234      POPE     C2       CTL1     0.170000       12.0110           0
     26433 MEMB     234      POPE     HS       HAL1     0.900000E-01   1.00800           0
     26434 MEMB     234      POPE     O21      OSL     -0.490000       15.9994           0
     26435 MEMB     234      POPE     C21      CL       0.900000       12.0110           0
     26436 MEMB     234      POPE     O22      OBL     -0.630000       15.9994           0
     26437 MEMB     234      POPE     C22      CTL2    -0.220000       12.0110           0
     26438 MEMB     234      POPE     H2R      HAL2     0.900000E-01   1.00800           0
     26439 MEMB     234      POPE     H2S      HAL2     0.900000E-01   1.00800           0
     26440 MEMB     234      POPE     C3       CTL2     0.800000E-01   12.0110           0
     26441 MEMB     234      POPE     HX       HAL2     0.900000E-01   1.00800           0
     26442 MEMB     234      POPE     HY       HAL2     0.900000E-01   1.00800           0
     26443 MEMB     234      POPE     O31      OSL     -0.490000       15.9994           0
     26444 MEMB     234      POPE     C31      CL       0.900000       12.0110           0
     26445 MEMB     234      POPE     O32      OBL     -0.630000       15.9994           0
     26446 MEMB     234      POPE     C32      CTL2    -0.220000       12.0110           0
     26447 MEMB     234      POPE     H2X      HAL2     0.900000E-01   1.00800           0
     26448 MEMB     234      POPE     H2Y      HAL2     0.900000E-01   1.00800           0
     26449 MEMB     234      POPE     C23      CTL2    -0.180000       12.0110           0
     26450 MEMB     234      POPE     H3R      HAL2     0.900000E-01   1.00800           0
     26451 MEMB     234      POPE     H3S      HAL2     0.900000E-01   1.00800           0
     26452 MEMB     234      POPE     C24      CTL2    -0.180000       12.0110           0
     26453 MEMB     234      POPE     H4R      HAL2     0.900000E-01   1.00800           0
     26454 MEMB     234      POPE     H4S      HAL2     0.900000E-01   1.00800           0
     26455 MEMB     234      POPE     C25      CTL2    -0.180000       12.0110           0
     26456 MEMB     234      POPE     H5R      HAL2     0.900000E-01   1.00800           0
     26457 MEMB     234      POPE     H5S      HAL2     0.900000E-01   1.00800           0
     26458 MEMB     234      POPE     C26      CTL2    -0.180000       12.0110           0
     26459 MEMB     234      POPE     H6R      HAL2     0.900000E-01   1.00800           0
     26460 MEMB     234      POPE     H6S      HAL2     0.900000E-01   1.00800           0
     26461 MEMB     234      POPE     C27      CTL2    -0.180000       12.0110           0
     26462 MEMB     234      POPE     H7R      HAL2     0.900000E-01   1.00800           0
     26463 MEMB     234      POPE     H7S      HAL2     0.900000E-01   1.00800           0
     26464 MEMB     234      POPE     C28      CTL2    -0.180000       12.0110           0
     26465 MEMB     234      POPE     H8R      HAL2     0.900000E-01   1.00800           0
     26466 MEMB     234      POPE     H8S      HAL2     0.900000E-01   1.00800           0
     26467 MEMB     234      POPE     C29      CEL1    -0.150000       12.0110           0
     26468 MEMB     234      POPE     H91      HEL1     0.150000       1.00800           0
     26469 MEMB     234      POPE     C210     CEL1    -0.150000       12.0110           0
     26470 MEMB     234      POPE     H101     HEL1     0.150000       1.00800           0
     26471 MEMB     234      POPE     C211     CTL2    -0.180000       12.0110           0
     26472 MEMB     234      POPE     H11R     HAL2     0.900000E-01   1.00800           0
     26473 MEMB     234      POPE     H11S     HAL2     0.900000E-01   1.00800           0
     26474 MEMB     234      POPE     C212     CTL2    -0.180000       12.0110           0
     26475 MEMB     234      POPE     H12R     HAL2     0.900000E-01   1.00800           0
     26476 MEMB     234      POPE     H12S     HAL2     0.900000E-01   1.00800           0
     26477 MEMB     234      POPE     C213     CTL2    -0.180000       12.0110           0
     26478 MEMB     234      POPE     H13R     HAL2     0.900000E-01   1.00800           0
     26479 MEMB     234      POPE     H13S     HAL2     0.900000E-01   1.00800           0
     26480 MEMB     234      POPE     C214     CTL2    -0.180000       12.0110           0
     26481 MEMB     234      POPE     H14R     HAL2     0.900000E-01   1.00800           0
     26482 MEMB     234      POPE     H14S     HAL2     0.900000E-01   1.00800           0
     26483 MEMB     234      POPE     C215     CTL2    -0.180000       12.0110           0
     26484 MEMB     234      POPE     H15R     HAL2     0.900000E-01   1.00800           0
     26485 MEMB     234      POPE     H15S     HAL2     0.900000E-01   1.00800           0
     26486 MEMB     234      POPE     C216     CTL2    -0.180000       12.0110           0
     26487 MEMB     234      POPE     H16R     HAL2     0.900000E-01   1.00800           0
     26488 MEMB     234      POPE     H16S     HAL2     0.900000E-01   1.00800           0
     26489 MEMB     234      POPE     C217     CTL2    -0.180000       12.0110           0
     26490 MEMB     234      POPE     H17R     HAL2     0.900000E-01   1.00800           0
     26491 MEMB     234      POPE     H17S     HAL2     0.900000E-01   1.00800           0
     26492 MEMB     234      POPE     C218     CTL3    -0.270000       12.0110           0
     26493 MEMB     234      POPE     H18R     HAL3     0.900000E-01   1.00800           0
     26494 MEMB     234      POPE     H18S     HAL3     0.900000E-01   1.00800           0
     26495 MEMB     234      POPE     H18T     HAL3     0.900000E-01   1.00800           0
     26496 MEMB     234      POPE     C33      CTL2    -0.180000       12.0110           0
     26497 MEMB     234      POPE     H3X      HAL2     0.900000E-01   1.00800           0
     26498 MEMB     234      POPE     H3Y      HAL2     0.900000E-01   1.00800           0
     26499 MEMB     234      POPE     C34      CTL2    -0.180000       12.0110           0
     26500 MEMB     234      POPE     H4X      HAL2     0.900000E-01   1.00800           0
     26501 MEMB     234      POPE     H4Y      HAL2     0.900000E-01   1.00800           0
     26502 MEMB     234      POPE     C35      CTL2    -0.180000       12.0110           0
     26503 MEMB     234      POPE     H5X      HAL2     0.900000E-01   1.00800           0
     26504 MEMB     234      POPE     H5Y      HAL2     0.900000E-01   1.00800           0
     26505 MEMB     234      POPE     C36      CTL2    -0.180000       12.0110           0
     26506 MEMB     234      POPE     H6X      HAL2     0.900000E-01   1.00800           0
     26507 MEMB     234      POPE     H6Y      HAL2     0.900000E-01   1.00800           0
     26508 MEMB     234      POPE     C37      CTL2    -0.180000       12.0110           0
     26509 MEMB     234      POPE     H7X      HAL2     0.900000E-01   1.00800           0
     26510 MEMB     234      POPE     H7Y      HAL2     0.900000E-01   1.00800           0
     26511 MEMB     234      POPE     C38      CTL2    -0.180000       12.0110           0
     26512 MEMB     234      POPE     H8X      HAL2     0.900000E-01   1.00800           0
     26513 MEMB     234      POPE     H8Y      HAL2     0.900000E-01   1.00800           0
     26514 MEMB     234      POPE     C39      CTL2    -0.180000       12.0110           0
     26515 MEMB     234      POPE     H9X      HAL2     0.900000E-01   1.00800           0
     26516 MEMB     234      POPE     H9Y      HAL2     0.900000E-01   1.00800           0
     26517 MEMB     234      POPE     C310     CTL2    -0.180000       12.0110           0
     26518 MEMB     234      POPE     H10X     HAL2     0.900000E-01   1.00800           0
     26519 MEMB     234      POPE     H10Y     HAL2     0.900000E-01   1.00800           0
     26520 MEMB     234      POPE     C311     CTL2    -0.180000       12.0110           0
     26521 MEMB     234      POPE     H11X     HAL2     0.900000E-01   1.00800           0
     26522 MEMB     234      POPE     H11Y     HAL2     0.900000E-01   1.00800           0
     26523 MEMB     234      POPE     C312     CTL2    -0.180000       12.0110           0
     26524 MEMB     234      POPE     H12X     HAL2     0.900000E-01   1.00800           0
     26525 MEMB     234      POPE     H12Y     HAL2     0.900000E-01   1.00800           0
     26526 MEMB     234      POPE     C313     CTL2    -0.180000       12.0110           0
     26527 MEMB     234      POPE     H13X     HAL2     0.900000E-01   1.00800           0
     26528 MEMB     234      POPE     H13Y     HAL2     0.900000E-01   1.00800           0
     26529 MEMB     234      POPE     C314     CTL2    -0.180000       12.0110           0
     26530 MEMB     234      POPE     H14X     HAL2     0.900000E-01   1.00800           0
     26531 MEMB     234      POPE     H14Y     HAL2     0.900000E-01   1.00800           0
     26532 MEMB     234      POPE     C315     CTL2    -0.180000       12.0110           0
     26533 MEMB     234      POPE     H15X     HAL2     0.900000E-01   1.00800           0
     26534 MEMB     234      POPE     H15Y     HAL2     0.900000E-01   1.00800           0
     26535 MEMB     234      POPE     C316     CTL3    -0.270000       12.0110           0
     26536 MEMB     234      POPE     H16X     HAL3     0.900000E-01   1.00800           0
     26537 MEMB     234      POPE     H16Y     HAL3     0.900000E-01   1.00800           0
     26538 MEMB     234      POPE     H16Z     HAL3     0.900000E-01   1.00800           0
     26539 MEMB     235      POPE     N        NH3L    -0.300000       14.0070           0
     26540 MEMB     235      POPE     HN1      HCL      0.330000       1.00800           0
     26541 MEMB     235      POPE     HN2      HCL      0.330000       1.00800           0
     26542 MEMB     235      POPE     HN3      HCL      0.330000       1.00800           0
     26543 MEMB     235      POPE     C12      CTL2     0.130000       12.0110           0
     26544 MEMB     235      POPE     H12A     HAL2     0.900000E-01   1.00800           0
     26545 MEMB     235      POPE     H12B     HAL2     0.900000E-01   1.00800           0
     26546 MEMB     235      POPE     C11      CTL2    -0.800000E-01   12.0110           0
     26547 MEMB     235      POPE     H11A     HAL2     0.900000E-01   1.00800           0
     26548 MEMB     235      POPE     H11B     HAL2     0.900000E-01   1.00800           0
     26549 MEMB     235      POPE     P        PL        1.50000       30.9740           0
     26550 MEMB     235      POPE     O13      O2L     -0.780000       15.9994           0
     26551 MEMB     235      POPE     O14      O2L     -0.780000       15.9994           0
     26552 MEMB     235      POPE     O11      OSLP    -0.570000       15.9994           0
     26553 MEMB     235      POPE     O12      OSLP    -0.570000       15.9994           0
     26554 MEMB     235      POPE     C1       CTL2    -0.800000E-01   12.0110           0
     26555 MEMB     235      POPE     HA       HAL2     0.900000E-01   1.00800           0
     26556 MEMB     235      POPE     HB       HAL2     0.900000E-01   1.00800           0
     26557 MEMB     235      POPE     C2       CTL1     0.170000       12.0110           0
     26558 MEMB     235      POPE     HS       HAL1     0.900000E-01   1.00800           0
     26559 MEMB     235      POPE     O21      OSL     -0.490000       15.9994           0
     26560 MEMB     235      POPE     C21      CL       0.900000       12.0110           0
     26561 MEMB     235      POPE     O22      OBL     -0.630000       15.9994           0
     26562 MEMB     235      POPE     C22      CTL2    -0.220000       12.0110           0
     26563 MEMB     235      POPE     H2R      HAL2     0.900000E-01   1.00800           0
     26564 MEMB     235      POPE     H2S      HAL2     0.900000E-01   1.00800           0
     26565 MEMB     235      POPE     C3       CTL2     0.800000E-01   12.0110           0
     26566 MEMB     235      POPE     HX       HAL2     0.900000E-01   1.00800           0
     26567 MEMB     235      POPE     HY       HAL2     0.900000E-01   1.00800           0
     26568 MEMB     235      POPE     O31      OSL     -0.490000       15.9994           0
     26569 MEMB     235      POPE     C31      CL       0.900000       12.0110           0
     26570 MEMB     235      POPE     O32      OBL     -0.630000       15.9994           0
     26571 MEMB     235      POPE     C32      CTL2    -0.220000       12.0110           0
     26572 MEMB     235      POPE     H2X      HAL2     0.900000E-01   1.00800           0
     26573 MEMB     235      POPE     H2Y      HAL2     0.900000E-01   1.00800           0
     26574 MEMB     235      POPE     C23      CTL2    -0.180000       12.0110           0
     26575 MEMB     235      POPE     H3R      HAL2     0.900000E-01   1.00800           0
     26576 MEMB     235      POPE     H3S      HAL2     0.900000E-01   1.00800           0
     26577 MEMB     235      POPE     C24      CTL2    -0.180000       12.0110           0
     26578 MEMB     235      POPE     H4R      HAL2     0.900000E-01   1.00800           0
     26579 MEMB     235      POPE     H4S      HAL2     0.900000E-01   1.00800           0
     26580 MEMB     235      POPE     C25      CTL2    -0.180000       12.0110           0
     26581 MEMB     235      POPE     H5R      HAL2     0.900000E-01   1.00800           0
     26582 MEMB     235      POPE     H5S      HAL2     0.900000E-01   1.00800           0
     26583 MEMB     235      POPE     C26      CTL2    -0.180000       12.0110           0
     26584 MEMB     235      POPE     H6R      HAL2     0.900000E-01   1.00800           0
     26585 MEMB     235      POPE     H6S      HAL2     0.900000E-01   1.00800           0
     26586 MEMB     235      POPE     C27      CTL2    -0.180000       12.0110           0
     26587 MEMB     235      POPE     H7R      HAL2     0.900000E-01   1.00800           0
     26588 MEMB     235      POPE     H7S      HAL2     0.900000E-01   1.00800           0
     26589 MEMB     235      POPE     C28      CTL2    -0.180000       12.0110           0
     26590 MEMB     235      POPE     H8R      HAL2     0.900000E-01   1.00800           0
     26591 MEMB     235      POPE     H8S      HAL2     0.900000E-01   1.00800           0
     26592 MEMB     235      POPE     C29      CEL1    -0.150000       12.0110           0
     26593 MEMB     235      POPE     H91      HEL1     0.150000       1.00800           0
     26594 MEMB     235      POPE     C210     CEL1    -0.150000       12.0110           0
     26595 MEMB     235      POPE     H101     HEL1     0.150000       1.00800           0
     26596 MEMB     235      POPE     C211     CTL2    -0.180000       12.0110           0
     26597 MEMB     235      POPE     H11R     HAL2     0.900000E-01   1.00800           0
     26598 MEMB     235      POPE     H11S     HAL2     0.900000E-01   1.00800           0
     26599 MEMB     235      POPE     C212     CTL2    -0.180000       12.0110           0
     26600 MEMB     235      POPE     H12R     HAL2     0.900000E-01   1.00800           0
     26601 MEMB     235      POPE     H12S     HAL2     0.900000E-01   1.00800           0
     26602 MEMB     235      POPE     C213     CTL2    -0.180000       12.0110           0
     26603 MEMB     235      POPE     H13R     HAL2     0.900000E-01   1.00800           0
     26604 MEMB     235      POPE     H13S     HAL2     0.900000E-01   1.00800           0
     26605 MEMB     235      POPE     C214     CTL2    -0.180000       12.0110           0
     26606 MEMB     235      POPE     H14R     HAL2     0.900000E-01   1.00800           0
     26607 MEMB     235      POPE     H14S     HAL2     0.900000E-01   1.00800           0
     26608 MEMB     235      POPE     C215     CTL2    -0.180000       12.0110           0
     26609 MEMB     235      POPE     H15R     HAL2     0.900000E-01   1.00800           0
     26610 MEMB     235      POPE     H15S     HAL2     0.900000E-01   1.00800           0
     26611 MEMB     235      POPE     C216     CTL2    -0.180000       12.0110           0
     26612 MEMB     235      POPE     H16R     HAL2     0.900000E-01   1.00800           0
     26613 MEMB     235      POPE     H16S     HAL2     0.900000E-01   1.00800           0
     26614 MEMB     235      POPE     C217     CTL2    -0.180000       12.0110           0
     26615 MEMB     235      POPE     H17R     HAL2     0.900000E-01   1.00800           0
     26616 MEMB     235      POPE     H17S     HAL2     0.900000E-01   1.00800           0
     26617 MEMB     235      POPE     C218     CTL3    -0.270000       12.0110           0
     26618 MEMB     235      POPE     H18R     HAL3     0.900000E-01   1.00800           0
     26619 MEMB     235      POPE     H18S     HAL3     0.900000E-01   1.00800           0
     26620 MEMB     235      POPE     H18T     HAL3     0.900000E-01   1.00800           0
     26621 MEMB     235      POPE     C33      CTL2    -0.180000       12.0110           0
     26622 MEMB     235      POPE     H3X      HAL2     0.900000E-01   1.00800           0
     26623 MEMB     235      POPE     H3Y      HAL2     0.900000E-01   1.00800           0
     26624 MEMB     235      POPE     C34      CTL2    -0.180000       12.0110           0
     26625 MEMB     235      POPE     H4X      HAL2     0.900000E-01   1.00800           0
     26626 MEMB     235      POPE     H4Y      HAL2     0.900000E-01   1.00800           0
     26627 MEMB     235      POPE     C35      CTL2    -0.180000       12.0110           0
     26628 MEMB     235      POPE     H5X      HAL2     0.900000E-01   1.00800           0
     26629 MEMB     235      POPE     H5Y      HAL2     0.900000E-01   1.00800           0
     26630 MEMB     235      POPE     C36      CTL2    -0.180000       12.0110           0
     26631 MEMB     235      POPE     H6X      HAL2     0.900000E-01   1.00800           0
     26632 MEMB     235      POPE     H6Y      HAL2     0.900000E-01   1.00800           0
     26633 MEMB     235      POPE     C37      CTL2    -0.180000       12.0110           0
     26634 MEMB     235      POPE     H7X      HAL2     0.900000E-01   1.00800           0
     26635 MEMB     235      POPE     H7Y      HAL2     0.900000E-01   1.00800           0
     26636 MEMB     235      POPE     C38      CTL2    -0.180000       12.0110           0
     26637 MEMB     235      POPE     H8X      HAL2     0.900000E-01   1.00800           0
     26638 MEMB     235      POPE     H8Y      HAL2     0.900000E-01   1.00800           0
     26639 MEMB     235      POPE     C39      CTL2    -0.180000       12.0110           0
     26640 MEMB     235      POPE     H9X      HAL2     0.900000E-01   1.00800           0
     26641 MEMB     235      POPE     H9Y      HAL2     0.900000E-01   1.00800           0
     26642 MEMB     235      POPE     C310     CTL2    -0.180000       12.0110           0
     26643 MEMB     235      POPE     H10X     HAL2     0.900000E-01   1.00800           0
     26644 MEMB     235      POPE     H10Y     HAL2     0.900000E-01   1.00800           0
     26645 MEMB     235      POPE     C311     CTL2    -0.180000       12.0110           0
     26646 MEMB     235      POPE     H11X     HAL2     0.900000E-01   1.00800           0
     26647 MEMB     235      POPE     H11Y     HAL2     0.900000E-01   1.00800           0
     26648 MEMB     235      POPE     C312     CTL2    -0.180000       12.0110           0
     26649 MEMB     235      POPE     H12X     HAL2     0.900000E-01   1.00800           0
     26650 MEMB     235      POPE     H12Y     HAL2     0.900000E-01   1.00800           0
     26651 MEMB     235      POPE     C313     CTL2    -0.180000       12.0110           0
     26652 MEMB     235      POPE     H13X     HAL2     0.900000E-01   1.00800           0
     26653 MEMB     235      POPE     H13Y     HAL2     0.900000E-01   1.00800           0
     26654 MEMB     235      POPE     C314     CTL2    -0.180000       12.0110           0
     26655 MEMB     235      POPE     H14X     HAL2     0.900000E-01   1.00800           0
     26656 MEMB     235      POPE     H14Y     HAL2     0.900000E-01   1.00800           0
     26657 MEMB     235      POPE     C315     CTL2    -0.180000       12.0110           0
     26658 MEMB     235      POPE     H15X     HAL2     0.900000E-01   1.00800           0
     26659 MEMB     235      POPE     H15Y     HAL2     0.900000E-01   1.00800           0
     26660 MEMB     235      POPE     C316     CTL3    -0.270000       12.0110           0
     26661 MEMB     235      POPE     H16X     HAL3     0.900000E-01   1.00800           0
     26662 MEMB     235      POPE     H16Y     HAL3     0.900000E-01   1.00800           0
     26663 MEMB     235      POPE     H16Z     HAL3     0.900000E-01   1.00800           0
     26664 MEMB     236      POPE     N        NH3L    -0.300000       14.0070           0
     26665 MEMB     236      POPE     HN1      HCL      0.330000       1.00800           0
     26666 MEMB     236      POPE     HN2      HCL      0.330000       1.00800           0
     26667 MEMB     236      POPE     HN3      HCL      0.330000       1.00800           0
     26668 MEMB     236      POPE     C12      CTL2     0.130000       12.0110           0
     26669 MEMB     236      POPE     H12A     HAL2     0.900000E-01   1.00800           0
     26670 MEMB     236      POPE     H12B     HAL2     0.900000E-01   1.00800           0
     26671 MEMB     236      POPE     C11      CTL2    -0.800000E-01   12.0110           0
     26672 MEMB     236      POPE     H11A     HAL2     0.900000E-01   1.00800           0
     26673 MEMB     236      POPE     H11B     HAL2     0.900000E-01   1.00800           0
     26674 MEMB     236      POPE     P        PL        1.50000       30.9740           0
     26675 MEMB     236      POPE     O13      O2L     -0.780000       15.9994           0
     26676 MEMB     236      POPE     O14      O2L     -0.780000       15.9994           0
     26677 MEMB     236      POPE     O11      OSLP    -0.570000       15.9994           0
     26678 MEMB     236      POPE     O12      OSLP    -0.570000       15.9994           0
     26679 MEMB     236      POPE     C1       CTL2    -0.800000E-01   12.0110           0
     26680 MEMB     236      POPE     HA       HAL2     0.900000E-01   1.00800           0
     26681 MEMB     236      POPE     HB       HAL2     0.900000E-01   1.00800           0
     26682 MEMB     236      POPE     C2       CTL1     0.170000       12.0110           0
     26683 MEMB     236      POPE     HS       HAL1     0.900000E-01   1.00800           0
     26684 MEMB     236      POPE     O21      OSL     -0.490000       15.9994           0
     26685 MEMB     236      POPE     C21      CL       0.900000       12.0110           0
     26686 MEMB     236      POPE     O22      OBL     -0.630000       15.9994           0
     26687 MEMB     236      POPE     C22      CTL2    -0.220000       12.0110           0
     26688 MEMB     236      POPE     H2R      HAL2     0.900000E-01   1.00800           0
     26689 MEMB     236      POPE     H2S      HAL2     0.900000E-01   1.00800           0
     26690 MEMB     236      POPE     C3       CTL2     0.800000E-01   12.0110           0
     26691 MEMB     236      POPE     HX       HAL2     0.900000E-01   1.00800           0
     26692 MEMB     236      POPE     HY       HAL2     0.900000E-01   1.00800           0
     26693 MEMB     236      POPE     O31      OSL     -0.490000       15.9994           0
     26694 MEMB     236      POPE     C31      CL       0.900000       12.0110           0
     26695 MEMB     236      POPE     O32      OBL     -0.630000       15.9994           0
     26696 MEMB     236      POPE     C32      CTL2    -0.220000       12.0110           0
     26697 MEMB     236      POPE     H2X      HAL2     0.900000E-01   1.00800           0
     26698 MEMB     236      POPE     H2Y      HAL2     0.900000E-01   1.00800           0
     26699 MEMB     236      POPE     C23      CTL2    -0.180000       12.0110           0
     26700 MEMB     236      POPE     H3R      HAL2     0.900000E-01   1.00800           0
     26701 MEMB     236      POPE     H3S      HAL2     0.900000E-01   1.00800           0
     26702 MEMB     236      POPE     C24      CTL2    -0.180000       12.0110           0
     26703 MEMB     236      POPE     H4R      HAL2     0.900000E-01   1.00800           0
     26704 MEMB     236      POPE     H4S      HAL2     0.900000E-01   1.00800           0
     26705 MEMB     236      POPE     C25      CTL2    -0.180000       12.0110           0
     26706 MEMB     236      POPE     H5R      HAL2     0.900000E-01   1.00800           0
     26707 MEMB     236      POPE     H5S      HAL2     0.900000E-01   1.00800           0
     26708 MEMB     236      POPE     C26      CTL2    -0.180000       12.0110           0
     26709 MEMB     236      POPE     H6R      HAL2     0.900000E-01   1.00800           0
     26710 MEMB     236      POPE     H6S      HAL2     0.900000E-01   1.00800           0
     26711 MEMB     236      POPE     C27      CTL2    -0.180000       12.0110           0
     26712 MEMB     236      POPE     H7R      HAL2     0.900000E-01   1.00800           0
     26713 MEMB     236      POPE     H7S      HAL2     0.900000E-01   1.00800           0
     26714 MEMB     236      POPE     C28      CTL2    -0.180000       12.0110           0
     26715 MEMB     236      POPE     H8R      HAL2     0.900000E-01   1.00800           0
     26716 MEMB     236      POPE     H8S      HAL2     0.900000E-01   1.00800           0
     26717 MEMB     236      POPE     C29      CEL1    -0.150000       12.0110           0
     26718 MEMB     236      POPE     H91      HEL1     0.150000       1.00800           0
     26719 MEMB     236      POPE     C210     CEL1    -0.150000       12.0110           0
     26720 MEMB     236      POPE     H101     HEL1     0.150000       1.00800           0
     26721 MEMB     236      POPE     C211     CTL2    -0.180000       12.0110           0
     26722 MEMB     236      POPE     H11R     HAL2     0.900000E-01   1.00800           0
     26723 MEMB     236      POPE     H11S     HAL2     0.900000E-01   1.00800           0
     26724 MEMB     236      POPE     C212     CTL2    -0.180000       12.0110           0
     26725 MEMB     236      POPE     H12R     HAL2     0.900000E-01   1.00800           0
     26726 MEMB     236      POPE     H12S     HAL2     0.900000E-01   1.00800           0
     26727 MEMB     236      POPE     C213     CTL2    -0.180000       12.0110           0
     26728 MEMB     236      POPE     H13R     HAL2     0.900000E-01   1.00800           0
     26729 MEMB     236      POPE     H13S     HAL2     0.900000E-01   1.00800           0
     26730 MEMB     236      POPE     C214     CTL2    -0.180000       12.0110           0
     26731 MEMB     236      POPE     H14R     HAL2     0.900000E-01   1.00800           0
     26732 MEMB     236      POPE     H14S     HAL2     0.900000E-01   1.00800           0
     26733 MEMB     236      POPE     C215     CTL2    -0.180000       12.0110           0
     26734 MEMB     236      POPE     H15R     HAL2     0.900000E-01   1.00800           0
     26735 MEMB     236      POPE     H15S     HAL2     0.900000E-01   1.00800           0
     26736 MEMB     236      POPE     C216     CTL2    -0.180000       12.0110           0
     26737 MEMB     236      POPE     H16R     HAL2     0.900000E-01   1.00800           0
     26738 MEMB     236      POPE     H16S     HAL2     0.900000E-01   1.00800           0
     26739 MEMB     236      POPE     C217     CTL2    -0.180000       12.0110           0
     26740 MEMB     236      POPE     H17R     HAL2     0.900000E-01   1.00800           0
     26741 MEMB     236      POPE     H17S     HAL2     0.900000E-01   1.00800           0
     26742 MEMB     236      POPE     C218     CTL3    -0.270000       12.0110           0
     26743 MEMB     236      POPE     H18R     HAL3     0.900000E-01   1.00800           0
     26744 MEMB     236      POPE     H18S     HAL3     0.900000E-01   1.00800           0
     26745 MEMB     236      POPE     H18T     HAL3     0.900000E-01   1.00800           0
     26746 MEMB     236      POPE     C33      CTL2    -0.180000       12.0110           0
     26747 MEMB     236      POPE     H3X      HAL2     0.900000E-01   1.00800           0
     26748 MEMB     236      POPE     H3Y      HAL2     0.900000E-01   1.00800           0
     26749 MEMB     236      POPE     C34      CTL2    -0.180000       12.0110           0
     26750 MEMB     236      POPE     H4X      HAL2     0.900000E-01   1.00800           0
     26751 MEMB     236      POPE     H4Y      HAL2     0.900000E-01   1.00800           0
     26752 MEMB     236      POPE     C35      CTL2    -0.180000       12.0110           0
     26753 MEMB     236      POPE     H5X      HAL2     0.900000E-01   1.00800           0
     26754 MEMB     236      POPE     H5Y      HAL2     0.900000E-01   1.00800           0
     26755 MEMB     236      POPE     C36      CTL2    -0.180000       12.0110           0
     26756 MEMB     236      POPE     H6X      HAL2     0.900000E-01   1.00800           0
     26757 MEMB     236      POPE     H6Y      HAL2     0.900000E-01   1.00800           0
     26758 MEMB     236      POPE     C37      CTL2    -0.180000       12.0110           0
     26759 MEMB     236      POPE     H7X      HAL2     0.900000E-01   1.00800           0
     26760 MEMB     236      POPE     H7Y      HAL2     0.900000E-01   1.00800           0
     26761 MEMB     236      POPE     C38      CTL2    -0.180000       12.0110           0
     26762 MEMB     236      POPE     H8X      HAL2     0.900000E-01   1.00800           0
     26763 MEMB     236      POPE     H8Y      HAL2     0.900000E-01   1.00800           0
     26764 MEMB     236      POPE     C39      CTL2    -0.180000       12.0110           0
     26765 MEMB     236      POPE     H9X      HAL2     0.900000E-01   1.00800           0
     26766 MEMB     236      POPE     H9Y      HAL2     0.900000E-01   1.00800           0
     26767 MEMB     236      POPE     C310     CTL2    -0.180000       12.0110           0
     26768 MEMB     236      POPE     H10X     HAL2     0.900000E-01   1.00800           0
     26769 MEMB     236      POPE     H10Y     HAL2     0.900000E-01   1.00800           0
     26770 MEMB     236      POPE     C311     CTL2    -0.180000       12.0110           0
     26771 MEMB     236      POPE     H11X     HAL2     0.900000E-01   1.00800           0
     26772 MEMB     236      POPE     H11Y     HAL2     0.900000E-01   1.00800           0
     26773 MEMB     236      POPE     C312     CTL2    -0.180000       12.0110           0
     26774 MEMB     236      POPE     H12X     HAL2     0.900000E-01   1.00800           0
     26775 MEMB     236      POPE     H12Y     HAL2     0.900000E-01   1.00800           0
     26776 MEMB     236      POPE     C313     CTL2    -0.180000       12.0110           0
     26777 MEMB     236      POPE     H13X     HAL2     0.900000E-01   1.00800           0
     26778 MEMB     236      POPE     H13Y     HAL2     0.900000E-01   1.00800           0
     26779 MEMB     236      POPE     C314     CTL2    -0.180000       12.0110           0
     26780 MEMB     236      POPE     H14X     HAL2     0.900000E-01   1.00800           0
     26781 MEMB     236      POPE     H14Y     HAL2     0.900000E-01   1.00800           0
     26782 MEMB     236      POPE     C315     CTL2    -0.180000       12.0110           0
     26783 MEMB     236      POPE     H15X     HAL2     0.900000E-01   1.00800           0
     26784 MEMB     236      POPE     H15Y     HAL2     0.900000E-01   1.00800           0
     26785 MEMB     236      POPE     C316     CTL3    -0.270000       12.0110           0
     26786 MEMB     236      POPE     H16X     HAL3     0.900000E-01   1.00800           0
     26787 MEMB     236      POPE     H16Y     HAL3     0.900000E-01   1.00800           0
     26788 MEMB     236      POPE     H16Z     HAL3     0.900000E-01   1.00800           0
     26789 MEMB     237      POPE     N        NH3L    -0.300000       14.0070           0
     26790 MEMB     237      POPE     HN1      HCL      0.330000       1.00800           0
     26791 MEMB     237      POPE     HN2      HCL      0.330000       1.00800           0
     26792 MEMB     237      POPE     HN3      HCL      0.330000       1.00800           0
     26793 MEMB     237      POPE     C12      CTL2     0.130000       12.0110           0
     26794 MEMB     237      POPE     H12A     HAL2     0.900000E-01   1.00800           0
     26795 MEMB     237      POPE     H12B     HAL2     0.900000E-01   1.00800           0
     26796 MEMB     237      POPE     C11      CTL2    -0.800000E-01   12.0110           0
     26797 MEMB     237      POPE     H11A     HAL2     0.900000E-01   1.00800           0
     26798 MEMB     237      POPE     H11B     HAL2     0.900000E-01   1.00800           0
     26799 MEMB     237      POPE     P        PL        1.50000       30.9740           0
     26800 MEMB     237      POPE     O13      O2L     -0.780000       15.9994           0
     26801 MEMB     237      POPE     O14      O2L     -0.780000       15.9994           0
     26802 MEMB     237      POPE     O11      OSLP    -0.570000       15.9994           0
     26803 MEMB     237      POPE     O12      OSLP    -0.570000       15.9994           0
     26804 MEMB     237      POPE     C1       CTL2    -0.800000E-01   12.0110           0
     26805 MEMB     237      POPE     HA       HAL2     0.900000E-01   1.00800           0
     26806 MEMB     237      POPE     HB       HAL2     0.900000E-01   1.00800           0
     26807 MEMB     237      POPE     C2       CTL1     0.170000       12.0110           0
     26808 MEMB     237      POPE     HS       HAL1     0.900000E-01   1.00800           0
     26809 MEMB     237      POPE     O21      OSL     -0.490000       15.9994           0
     26810 MEMB     237      POPE     C21      CL       0.900000       12.0110           0
     26811 MEMB     237      POPE     O22      OBL     -0.630000       15.9994           0
     26812 MEMB     237      POPE     C22      CTL2    -0.220000       12.0110           0
     26813 MEMB     237      POPE     H2R      HAL2     0.900000E-01   1.00800           0
     26814 MEMB     237      POPE     H2S      HAL2     0.900000E-01   1.00800           0
     26815 MEMB     237      POPE     C3       CTL2     0.800000E-01   12.0110           0
     26816 MEMB     237      POPE     HX       HAL2     0.900000E-01   1.00800           0
     26817 MEMB     237      POPE     HY       HAL2     0.900000E-01   1.00800           0
     26818 MEMB     237      POPE     O31      OSL     -0.490000       15.9994           0
     26819 MEMB     237      POPE     C31      CL       0.900000       12.0110           0
     26820 MEMB     237      POPE     O32      OBL     -0.630000       15.9994           0
     26821 MEMB     237      POPE     C32      CTL2    -0.220000       12.0110           0
     26822 MEMB     237      POPE     H2X      HAL2     0.900000E-01   1.00800           0
     26823 MEMB     237      POPE     H2Y      HAL2     0.900000E-01   1.00800           0
     26824 MEMB     237      POPE     C23      CTL2    -0.180000       12.0110           0
     26825 MEMB     237      POPE     H3R      HAL2     0.900000E-01   1.00800           0
     26826 MEMB     237      POPE     H3S      HAL2     0.900000E-01   1.00800           0
     26827 MEMB     237      POPE     C24      CTL2    -0.180000       12.0110           0
     26828 MEMB     237      POPE     H4R      HAL2     0.900000E-01   1.00800           0
     26829 MEMB     237      POPE     H4S      HAL2     0.900000E-01   1.00800           0
     26830 MEMB     237      POPE     C25      CTL2    -0.180000       12.0110           0
     26831 MEMB     237      POPE     H5R      HAL2     0.900000E-01   1.00800           0
     26832 MEMB     237      POPE     H5S      HAL2     0.900000E-01   1.00800           0
     26833 MEMB     237      POPE     C26      CTL2    -0.180000       12.0110           0
     26834 MEMB     237      POPE     H6R      HAL2     0.900000E-01   1.00800           0
     26835 MEMB     237      POPE     H6S      HAL2     0.900000E-01   1.00800           0
     26836 MEMB     237      POPE     C27      CTL2    -0.180000       12.0110           0
     26837 MEMB     237      POPE     H7R      HAL2     0.900000E-01   1.00800           0
     26838 MEMB     237      POPE     H7S      HAL2     0.900000E-01   1.00800           0
     26839 MEMB     237      POPE     C28      CTL2    -0.180000       12.0110           0
     26840 MEMB     237      POPE     H8R      HAL2     0.900000E-01   1.00800           0
     26841 MEMB     237      POPE     H8S      HAL2     0.900000E-01   1.00800           0
     26842 MEMB     237      POPE     C29      CEL1    -0.150000       12.0110           0
     26843 MEMB     237      POPE     H91      HEL1     0.150000       1.00800           0
     26844 MEMB     237      POPE     C210     CEL1    -0.150000       12.0110           0
     26845 MEMB     237      POPE     H101     HEL1     0.150000       1.00800           0
     26846 MEMB     237      POPE     C211     CTL2    -0.180000       12.0110           0
     26847 MEMB     237      POPE     H11R     HAL2     0.900000E-01   1.00800           0
     26848 MEMB     237      POPE     H11S     HAL2     0.900000E-01   1.00800           0
     26849 MEMB     237      POPE     C212     CTL2    -0.180000       12.0110           0
     26850 MEMB     237      POPE     H12R     HAL2     0.900000E-01   1.00800           0
     26851 MEMB     237      POPE     H12S     HAL2     0.900000E-01   1.00800           0
     26852 MEMB     237      POPE     C213     CTL2    -0.180000       12.0110           0
     26853 MEMB     237      POPE     H13R     HAL2     0.900000E-01   1.00800           0
     26854 MEMB     237      POPE     H13S     HAL2     0.900000E-01   1.00800           0
     26855 MEMB     237      POPE     C214     CTL2    -0.180000       12.0110           0
     26856 MEMB     237      POPE     H14R     HAL2     0.900000E-01   1.00800           0
     26857 MEMB     237      POPE     H14S     HAL2     0.900000E-01   1.00800           0
     26858 MEMB     237      POPE     C215     CTL2    -0.180000       12.0110           0
     26859 MEMB     237      POPE     H15R     HAL2     0.900000E-01   1.00800           0
     26860 MEMB     237      POPE     H15S     HAL2     0.900000E-01   1.00800           0
     26861 MEMB     237      POPE     C216     CTL2    -0.180000       12.0110           0
     26862 MEMB     237      POPE     H16R     HAL2     0.900000E-01   1.00800           0
     26863 MEMB     237      POPE     H16S     HAL2     0.900000E-01   1.00800           0
     26864 MEMB     237      POPE     C217     CTL2    -0.180000       12.0110           0
     26865 MEMB     237      POPE     H17R     HAL2     0.900000E-01   1.00800           0
     26866 MEMB     237      POPE     H17S     HAL2     0.900000E-01   1.00800           0
     26867 MEMB     237      POPE     C218     CTL3    -0.270000       12.0110           0
     26868 MEMB     237      POPE     H18R     HAL3     0.900000E-01   1.00800           0
     26869 MEMB     237      POPE     H18S     HAL3     0.900000E-01   1.00800           0
     26870 MEMB     237      POPE     H18T     HAL3     0.900000E-01   1.00800           0
     26871 MEMB     237      POPE     C33      CTL2    -0.180000       12.0110           0
     26872 MEMB     237      POPE     H3X      HAL2     0.900000E-01   1.00800           0
     26873 MEMB     237      POPE     H3Y      HAL2     0.900000E-01   1.00800           0
     26874 MEMB     237      POPE     C34      CTL2    -0.180000       12.0110           0
     26875 MEMB     237      POPE     H4X      HAL2     0.900000E-01   1.00800           0
     26876 MEMB     237      POPE     H4Y      HAL2     0.900000E-01   1.00800           0
     26877 MEMB     237      POPE     C35      CTL2    -0.180000       12.0110           0
     26878 MEMB     237      POPE     H5X      HAL2     0.900000E-01   1.00800           0
     26879 MEMB     237      POPE     H5Y      HAL2     0.900000E-01   1.00800           0
     26880 MEMB     237      POPE     C36      CTL2    -0.180000       12.0110           0
     26881 MEMB     237      POPE     H6X      HAL2     0.900000E-01   1.00800           0
     26882 MEMB     237      POPE     H6Y      HAL2     0.900000E-01   1.00800           0
     26883 MEMB     237      POPE     C37      CTL2    -0.180000       12.0110           0
     26884 MEMB     237      POPE     H7X      HAL2     0.900000E-01   1.00800           0
     26885 MEMB     237      POPE     H7Y      HAL2     0.900000E-01   1.00800           0
     26886 MEMB     237      POPE     C38      CTL2    -0.180000       12.0110           0
     26887 MEMB     237      POPE     H8X      HAL2     0.900000E-01   1.00800           0
     26888 MEMB     237      POPE     H8Y      HAL2     0.900000E-01   1.00800           0
     26889 MEMB     237      POPE     C39      CTL2    -0.180000       12.0110           0
     26890 MEMB     237      POPE     H9X      HAL2     0.900000E-01   1.00800           0
     26891 MEMB     237      POPE     H9Y      HAL2     0.900000E-01   1.00800           0
     26892 MEMB     237      POPE     C310     CTL2    -0.180000       12.0110           0
     26893 MEMB     237      POPE     H10X     HAL2     0.900000E-01   1.00800           0
     26894 MEMB     237      POPE     H10Y     HAL2     0.900000E-01   1.00800           0
     26895 MEMB     237      POPE     C311     CTL2    -0.180000       12.0110           0
     26896 MEMB     237      POPE     H11X     HAL2     0.900000E-01   1.00800           0
     26897 MEMB     237      POPE     H11Y     HAL2     0.900000E-01   1.00800           0
     26898 MEMB     237      POPE     C312     CTL2    -0.180000       12.0110           0
     26899 MEMB     237      POPE     H12X     HAL2     0.900000E-01   1.00800           0
     26900 MEMB     237      POPE     H12Y     HAL2     0.900000E-01   1.00800           0
     26901 MEMB     237      POPE     C313     CTL2    -0.180000       12.0110           0
     26902 MEMB     237      POPE     H13X     HAL2     0.900000E-01   1.00800           0
     26903 MEMB     237      POPE     H13Y     HAL2     0.900000E-01   1.00800           0
     26904 MEMB     237      POPE     C314     CTL2    -0.180000       12.0110           0
     26905 MEMB     237      POPE     H14X     HAL2     0.900000E-01   1.00800           0
     26906 MEMB     237      POPE     H14Y     HAL2     0.900000E-01   1.00800           0
     26907 MEMB     237      POPE     C315     CTL2    -0.180000       12.0110           0
     26908 MEMB     237      POPE     H15X     HAL2     0.900000E-01   1.00800           0
     26909 MEMB     237      POPE     H15Y     HAL2     0.900000E-01   1.00800           0
     26910 MEMB     237      POPE     C316     CTL3    -0.270000       12.0110           0
     26911 MEMB     237      POPE     H16X     HAL3     0.900000E-01   1.00800           0
     26912 MEMB     237      POPE     H16Y     HAL3     0.900000E-01   1.00800           0
     26913 MEMB     237      POPE     H16Z     HAL3     0.900000E-01   1.00800           0
     26914 MEMB     238      POPC     N        NTL     -0.600000       14.0070           0
     26915 MEMB     238      POPC     C12      CTL2    -0.100000       12.0110           0
     26916 MEMB     238      POPC     H12A     HL       0.250000       1.00800           0
     26917 MEMB     238      POPC     H12B     HL       0.250000       1.00800           0
     26918 MEMB     238      POPC     C13      CTL5    -0.350000       12.0110           0
     26919 MEMB     238      POPC     H13A     HL       0.250000       1.00800           0
     26920 MEMB     238      POPC     H13B     HL       0.250000       1.00800           0
     26921 MEMB     238      POPC     H13C     HL       0.250000       1.00800           0
     26922 MEMB     238      POPC     C14      CTL5    -0.350000       12.0110           0
     26923 MEMB     238      POPC     H14A     HL       0.250000       1.00800           0
     26924 MEMB     238      POPC     H14B     HL       0.250000       1.00800           0
     26925 MEMB     238      POPC     H14C     HL       0.250000       1.00800           0
     26926 MEMB     238      POPC     C15      CTL5    -0.350000       12.0110           0
     26927 MEMB     238      POPC     H15A     HL       0.250000       1.00800           0
     26928 MEMB     238      POPC     H15B     HL       0.250000       1.00800           0
     26929 MEMB     238      POPC     H15C     HL       0.250000       1.00800           0
     26930 MEMB     238      POPC     C11      CTL2    -0.800000E-01   12.0110           0
     26931 MEMB     238      POPC     H11A     HAL2     0.900000E-01   1.00800           0
     26932 MEMB     238      POPC     H11B     HAL2     0.900000E-01   1.00800           0
     26933 MEMB     238      POPC     P        PL        1.50000       30.9740           0
     26934 MEMB     238      POPC     O13      O2L     -0.780000       15.9994           0
     26935 MEMB     238      POPC     O14      O2L     -0.780000       15.9994           0
     26936 MEMB     238      POPC     O12      OSLP    -0.570000       15.9994           0
     26937 MEMB     238      POPC     O11      OSLP    -0.570000       15.9994           0
     26938 MEMB     238      POPC     C1       CTL2    -0.800000E-01   12.0110           0
     26939 MEMB     238      POPC     HA       HAL2     0.900000E-01   1.00800           0
     26940 MEMB     238      POPC     HB       HAL2     0.900000E-01   1.00800           0
     26941 MEMB     238      POPC     C2       CTL1     0.170000       12.0110           0
     26942 MEMB     238      POPC     HS       HAL1     0.900000E-01   1.00800           0
     26943 MEMB     238      POPC     O21      OSL     -0.490000       15.9994           0
     26944 MEMB     238      POPC     C21      CL       0.900000       12.0110           0
     26945 MEMB     238      POPC     O22      OBL     -0.630000       15.9994           0
     26946 MEMB     238      POPC     C22      CTL2    -0.220000       12.0110           0
     26947 MEMB     238      POPC     H2R      HAL2     0.900000E-01   1.00800           0
     26948 MEMB     238      POPC     H2S      HAL2     0.900000E-01   1.00800           0
     26949 MEMB     238      POPC     C3       CTL2     0.800000E-01   12.0110           0
     26950 MEMB     238      POPC     HX       HAL2     0.900000E-01   1.00800           0
     26951 MEMB     238      POPC     HY       HAL2     0.900000E-01   1.00800           0
     26952 MEMB     238      POPC     O31      OSL     -0.490000       15.9994           0
     26953 MEMB     238      POPC     C31      CL       0.900000       12.0110           0
     26954 MEMB     238      POPC     O32      OBL     -0.630000       15.9994           0
     26955 MEMB     238      POPC     C32      CTL2    -0.220000       12.0110           0
     26956 MEMB     238      POPC     H2X      HAL2     0.900000E-01   1.00800           0
     26957 MEMB     238      POPC     H2Y      HAL2     0.900000E-01   1.00800           0
     26958 MEMB     238      POPC     C23      CTL2    -0.180000       12.0110           0
     26959 MEMB     238      POPC     H3R      HAL2     0.900000E-01   1.00800           0
     26960 MEMB     238      POPC     H3S      HAL2     0.900000E-01   1.00800           0
     26961 MEMB     238      POPC     C24      CTL2    -0.180000       12.0110           0
     26962 MEMB     238      POPC     H4R      HAL2     0.900000E-01   1.00800           0
     26963 MEMB     238      POPC     H4S      HAL2     0.900000E-01   1.00800           0
     26964 MEMB     238      POPC     C25      CTL2    -0.180000       12.0110           0
     26965 MEMB     238      POPC     H5R      HAL2     0.900000E-01   1.00800           0
     26966 MEMB     238      POPC     H5S      HAL2     0.900000E-01   1.00800           0
     26967 MEMB     238      POPC     C26      CTL2    -0.180000       12.0110           0
     26968 MEMB     238      POPC     H6R      HAL2     0.900000E-01   1.00800           0
     26969 MEMB     238      POPC     H6S      HAL2     0.900000E-01   1.00800           0
     26970 MEMB     238      POPC     C27      CTL2    -0.180000       12.0110           0
     26971 MEMB     238      POPC     H7R      HAL2     0.900000E-01   1.00800           0
     26972 MEMB     238      POPC     H7S      HAL2     0.900000E-01   1.00800           0
     26973 MEMB     238      POPC     C28      CTL2    -0.180000       12.0110           0
     26974 MEMB     238      POPC     H8R      HAL2     0.900000E-01   1.00800           0
     26975 MEMB     238      POPC     H8S      HAL2     0.900000E-01   1.00800           0
     26976 MEMB     238      POPC     C29      CEL1    -0.150000       12.0110           0
     26977 MEMB     238      POPC     H91      HEL1     0.150000       1.00800           0
     26978 MEMB     238      POPC     C210     CEL1    -0.150000       12.0110           0
     26979 MEMB     238      POPC     H101     HEL1     0.150000       1.00800           0
     26980 MEMB     238      POPC     C211     CTL2    -0.180000       12.0110           0
     26981 MEMB     238      POPC     H11R     HAL2     0.900000E-01   1.00800           0
     26982 MEMB     238      POPC     H11S     HAL2     0.900000E-01   1.00800           0
     26983 MEMB     238      POPC     C212     CTL2    -0.180000       12.0110           0
     26984 MEMB     238      POPC     H12R     HAL2     0.900000E-01   1.00800           0
     26985 MEMB     238      POPC     H12S     HAL2     0.900000E-01   1.00800           0
     26986 MEMB     238      POPC     C213     CTL2    -0.180000       12.0110           0
     26987 MEMB     238      POPC     H13R     HAL2     0.900000E-01   1.00800           0
     26988 MEMB     238      POPC     H13S     HAL2     0.900000E-01   1.00800           0
     26989 MEMB     238      POPC     C214     CTL2    -0.180000       12.0110           0
     26990 MEMB     238      POPC     H14R     HAL2     0.900000E-01   1.00800           0
     26991 MEMB     238      POPC     H14S     HAL2     0.900000E-01   1.00800           0
     26992 MEMB     238      POPC     C215     CTL2    -0.180000       12.0110           0
     26993 MEMB     238      POPC     H15R     HAL2     0.900000E-01   1.00800           0
     26994 MEMB     238      POPC     H15S     HAL2     0.900000E-01   1.00800           0
     26995 MEMB     238      POPC     C216     CTL2    -0.180000       12.0110           0
     26996 MEMB     238      POPC     H16R     HAL2     0.900000E-01   1.00800           0
     26997 MEMB     238      POPC     H16S     HAL2     0.900000E-01   1.00800           0
     26998 MEMB     238      POPC     C217     CTL2    -0.180000       12.0110           0
     26999 MEMB     238      POPC     H17R     HAL2     0.900000E-01   1.00800           0
     27000 MEMB     238      POPC     H17S     HAL2     0.900000E-01   1.00800           0
     27001 MEMB     238      POPC     C218     CTL3    -0.270000       12.0110           0
     27002 MEMB     238      POPC     H18R     HAL3     0.900000E-01   1.00800           0
     27003 MEMB     238      POPC     H18S     HAL3     0.900000E-01   1.00800           0
     27004 MEMB     238      POPC     H18T     HAL3     0.900000E-01   1.00800           0
     27005 MEMB     238      POPC     C33      CTL2    -0.180000       12.0110           0
     27006 MEMB     238      POPC     H3X      HAL2     0.900000E-01   1.00800           0
     27007 MEMB     238      POPC     H3Y      HAL2     0.900000E-01   1.00800           0
     27008 MEMB     238      POPC     C34      CTL2    -0.180000       12.0110           0
     27009 MEMB     238      POPC     H4X      HAL2     0.900000E-01   1.00800           0
     27010 MEMB     238      POPC     H4Y      HAL2     0.900000E-01   1.00800           0
     27011 MEMB     238      POPC     C35      CTL2    -0.180000       12.0110           0
     27012 MEMB     238      POPC     H5X      HAL2     0.900000E-01   1.00800           0
     27013 MEMB     238      POPC     H5Y      HAL2     0.900000E-01   1.00800           0
     27014 MEMB     238      POPC     C36      CTL2    -0.180000       12.0110           0
     27015 MEMB     238      POPC     H6X      HAL2     0.900000E-01   1.00800           0
     27016 MEMB     238      POPC     H6Y      HAL2     0.900000E-01   1.00800           0
     27017 MEMB     238      POPC     C37      CTL2    -0.180000       12.0110           0
     27018 MEMB     238      POPC     H7X      HAL2     0.900000E-01   1.00800           0
     27019 MEMB     238      POPC     H7Y      HAL2     0.900000E-01   1.00800           0
     27020 MEMB     238      POPC     C38      CTL2    -0.180000       12.0110           0
     27021 MEMB     238      POPC     H8X      HAL2     0.900000E-01   1.00800           0
     27022 MEMB     238      POPC     H8Y      HAL2     0.900000E-01   1.00800           0
     27023 MEMB     238      POPC     C39      CTL2    -0.180000       12.0110           0
     27024 MEMB     238      POPC     H9X      HAL2     0.900000E-01   1.00800           0
     27025 MEMB     238      POPC     H9Y      HAL2     0.900000E-01   1.00800           0
     27026 MEMB     238      POPC     C310     CTL2    -0.180000       12.0110           0
     27027 MEMB     238      POPC     H10X     HAL2     0.900000E-01   1.00800           0
     27028 MEMB     238      POPC     H10Y     HAL2     0.900000E-01   1.00800           0
     27029 MEMB     238      POPC     C311     CTL2    -0.180000       12.0110           0
     27030 MEMB     238      POPC     H11X     HAL2     0.900000E-01   1.00800           0
     27031 MEMB     238      POPC     H11Y     HAL2     0.900000E-01   1.00800           0
     27032 MEMB     238      POPC     C312     CTL2    -0.180000       12.0110           0
     27033 MEMB     238      POPC     H12X     HAL2     0.900000E-01   1.00800           0
     27034 MEMB     238      POPC     H12Y     HAL2     0.900000E-01   1.00800           0
     27035 MEMB     238      POPC     C313     CTL2    -0.180000       12.0110           0
     27036 MEMB     238      POPC     H13X     HAL2     0.900000E-01   1.00800           0
     27037 MEMB     238      POPC     H13Y     HAL2     0.900000E-01   1.00800           0
     27038 MEMB     238      POPC     C314     CTL2    -0.180000       12.0110           0
     27039 MEMB     238      POPC     H14X     HAL2     0.900000E-01   1.00800           0
     27040 MEMB     238      POPC     H14Y     HAL2     0.900000E-01   1.00800           0
     27041 MEMB     238      POPC     C315     CTL2    -0.180000       12.0110           0
     27042 MEMB     238      POPC     H15X     HAL2     0.900000E-01   1.00800           0
     27043 MEMB     238      POPC     H15Y     HAL2     0.900000E-01   1.00800           0
     27044 MEMB     238      POPC     C316     CTL3    -0.270000       12.0110           0
     27045 MEMB     238      POPC     H16X     HAL3     0.900000E-01   1.00800           0
     27046 MEMB     238      POPC     H16Y     HAL3     0.900000E-01   1.00800           0
     27047 MEMB     238      POPC     H16Z     HAL3     0.900000E-01   1.00800           0
     27048 MEMB     239      POPC     N        NTL     -0.600000       14.0070           0
     27049 MEMB     239      POPC     C12      CTL2    -0.100000       12.0110           0
     27050 MEMB     239      POPC     H12A     HL       0.250000       1.00800           0
     27051 MEMB     239      POPC     H12B     HL       0.250000       1.00800           0
     27052 MEMB     239      POPC     C13      CTL5    -0.350000       12.0110           0
     27053 MEMB     239      POPC     H13A     HL       0.250000       1.00800           0
     27054 MEMB     239      POPC     H13B     HL       0.250000       1.00800           0
     27055 MEMB     239      POPC     H13C     HL       0.250000       1.00800           0
     27056 MEMB     239      POPC     C14      CTL5    -0.350000       12.0110           0
     27057 MEMB     239      POPC     H14A     HL       0.250000       1.00800           0
     27058 MEMB     239      POPC     H14B     HL       0.250000       1.00800           0
     27059 MEMB     239      POPC     H14C     HL       0.250000       1.00800           0
     27060 MEMB     239      POPC     C15      CTL5    -0.350000       12.0110           0
     27061 MEMB     239      POPC     H15A     HL       0.250000       1.00800           0
     27062 MEMB     239      POPC     H15B     HL       0.250000       1.00800           0
     27063 MEMB     239      POPC     H15C     HL       0.250000       1.00800           0
     27064 MEMB     239      POPC     C11      CTL2    -0.800000E-01   12.0110           0
     27065 MEMB     239      POPC     H11A     HAL2     0.900000E-01   1.00800           0
     27066 MEMB     239      POPC     H11B     HAL2     0.900000E-01   1.00800           0
     27067 MEMB     239      POPC     P        PL        1.50000       30.9740           0
     27068 MEMB     239      POPC     O13      O2L     -0.780000       15.9994           0
     27069 MEMB     239      POPC     O14      O2L     -0.780000       15.9994           0
     27070 MEMB     239      POPC     O12      OSLP    -0.570000       15.9994           0
     27071 MEMB     239      POPC     O11      OSLP    -0.570000       15.9994           0
     27072 MEMB     239      POPC     C1       CTL2    -0.800000E-01   12.0110           0
     27073 MEMB     239      POPC     HA       HAL2     0.900000E-01   1.00800           0
     27074 MEMB     239      POPC     HB       HAL2     0.900000E-01   1.00800           0
     27075 MEMB     239      POPC     C2       CTL1     0.170000       12.0110           0
     27076 MEMB     239      POPC     HS       HAL1     0.900000E-01   1.00800           0
     27077 MEMB     239      POPC     O21      OSL     -0.490000       15.9994           0
     27078 MEMB     239      POPC     C21      CL       0.900000       12.0110           0
     27079 MEMB     239      POPC     O22      OBL     -0.630000       15.9994           0
     27080 MEMB     239      POPC     C22      CTL2    -0.220000       12.0110           0
     27081 MEMB     239      POPC     H2R      HAL2     0.900000E-01   1.00800           0
     27082 MEMB     239      POPC     H2S      HAL2     0.900000E-01   1.00800           0
     27083 MEMB     239      POPC     C3       CTL2     0.800000E-01   12.0110           0
     27084 MEMB     239      POPC     HX       HAL2     0.900000E-01   1.00800           0
     27085 MEMB     239      POPC     HY       HAL2     0.900000E-01   1.00800           0
     27086 MEMB     239      POPC     O31      OSL     -0.490000       15.9994           0
     27087 MEMB     239      POPC     C31      CL       0.900000       12.0110           0
     27088 MEMB     239      POPC     O32      OBL     -0.630000       15.9994           0
     27089 MEMB     239      POPC     C32      CTL2    -0.220000       12.0110           0
     27090 MEMB     239      POPC     H2X      HAL2     0.900000E-01   1.00800           0
     27091 MEMB     239      POPC     H2Y      HAL2     0.900000E-01   1.00800           0
     27092 MEMB     239      POPC     C23      CTL2    -0.180000       12.0110           0
     27093 MEMB     239      POPC     H3R      HAL2     0.900000E-01   1.00800           0
     27094 MEMB     239      POPC     H3S      HAL2     0.900000E-01   1.00800           0
     27095 MEMB     239      POPC     C24      CTL2    -0.180000       12.0110           0
     27096 MEMB     239      POPC     H4R      HAL2     0.900000E-01   1.00800           0
     27097 MEMB     239      POPC     H4S      HAL2     0.900000E-01   1.00800           0
     27098 MEMB     239      POPC     C25      CTL2    -0.180000       12.0110           0
     27099 MEMB     239      POPC     H5R      HAL2     0.900000E-01   1.00800           0
     27100 MEMB     239      POPC     H5S      HAL2     0.900000E-01   1.00800           0
     27101 MEMB     239      POPC     C26      CTL2    -0.180000       12.0110           0
     27102 MEMB     239      POPC     H6R      HAL2     0.900000E-01   1.00800           0
     27103 MEMB     239      POPC     H6S      HAL2     0.900000E-01   1.00800           0
     27104 MEMB     239      POPC     C27      CTL2    -0.180000       12.0110           0
     27105 MEMB     239      POPC     H7R      HAL2     0.900000E-01   1.00800           0
     27106 MEMB     239      POPC     H7S      HAL2     0.900000E-01   1.00800           0
     27107 MEMB     239      POPC     C28      CTL2    -0.180000       12.0110           0
     27108 MEMB     239      POPC     H8R      HAL2     0.900000E-01   1.00800           0
     27109 MEMB     239      POPC     H8S      HAL2     0.900000E-01   1.00800           0
     27110 MEMB     239      POPC     C29      CEL1    -0.150000       12.0110           0
     27111 MEMB     239      POPC     H91      HEL1     0.150000       1.00800           0
     27112 MEMB     239      POPC     C210     CEL1    -0.150000       12.0110           0
     27113 MEMB     239      POPC     H101     HEL1     0.150000       1.00800           0
     27114 MEMB     239      POPC     C211     CTL2    -0.180000       12.0110           0
     27115 MEMB     239      POPC     H11R     HAL2     0.900000E-01   1.00800           0
     27116 MEMB     239      POPC     H11S     HAL2     0.900000E-01   1.00800           0
     27117 MEMB     239      POPC     C212     CTL2    -0.180000       12.0110           0
     27118 MEMB     239      POPC     H12R     HAL2     0.900000E-01   1.00800           0
     27119 MEMB     239      POPC     H12S     HAL2     0.900000E-01   1.00800           0
     27120 MEMB     239      POPC     C213     CTL2    -0.180000       12.0110           0
     27121 MEMB     239      POPC     H13R     HAL2     0.900000E-01   1.00800           0
     27122 MEMB     239      POPC     H13S     HAL2     0.900000E-01   1.00800           0
     27123 MEMB     239      POPC     C214     CTL2    -0.180000       12.0110           0
     27124 MEMB     239      POPC     H14R     HAL2     0.900000E-01   1.00800           0
     27125 MEMB     239      POPC     H14S     HAL2     0.900000E-01   1.00800           0
     27126 MEMB     239      POPC     C215     CTL2    -0.180000       12.0110           0
     27127 MEMB     239      POPC     H15R     HAL2     0.900000E-01   1.00800           0
     27128 MEMB     239      POPC     H15S     HAL2     0.900000E-01   1.00800           0
     27129 MEMB     239      POPC     C216     CTL2    -0.180000       12.0110           0
     27130 MEMB     239      POPC     H16R     HAL2     0.900000E-01   1.00800           0
     27131 MEMB     239      POPC     H16S     HAL2     0.900000E-01   1.00800           0
     27132 MEMB     239      POPC     C217     CTL2    -0.180000       12.0110           0
     27133 MEMB     239      POPC     H17R     HAL2     0.900000E-01   1.00800           0
     27134 MEMB     239      POPC     H17S     HAL2     0.900000E-01   1.00800           0
     27135 MEMB     239      POPC     C218     CTL3    -0.270000       12.0110           0
     27136 MEMB     239      POPC     H18R     HAL3     0.900000E-01   1.00800           0
     27137 MEMB     239      POPC     H18S     HAL3     0.900000E-01   1.00800           0
     27138 MEMB     239      POPC     H18T     HAL3     0.900000E-01   1.00800           0
     27139 MEMB     239      POPC     C33      CTL2    -0.180000       12.0110           0
     27140 MEMB     239      POPC     H3X      HAL2     0.900000E-01   1.00800           0
     27141 MEMB     239      POPC     H3Y      HAL2     0.900000E-01   1.00800           0
     27142 MEMB     239      POPC     C34      CTL2    -0.180000       12.0110           0
     27143 MEMB     239      POPC     H4X      HAL2     0.900000E-01   1.00800           0
     27144 MEMB     239      POPC     H4Y      HAL2     0.900000E-01   1.00800           0
     27145 MEMB     239      POPC     C35      CTL2    -0.180000       12.0110           0
     27146 MEMB     239      POPC     H5X      HAL2     0.900000E-01   1.00800           0
     27147 MEMB     239      POPC     H5Y      HAL2     0.900000E-01   1.00800           0
     27148 MEMB     239      POPC     C36      CTL2    -0.180000       12.0110           0
     27149 MEMB     239      POPC     H6X      HAL2     0.900000E-01   1.00800           0
     27150 MEMB     239      POPC     H6Y      HAL2     0.900000E-01   1.00800           0
     27151 MEMB     239      POPC     C37      CTL2    -0.180000       12.0110           0
     27152 MEMB     239      POPC     H7X      HAL2     0.900000E-01   1.00800           0
     27153 MEMB     239      POPC     H7Y      HAL2     0.900000E-01   1.00800           0
     27154 MEMB     239      POPC     C38      CTL2    -0.180000       12.0110           0
     27155 MEMB     239      POPC     H8X      HAL2     0.900000E-01   1.00800           0
     27156 MEMB     239      POPC     H8Y      HAL2     0.900000E-01   1.00800           0
     27157 MEMB     239      POPC     C39      CTL2    -0.180000       12.0110           0
     27158 MEMB     239      POPC     H9X      HAL2     0.900000E-01   1.00800           0
     27159 MEMB     239      POPC     H9Y      HAL2     0.900000E-01   1.00800           0
     27160 MEMB     239      POPC     C310     CTL2    -0.180000       12.0110           0
     27161 MEMB     239      POPC     H10X     HAL2     0.900000E-01   1.00800           0
     27162 MEMB     239      POPC     H10Y     HAL2     0.900000E-01   1.00800           0
     27163 MEMB     239      POPC     C311     CTL2    -0.180000       12.0110           0
     27164 MEMB     239      POPC     H11X     HAL2     0.900000E-01   1.00800           0
     27165 MEMB     239      POPC     H11Y     HAL2     0.900000E-01   1.00800           0
     27166 MEMB     239      POPC     C312     CTL2    -0.180000       12.0110           0
     27167 MEMB     239      POPC     H12X     HAL2     0.900000E-01   1.00800           0
     27168 MEMB     239      POPC     H12Y     HAL2     0.900000E-01   1.00800           0
     27169 MEMB     239      POPC     C313     CTL2    -0.180000       12.0110           0
     27170 MEMB     239      POPC     H13X     HAL2     0.900000E-01   1.00800           0
     27171 MEMB     239      POPC     H13Y     HAL2     0.900000E-01   1.00800           0
     27172 MEMB     239      POPC     C314     CTL2    -0.180000       12.0110           0
     27173 MEMB     239      POPC     H14X     HAL2     0.900000E-01   1.00800           0
     27174 MEMB     239      POPC     H14Y     HAL2     0.900000E-01   1.00800           0
     27175 MEMB     239      POPC     C315     CTL2    -0.180000       12.0110           0
     27176 MEMB     239      POPC     H15X     HAL2     0.900000E-01   1.00800           0
     27177 MEMB     239      POPC     H15Y     HAL2     0.900000E-01   1.00800           0
     27178 MEMB     239      POPC     C316     CTL3    -0.270000       12.0110           0
     27179 MEMB     239      POPC     H16X     HAL3     0.900000E-01   1.00800           0
     27180 MEMB     239      POPC     H16Y     HAL3     0.900000E-01   1.00800           0
     27181 MEMB     239      POPC     H16Z     HAL3     0.900000E-01   1.00800           0
     27182 MEMB     240      POPC     N        NTL     -0.600000       14.0070           0
     27183 MEMB     240      POPC     C12      CTL2    -0.100000       12.0110           0
     27184 MEMB     240      POPC     H12A     HL       0.250000       1.00800           0
     27185 MEMB     240      POPC     H12B     HL       0.250000       1.00800           0
     27186 MEMB     240      POPC     C13      CTL5    -0.350000       12.0110           0
     27187 MEMB     240      POPC     H13A     HL       0.250000       1.00800           0
     27188 MEMB     240      POPC     H13B     HL       0.250000       1.00800           0
     27189 MEMB     240      POPC     H13C     HL       0.250000       1.00800           0
     27190 MEMB     240      POPC     C14      CTL5    -0.350000       12.0110           0
     27191 MEMB     240      POPC     H14A     HL       0.250000       1.00800           0
     27192 MEMB     240      POPC     H14B     HL       0.250000       1.00800           0
     27193 MEMB     240      POPC     H14C     HL       0.250000       1.00800           0
     27194 MEMB     240      POPC     C15      CTL5    -0.350000       12.0110           0
     27195 MEMB     240      POPC     H15A     HL       0.250000       1.00800           0
     27196 MEMB     240      POPC     H15B     HL       0.250000       1.00800           0
     27197 MEMB     240      POPC     H15C     HL       0.250000       1.00800           0
     27198 MEMB     240      POPC     C11      CTL2    -0.800000E-01   12.0110           0
     27199 MEMB     240      POPC     H11A     HAL2     0.900000E-01   1.00800           0
     27200 MEMB     240      POPC     H11B     HAL2     0.900000E-01   1.00800           0
     27201 MEMB     240      POPC     P        PL        1.50000       30.9740           0
     27202 MEMB     240      POPC     O13      O2L     -0.780000       15.9994           0
     27203 MEMB     240      POPC     O14      O2L     -0.780000       15.9994           0
     27204 MEMB     240      POPC     O12      OSLP    -0.570000       15.9994           0
     27205 MEMB     240      POPC     O11      OSLP    -0.570000       15.9994           0
     27206 MEMB     240      POPC     C1       CTL2    -0.800000E-01   12.0110           0
     27207 MEMB     240      POPC     HA       HAL2     0.900000E-01   1.00800           0
     27208 MEMB     240      POPC     HB       HAL2     0.900000E-01   1.00800           0
     27209 MEMB     240      POPC     C2       CTL1     0.170000       12.0110           0
     27210 MEMB     240      POPC     HS       HAL1     0.900000E-01   1.00800           0
     27211 MEMB     240      POPC     O21      OSL     -0.490000       15.9994           0
     27212 MEMB     240      POPC     C21      CL       0.900000       12.0110           0
     27213 MEMB     240      POPC     O22      OBL     -0.630000       15.9994           0
     27214 MEMB     240      POPC     C22      CTL2    -0.220000       12.0110           0
     27215 MEMB     240      POPC     H2R      HAL2     0.900000E-01   1.00800           0
     27216 MEMB     240      POPC     H2S      HAL2     0.900000E-01   1.00800           0
     27217 MEMB     240      POPC     C3       CTL2     0.800000E-01   12.0110           0
     27218 MEMB     240      POPC     HX       HAL2     0.900000E-01   1.00800           0
     27219 MEMB     240      POPC     HY       HAL2     0.900000E-01   1.00800           0
     27220 MEMB     240      POPC     O31      OSL     -0.490000       15.9994           0
     27221 MEMB     240      POPC     C31      CL       0.900000       12.0110           0
     27222 MEMB     240      POPC     O32      OBL     -0.630000       15.9994           0
     27223 MEMB     240      POPC     C32      CTL2    -0.220000       12.0110           0
     27224 MEMB     240      POPC     H2X      HAL2     0.900000E-01   1.00800           0
     27225 MEMB     240      POPC     H2Y      HAL2     0.900000E-01   1.00800           0
     27226 MEMB     240      POPC     C23      CTL2    -0.180000       12.0110           0
     27227 MEMB     240      POPC     H3R      HAL2     0.900000E-01   1.00800           0
     27228 MEMB     240      POPC     H3S      HAL2     0.900000E-01   1.00800           0
     27229 MEMB     240      POPC     C24      CTL2    -0.180000       12.0110           0
     27230 MEMB     240      POPC     H4R      HAL2     0.900000E-01   1.00800           0
     27231 MEMB     240      POPC     H4S      HAL2     0.900000E-01   1.00800           0
     27232 MEMB     240      POPC     C25      CTL2    -0.180000       12.0110           0
     27233 MEMB     240      POPC     H5R      HAL2     0.900000E-01   1.00800           0
     27234 MEMB     240      POPC     H5S      HAL2     0.900000E-01   1.00800           0
     27235 MEMB     240      POPC     C26      CTL2    -0.180000       12.0110           0
     27236 MEMB     240      POPC     H6R      HAL2     0.900000E-01   1.00800           0
     27237 MEMB     240      POPC     H6S      HAL2     0.900000E-01   1.00800           0
     27238 MEMB     240      POPC     C27      CTL2    -0.180000       12.0110           0
     27239 MEMB     240      POPC     H7R      HAL2     0.900000E-01   1.00800           0
     27240 MEMB     240      POPC     H7S      HAL2     0.900000E-01   1.00800           0
     27241 MEMB     240      POPC     C28      CTL2    -0.180000       12.0110           0
     27242 MEMB     240      POPC     H8R      HAL2     0.900000E-01   1.00800           0
     27243 MEMB     240      POPC     H8S      HAL2     0.900000E-01   1.00800           0
     27244 MEMB     240      POPC     C29      CEL1    -0.150000       12.0110           0
     27245 MEMB     240      POPC     H91      HEL1     0.150000       1.00800           0
     27246 MEMB     240      POPC     C210     CEL1    -0.150000       12.0110           0
     27247 MEMB     240      POPC     H101     HEL1     0.150000       1.00800           0
     27248 MEMB     240      POPC     C211     CTL2    -0.180000       12.0110           0
     27249 MEMB     240      POPC     H11R     HAL2     0.900000E-01   1.00800           0
     27250 MEMB     240      POPC     H11S     HAL2     0.900000E-01   1.00800           0
     27251 MEMB     240      POPC     C212     CTL2    -0.180000       12.0110           0
     27252 MEMB     240      POPC     H12R     HAL2     0.900000E-01   1.00800           0
     27253 MEMB     240      POPC     H12S     HAL2     0.900000E-01   1.00800           0
     27254 MEMB     240      POPC     C213     CTL2    -0.180000       12.0110           0
     27255 MEMB     240      POPC     H13R     HAL2     0.900000E-01   1.00800           0
     27256 MEMB     240      POPC     H13S     HAL2     0.900000E-01   1.00800           0
     27257 MEMB     240      POPC     C214     CTL2    -0.180000       12.0110           0
     27258 MEMB     240      POPC     H14R     HAL2     0.900000E-01   1.00800           0
     27259 MEMB     240      POPC     H14S     HAL2     0.900000E-01   1.00800           0
     27260 MEMB     240      POPC     C215     CTL2    -0.180000       12.0110           0
     27261 MEMB     240      POPC     H15R     HAL2     0.900000E-01   1.00800           0
     27262 MEMB     240      POPC     H15S     HAL2     0.900000E-01   1.00800           0
     27263 MEMB     240      POPC     C216     CTL2    -0.180000       12.0110           0
     27264 MEMB     240      POPC     H16R     HAL2     0.900000E-01   1.00800           0
     27265 MEMB     240      POPC     H16S     HAL2     0.900000E-01   1.00800           0
     27266 MEMB     240      POPC     C217     CTL2    -0.180000       12.0110           0
     27267 MEMB     240      POPC     H17R     HAL2     0.900000E-01   1.00800           0
     27268 MEMB     240      POPC     H17S     HAL2     0.900000E-01   1.00800           0
     27269 MEMB     240      POPC     C218     CTL3    -0.270000       12.0110           0
     27270 MEMB     240      POPC     H18R     HAL3     0.900000E-01   1.00800           0
     27271 MEMB     240      POPC     H18S     HAL3     0.900000E-01   1.00800           0
     27272 MEMB     240      POPC     H18T     HAL3     0.900000E-01   1.00800           0
     27273 MEMB     240      POPC     C33      CTL2    -0.180000       12.0110           0
     27274 MEMB     240      POPC     H3X      HAL2     0.900000E-01   1.00800           0
     27275 MEMB     240      POPC     H3Y      HAL2     0.900000E-01   1.00800           0
     27276 MEMB     240      POPC     C34      CTL2    -0.180000       12.0110           0
     27277 MEMB     240      POPC     H4X      HAL2     0.900000E-01   1.00800           0
     27278 MEMB     240      POPC     H4Y      HAL2     0.900000E-01   1.00800           0
     27279 MEMB     240      POPC     C35      CTL2    -0.180000       12.0110           0
     27280 MEMB     240      POPC     H5X      HAL2     0.900000E-01   1.00800           0
     27281 MEMB     240      POPC     H5Y      HAL2     0.900000E-01   1.00800           0
     27282 MEMB     240      POPC     C36      CTL2    -0.180000       12.0110           0
     27283 MEMB     240      POPC     H6X      HAL2     0.900000E-01   1.00800           0
     27284 MEMB     240      POPC     H6Y      HAL2     0.900000E-01   1.00800           0
     27285 MEMB     240      POPC     C37      CTL2    -0.180000       12.0110           0
     27286 MEMB     240      POPC     H7X      HAL2     0.900000E-01   1.00800           0
     27287 MEMB     240      POPC     H7Y      HAL2     0.900000E-01   1.00800           0
     27288 MEMB     240      POPC     C38      CTL2    -0.180000       12.0110           0
     27289 MEMB     240      POPC     H8X      HAL2     0.900000E-01   1.00800           0
     27290 MEMB     240      POPC     H8Y      HAL2     0.900000E-01   1.00800           0
     27291 MEMB     240      POPC     C39      CTL2    -0.180000       12.0110           0
     27292 MEMB     240      POPC     H9X      HAL2     0.900000E-01   1.00800           0
     27293 MEMB     240      POPC     H9Y      HAL2     0.900000E-01   1.00800           0
     27294 MEMB     240      POPC     C310     CTL2    -0.180000       12.0110           0
     27295 MEMB     240      POPC     H10X     HAL2     0.900000E-01   1.00800           0
     27296 MEMB     240      POPC     H10Y     HAL2     0.900000E-01   1.00800           0
     27297 MEMB     240      POPC     C311     CTL2    -0.180000       12.0110           0
     27298 MEMB     240      POPC     H11X     HAL2     0.900000E-01   1.00800           0
     27299 MEMB     240      POPC     H11Y     HAL2     0.900000E-01   1.00800           0
     27300 MEMB     240      POPC     C312     CTL2    -0.180000       12.0110           0
     27301 MEMB     240      POPC     H12X     HAL2     0.900000E-01   1.00800           0
     27302 MEMB     240      POPC     H12Y     HAL2     0.900000E-01   1.00800           0
     27303 MEMB     240      POPC     C313     CTL2    -0.180000       12.0110           0
     27304 MEMB     240      POPC     H13X     HAL2     0.900000E-01   1.00800           0
     27305 MEMB     240      POPC     H13Y     HAL2     0.900000E-01   1.00800           0
     27306 MEMB     240      POPC     C314     CTL2    -0.180000       12.0110           0
     27307 MEMB     240      POPC     H14X     HAL2     0.900000E-01   1.00800           0
     27308 MEMB     240      POPC     H14Y     HAL2     0.900000E-01   1.00800           0
     27309 MEMB     240      POPC     C315     CTL2    -0.180000       12.0110           0
     27310 MEMB     240      POPC     H15X     HAL2     0.900000E-01   1.00800           0
     27311 MEMB     240      POPC     H15Y     HAL2     0.900000E-01   1.00800           0
     27312 MEMB     240      POPC     C316     CTL3    -0.270000       12.0110           0
     27313 MEMB     240      POPC     H16X     HAL3     0.900000E-01   1.00800           0
     27314 MEMB     240      POPC     H16Y     HAL3     0.900000E-01   1.00800           0
     27315 MEMB     240      POPC     H16Z     HAL3     0.900000E-01   1.00800           0
     27316 MEMB     241      POPC     N        NTL     -0.600000       14.0070           0
     27317 MEMB     241      POPC     C12      CTL2    -0.100000       12.0110           0
     27318 MEMB     241      POPC     H12A     HL       0.250000       1.00800           0
     27319 MEMB     241      POPC     H12B     HL       0.250000       1.00800           0
     27320 MEMB     241      POPC     C13      CTL5    -0.350000       12.0110           0
     27321 MEMB     241      POPC     H13A     HL       0.250000       1.00800           0
     27322 MEMB     241      POPC     H13B     HL       0.250000       1.00800           0
     27323 MEMB     241      POPC     H13C     HL       0.250000       1.00800           0
     27324 MEMB     241      POPC     C14      CTL5    -0.350000       12.0110           0
     27325 MEMB     241      POPC     H14A     HL       0.250000       1.00800           0
     27326 MEMB     241      POPC     H14B     HL       0.250000       1.00800           0
     27327 MEMB     241      POPC     H14C     HL       0.250000       1.00800           0
     27328 MEMB     241      POPC     C15      CTL5    -0.350000       12.0110           0
     27329 MEMB     241      POPC     H15A     HL       0.250000       1.00800           0
     27330 MEMB     241      POPC     H15B     HL       0.250000       1.00800           0
     27331 MEMB     241      POPC     H15C     HL       0.250000       1.00800           0
     27332 MEMB     241      POPC     C11      CTL2    -0.800000E-01   12.0110           0
     27333 MEMB     241      POPC     H11A     HAL2     0.900000E-01   1.00800           0
     27334 MEMB     241      POPC     H11B     HAL2     0.900000E-01   1.00800           0
     27335 MEMB     241      POPC     P        PL        1.50000       30.9740           0
     27336 MEMB     241      POPC     O13      O2L     -0.780000       15.9994           0
     27337 MEMB     241      POPC     O14      O2L     -0.780000       15.9994           0
     27338 MEMB     241      POPC     O12      OSLP    -0.570000       15.9994           0
     27339 MEMB     241      POPC     O11      OSLP    -0.570000       15.9994           0
     27340 MEMB     241      POPC     C1       CTL2    -0.800000E-01   12.0110           0
     27341 MEMB     241      POPC     HA       HAL2     0.900000E-01   1.00800           0
     27342 MEMB     241      POPC     HB       HAL2     0.900000E-01   1.00800           0
     27343 MEMB     241      POPC     C2       CTL1     0.170000       12.0110           0
     27344 MEMB     241      POPC     HS       HAL1     0.900000E-01   1.00800           0
     27345 MEMB     241      POPC     O21      OSL     -0.490000       15.9994           0
     27346 MEMB     241      POPC     C21      CL       0.900000       12.0110           0
     27347 MEMB     241      POPC     O22      OBL     -0.630000       15.9994           0
     27348 MEMB     241      POPC     C22      CTL2    -0.220000       12.0110           0
     27349 MEMB     241      POPC     H2R      HAL2     0.900000E-01   1.00800           0
     27350 MEMB     241      POPC     H2S      HAL2     0.900000E-01   1.00800           0
     27351 MEMB     241      POPC     C3       CTL2     0.800000E-01   12.0110           0
     27352 MEMB     241      POPC     HX       HAL2     0.900000E-01   1.00800           0
     27353 MEMB     241      POPC     HY       HAL2     0.900000E-01   1.00800           0
     27354 MEMB     241      POPC     O31      OSL     -0.490000       15.9994           0
     27355 MEMB     241      POPC     C31      CL       0.900000       12.0110           0
     27356 MEMB     241      POPC     O32      OBL     -0.630000       15.9994           0
     27357 MEMB     241      POPC     C32      CTL2    -0.220000       12.0110           0
     27358 MEMB     241      POPC     H2X      HAL2     0.900000E-01   1.00800           0
     27359 MEMB     241      POPC     H2Y      HAL2     0.900000E-01   1.00800           0
     27360 MEMB     241      POPC     C23      CTL2    -0.180000       12.0110           0
     27361 MEMB     241      POPC     H3R      HAL2     0.900000E-01   1.00800           0
     27362 MEMB     241      POPC     H3S      HAL2     0.900000E-01   1.00800           0
     27363 MEMB     241      POPC     C24      CTL2    -0.180000       12.0110           0
     27364 MEMB     241      POPC     H4R      HAL2     0.900000E-01   1.00800           0
     27365 MEMB     241      POPC     H4S      HAL2     0.900000E-01   1.00800           0
     27366 MEMB     241      POPC     C25      CTL2    -0.180000       12.0110           0
     27367 MEMB     241      POPC     H5R      HAL2     0.900000E-01   1.00800           0
     27368 MEMB     241      POPC     H5S      HAL2     0.900000E-01   1.00800           0
     27369 MEMB     241      POPC     C26      CTL2    -0.180000       12.0110           0
     27370 MEMB     241      POPC     H6R      HAL2     0.900000E-01   1.00800           0
     27371 MEMB     241      POPC     H6S      HAL2     0.900000E-01   1.00800           0
     27372 MEMB     241      POPC     C27      CTL2    -0.180000       12.0110           0
     27373 MEMB     241      POPC     H7R      HAL2     0.900000E-01   1.00800           0
     27374 MEMB     241      POPC     H7S      HAL2     0.900000E-01   1.00800           0
     27375 MEMB     241      POPC     C28      CTL2    -0.180000       12.0110           0
     27376 MEMB     241      POPC     H8R      HAL2     0.900000E-01   1.00800           0
     27377 MEMB     241      POPC     H8S      HAL2     0.900000E-01   1.00800           0
     27378 MEMB     241      POPC     C29      CEL1    -0.150000       12.0110           0
     27379 MEMB     241      POPC     H91      HEL1     0.150000       1.00800           0
     27380 MEMB     241      POPC     C210     CEL1    -0.150000       12.0110           0
     27381 MEMB     241      POPC     H101     HEL1     0.150000       1.00800           0
     27382 MEMB     241      POPC     C211     CTL2    -0.180000       12.0110           0
     27383 MEMB     241      POPC     H11R     HAL2     0.900000E-01   1.00800           0
     27384 MEMB     241      POPC     H11S     HAL2     0.900000E-01   1.00800           0
     27385 MEMB     241      POPC     C212     CTL2    -0.180000       12.0110           0
     27386 MEMB     241      POPC     H12R     HAL2     0.900000E-01   1.00800           0
     27387 MEMB     241      POPC     H12S     HAL2     0.900000E-01   1.00800           0
     27388 MEMB     241      POPC     C213     CTL2    -0.180000       12.0110           0
     27389 MEMB     241      POPC     H13R     HAL2     0.900000E-01   1.00800           0
     27390 MEMB     241      POPC     H13S     HAL2     0.900000E-01   1.00800           0
     27391 MEMB     241      POPC     C214     CTL2    -0.180000       12.0110           0
     27392 MEMB     241      POPC     H14R     HAL2     0.900000E-01   1.00800           0
     27393 MEMB     241      POPC     H14S     HAL2     0.900000E-01   1.00800           0
     27394 MEMB     241      POPC     C215     CTL2    -0.180000       12.0110           0
     27395 MEMB     241      POPC     H15R     HAL2     0.900000E-01   1.00800           0
     27396 MEMB     241      POPC     H15S     HAL2     0.900000E-01   1.00800           0
     27397 MEMB     241      POPC     C216     CTL2    -0.180000       12.0110           0
     27398 MEMB     241      POPC     H16R     HAL2     0.900000E-01   1.00800           0
     27399 MEMB     241      POPC     H16S     HAL2     0.900000E-01   1.00800           0
     27400 MEMB     241      POPC     C217     CTL2    -0.180000       12.0110           0
     27401 MEMB     241      POPC     H17R     HAL2     0.900000E-01   1.00800           0
     27402 MEMB     241      POPC     H17S     HAL2     0.900000E-01   1.00800           0
     27403 MEMB     241      POPC     C218     CTL3    -0.270000       12.0110           0
     27404 MEMB     241      POPC     H18R     HAL3     0.900000E-01   1.00800           0
     27405 MEMB     241      POPC     H18S     HAL3     0.900000E-01   1.00800           0
     27406 MEMB     241      POPC     H18T     HAL3     0.900000E-01   1.00800           0
     27407 MEMB     241      POPC     C33      CTL2    -0.180000       12.0110           0
     27408 MEMB     241      POPC     H3X      HAL2     0.900000E-01   1.00800           0
     27409 MEMB     241      POPC     H3Y      HAL2     0.900000E-01   1.00800           0
     27410 MEMB     241      POPC     C34      CTL2    -0.180000       12.0110           0
     27411 MEMB     241      POPC     H4X      HAL2     0.900000E-01   1.00800           0
     27412 MEMB     241      POPC     H4Y      HAL2     0.900000E-01   1.00800           0
     27413 MEMB     241      POPC     C35      CTL2    -0.180000       12.0110           0
     27414 MEMB     241      POPC     H5X      HAL2     0.900000E-01   1.00800           0
     27415 MEMB     241      POPC     H5Y      HAL2     0.900000E-01   1.00800           0
     27416 MEMB     241      POPC     C36      CTL2    -0.180000       12.0110           0
     27417 MEMB     241      POPC     H6X      HAL2     0.900000E-01   1.00800           0
     27418 MEMB     241      POPC     H6Y      HAL2     0.900000E-01   1.00800           0
     27419 MEMB     241      POPC     C37      CTL2    -0.180000       12.0110           0
     27420 MEMB     241      POPC     H7X      HAL2     0.900000E-01   1.00800           0
     27421 MEMB     241      POPC     H7Y      HAL2     0.900000E-01   1.00800           0
     27422 MEMB     241      POPC     C38      CTL2    -0.180000       12.0110           0
     27423 MEMB     241      POPC     H8X      HAL2     0.900000E-01   1.00800           0
     27424 MEMB     241      POPC     H8Y      HAL2     0.900000E-01   1.00800           0
     27425 MEMB     241      POPC     C39      CTL2    -0.180000       12.0110           0
     27426 MEMB     241      POPC     H9X      HAL2     0.900000E-01   1.00800           0
     27427 MEMB     241      POPC     H9Y      HAL2     0.900000E-01   1.00800           0
     27428 MEMB     241      POPC     C310     CTL2    -0.180000       12.0110           0
     27429 MEMB     241      POPC     H10X     HAL2     0.900000E-01   1.00800           0
     27430 MEMB     241      POPC     H10Y     HAL2     0.900000E-01   1.00800           0
     27431 MEMB     241      POPC     C311     CTL2    -0.180000       12.0110           0
     27432 MEMB     241      POPC     H11X     HAL2     0.900000E-01   1.00800           0
     27433 MEMB     241      POPC     H11Y     HAL2     0.900000E-01   1.00800           0
     27434 MEMB     241      POPC     C312     CTL2    -0.180000       12.0110           0
     27435 MEMB     241      POPC     H12X     HAL2     0.900000E-01   1.00800           0
     27436 MEMB     241      POPC     H12Y     HAL2     0.900000E-01   1.00800           0
     27437 MEMB     241      POPC     C313     CTL2    -0.180000       12.0110           0
     27438 MEMB     241      POPC     H13X     HAL2     0.900000E-01   1.00800           0
     27439 MEMB     241      POPC     H13Y     HAL2     0.900000E-01   1.00800           0
     27440 MEMB     241      POPC     C314     CTL2    -0.180000       12.0110           0
     27441 MEMB     241      POPC     H14X     HAL2     0.900000E-01   1.00800           0
     27442 MEMB     241      POPC     H14Y     HAL2     0.900000E-01   1.00800           0
     27443 MEMB     241      POPC     C315     CTL2    -0.180000       12.0110           0
     27444 MEMB     241      POPC     H15X     HAL2     0.900000E-01   1.00800           0
     27445 MEMB     241      POPC     H15Y     HAL2     0.900000E-01   1.00800           0
     27446 MEMB     241      POPC     C316     CTL3    -0.270000       12.0110           0
     27447 MEMB     241      POPC     H16X     HAL3     0.900000E-01   1.00800           0
     27448 MEMB     241      POPC     H16Y     HAL3     0.900000E-01   1.00800           0
     27449 MEMB     241      POPC     H16Z     HAL3     0.900000E-01   1.00800           0
     27450 MEMB     242      POPC     N        NTL     -0.600000       14.0070           0
     27451 MEMB     242      POPC     C12      CTL2    -0.100000       12.0110           0
     27452 MEMB     242      POPC     H12A     HL       0.250000       1.00800           0
     27453 MEMB     242      POPC     H12B     HL       0.250000       1.00800           0
     27454 MEMB     242      POPC     C13      CTL5    -0.350000       12.0110           0
     27455 MEMB     242      POPC     H13A     HL       0.250000       1.00800           0
     27456 MEMB     242      POPC     H13B     HL       0.250000       1.00800           0
     27457 MEMB     242      POPC     H13C     HL       0.250000       1.00800           0
     27458 MEMB     242      POPC     C14      CTL5    -0.350000       12.0110           0
     27459 MEMB     242      POPC     H14A     HL       0.250000       1.00800           0
     27460 MEMB     242      POPC     H14B     HL       0.250000       1.00800           0
     27461 MEMB     242      POPC     H14C     HL       0.250000       1.00800           0
     27462 MEMB     242      POPC     C15      CTL5    -0.350000       12.0110           0
     27463 MEMB     242      POPC     H15A     HL       0.250000       1.00800           0
     27464 MEMB     242      POPC     H15B     HL       0.250000       1.00800           0
     27465 MEMB     242      POPC     H15C     HL       0.250000       1.00800           0
     27466 MEMB     242      POPC     C11      CTL2    -0.800000E-01   12.0110           0
     27467 MEMB     242      POPC     H11A     HAL2     0.900000E-01   1.00800           0
     27468 MEMB     242      POPC     H11B     HAL2     0.900000E-01   1.00800           0
     27469 MEMB     242      POPC     P        PL        1.50000       30.9740           0
     27470 MEMB     242      POPC     O13      O2L     -0.780000       15.9994           0
     27471 MEMB     242      POPC     O14      O2L     -0.780000       15.9994           0
     27472 MEMB     242      POPC     O12      OSLP    -0.570000       15.9994           0
     27473 MEMB     242      POPC     O11      OSLP    -0.570000       15.9994           0
     27474 MEMB     242      POPC     C1       CTL2    -0.800000E-01   12.0110           0
     27475 MEMB     242      POPC     HA       HAL2     0.900000E-01   1.00800           0
     27476 MEMB     242      POPC     HB       HAL2     0.900000E-01   1.00800           0
     27477 MEMB     242      POPC     C2       CTL1     0.170000       12.0110           0
     27478 MEMB     242      POPC     HS       HAL1     0.900000E-01   1.00800           0
     27479 MEMB     242      POPC     O21      OSL     -0.490000       15.9994           0
     27480 MEMB     242      POPC     C21      CL       0.900000       12.0110           0
     27481 MEMB     242      POPC     O22      OBL     -0.630000       15.9994           0
     27482 MEMB     242      POPC     C22      CTL2    -0.220000       12.0110           0
     27483 MEMB     242      POPC     H2R      HAL2     0.900000E-01   1.00800           0
     27484 MEMB     242      POPC     H2S      HAL2     0.900000E-01   1.00800           0
     27485 MEMB     242      POPC     C3       CTL2     0.800000E-01   12.0110           0
     27486 MEMB     242      POPC     HX       HAL2     0.900000E-01   1.00800           0
     27487 MEMB     242      POPC     HY       HAL2     0.900000E-01   1.00800           0
     27488 MEMB     242      POPC     O31      OSL     -0.490000       15.9994           0
     27489 MEMB     242      POPC     C31      CL       0.900000       12.0110           0
     27490 MEMB     242      POPC     O32      OBL     -0.630000       15.9994           0
     27491 MEMB     242      POPC     C32      CTL2    -0.220000       12.0110           0
     27492 MEMB     242      POPC     H2X      HAL2     0.900000E-01   1.00800           0
     27493 MEMB     242      POPC     H2Y      HAL2     0.900000E-01   1.00800           0
     27494 MEMB     242      POPC     C23      CTL2    -0.180000       12.0110           0
     27495 MEMB     242      POPC     H3R      HAL2     0.900000E-01   1.00800           0
     27496 MEMB     242      POPC     H3S      HAL2     0.900000E-01   1.00800           0
     27497 MEMB     242      POPC     C24      CTL2    -0.180000       12.0110           0
     27498 MEMB     242      POPC     H4R      HAL2     0.900000E-01   1.00800           0
     27499 MEMB     242      POPC     H4S      HAL2     0.900000E-01   1.00800           0
     27500 MEMB     242      POPC     C25      CTL2    -0.180000       12.0110           0
     27501 MEMB     242      POPC     H5R      HAL2     0.900000E-01   1.00800           0
     27502 MEMB     242      POPC     H5S      HAL2     0.900000E-01   1.00800           0
     27503 MEMB     242      POPC     C26      CTL2    -0.180000       12.0110           0
     27504 MEMB     242      POPC     H6R      HAL2     0.900000E-01   1.00800           0
     27505 MEMB     242      POPC     H6S      HAL2     0.900000E-01   1.00800           0
     27506 MEMB     242      POPC     C27      CTL2    -0.180000       12.0110           0
     27507 MEMB     242      POPC     H7R      HAL2     0.900000E-01   1.00800           0
     27508 MEMB     242      POPC     H7S      HAL2     0.900000E-01   1.00800           0
     27509 MEMB     242      POPC     C28      CTL2    -0.180000       12.0110           0
     27510 MEMB     242      POPC     H8R      HAL2     0.900000E-01   1.00800           0
     27511 MEMB     242      POPC     H8S      HAL2     0.900000E-01   1.00800           0
     27512 MEMB     242      POPC     C29      CEL1    -0.150000       12.0110           0
     27513 MEMB     242      POPC     H91      HEL1     0.150000       1.00800           0
     27514 MEMB     242      POPC     C210     CEL1    -0.150000       12.0110           0
     27515 MEMB     242      POPC     H101     HEL1     0.150000       1.00800           0
     27516 MEMB     242      POPC     C211     CTL2    -0.180000       12.0110           0
     27517 MEMB     242      POPC     H11R     HAL2     0.900000E-01   1.00800           0
     27518 MEMB     242      POPC     H11S     HAL2     0.900000E-01   1.00800           0
     27519 MEMB     242      POPC     C212     CTL2    -0.180000       12.0110           0
     27520 MEMB     242      POPC     H12R     HAL2     0.900000E-01   1.00800           0
     27521 MEMB     242      POPC     H12S     HAL2     0.900000E-01   1.00800           0
     27522 MEMB     242      POPC     C213     CTL2    -0.180000       12.0110           0
     27523 MEMB     242      POPC     H13R     HAL2     0.900000E-01   1.00800           0
     27524 MEMB     242      POPC     H13S     HAL2     0.900000E-01   1.00800           0
     27525 MEMB     242      POPC     C214     CTL2    -0.180000       12.0110           0
     27526 MEMB     242      POPC     H14R     HAL2     0.900000E-01   1.00800           0
     27527 MEMB     242      POPC     H14S     HAL2     0.900000E-01   1.00800           0
     27528 MEMB     242      POPC     C215     CTL2    -0.180000       12.0110           0
     27529 MEMB     242      POPC     H15R     HAL2     0.900000E-01   1.00800           0
     27530 MEMB     242      POPC     H15S     HAL2     0.900000E-01   1.00800           0
     27531 MEMB     242      POPC     C216     CTL2    -0.180000       12.0110           0
     27532 MEMB     242      POPC     H16R     HAL2     0.900000E-01   1.00800           0
     27533 MEMB     242      POPC     H16S     HAL2     0.900000E-01   1.00800           0
     27534 MEMB     242      POPC     C217     CTL2    -0.180000       12.0110           0
     27535 MEMB     242      POPC     H17R     HAL2     0.900000E-01   1.00800           0
     27536 MEMB     242      POPC     H17S     HAL2     0.900000E-01   1.00800           0
     27537 MEMB     242      POPC     C218     CTL3    -0.270000       12.0110           0
     27538 MEMB     242      POPC     H18R     HAL3     0.900000E-01   1.00800           0
     27539 MEMB     242      POPC     H18S     HAL3     0.900000E-01   1.00800           0
     27540 MEMB     242      POPC     H18T     HAL3     0.900000E-01   1.00800           0
     27541 MEMB     242      POPC     C33      CTL2    -0.180000       12.0110           0
     27542 MEMB     242      POPC     H3X      HAL2     0.900000E-01   1.00800           0
     27543 MEMB     242      POPC     H3Y      HAL2     0.900000E-01   1.00800           0
     27544 MEMB     242      POPC     C34      CTL2    -0.180000       12.0110           0
     27545 MEMB     242      POPC     H4X      HAL2     0.900000E-01   1.00800           0
     27546 MEMB     242      POPC     H4Y      HAL2     0.900000E-01   1.00800           0
     27547 MEMB     242      POPC     C35      CTL2    -0.180000       12.0110           0
     27548 MEMB     242      POPC     H5X      HAL2     0.900000E-01   1.00800           0
     27549 MEMB     242      POPC     H5Y      HAL2     0.900000E-01   1.00800           0
     27550 MEMB     242      POPC     C36      CTL2    -0.180000       12.0110           0
     27551 MEMB     242      POPC     H6X      HAL2     0.900000E-01   1.00800           0
     27552 MEMB     242      POPC     H6Y      HAL2     0.900000E-01   1.00800           0
     27553 MEMB     242      POPC     C37      CTL2    -0.180000       12.0110           0
     27554 MEMB     242      POPC     H7X      HAL2     0.900000E-01   1.00800           0
     27555 MEMB     242      POPC     H7Y      HAL2     0.900000E-01   1.00800           0
     27556 MEMB     242      POPC     C38      CTL2    -0.180000       12.0110           0
     27557 MEMB     242      POPC     H8X      HAL2     0.900000E-01   1.00800           0
     27558 MEMB     242      POPC     H8Y      HAL2     0.900000E-01   1.00800           0
     27559 MEMB     242      POPC     C39      CTL2    -0.180000       12.0110           0
     27560 MEMB     242      POPC     H9X      HAL2     0.900000E-01   1.00800           0
     27561 MEMB     242      POPC     H9Y      HAL2     0.900000E-01   1.00800           0
     27562 MEMB     242      POPC     C310     CTL2    -0.180000       12.0110           0
     27563 MEMB     242      POPC     H10X     HAL2     0.900000E-01   1.00800           0
     27564 MEMB     242      POPC     H10Y     HAL2     0.900000E-01   1.00800           0
     27565 MEMB     242      POPC     C311     CTL2    -0.180000       12.0110           0
     27566 MEMB     242      POPC     H11X     HAL2     0.900000E-01   1.00800           0
     27567 MEMB     242      POPC     H11Y     HAL2     0.900000E-01   1.00800           0
     27568 MEMB     242      POPC     C312     CTL2    -0.180000       12.0110           0
     27569 MEMB     242      POPC     H12X     HAL2     0.900000E-01   1.00800           0
     27570 MEMB     242      POPC     H12Y     HAL2     0.900000E-01   1.00800           0
     27571 MEMB     242      POPC     C313     CTL2    -0.180000       12.0110           0
     27572 MEMB     242      POPC     H13X     HAL2     0.900000E-01   1.00800           0
     27573 MEMB     242      POPC     H13Y     HAL2     0.900000E-01   1.00800           0
     27574 MEMB     242      POPC     C314     CTL2    -0.180000       12.0110           0
     27575 MEMB     242      POPC     H14X     HAL2     0.900000E-01   1.00800           0
     27576 MEMB     242      POPC     H14Y     HAL2     0.900000E-01   1.00800           0
     27577 MEMB     242      POPC     C315     CTL2    -0.180000       12.0110           0
     27578 MEMB     242      POPC     H15X     HAL2     0.900000E-01   1.00800           0
     27579 MEMB     242      POPC     H15Y     HAL2     0.900000E-01   1.00800           0
     27580 MEMB     242      POPC     C316     CTL3    -0.270000       12.0110           0
     27581 MEMB     242      POPC     H16X     HAL3     0.900000E-01   1.00800           0
     27582 MEMB     242      POPC     H16Y     HAL3     0.900000E-01   1.00800           0
     27583 MEMB     242      POPC     H16Z     HAL3     0.900000E-01   1.00800           0
     27584 MEMB     243      POPE     N        NH3L    -0.300000       14.0070           0
     27585 MEMB     243      POPE     HN1      HCL      0.330000       1.00800           0
     27586 MEMB     243      POPE     HN2      HCL      0.330000       1.00800           0
     27587 MEMB     243      POPE     HN3      HCL      0.330000       1.00800           0
     27588 MEMB     243      POPE     C12      CTL2     0.130000       12.0110           0
     27589 MEMB     243      POPE     H12A     HAL2     0.900000E-01   1.00800           0
     27590 MEMB     243      POPE     H12B     HAL2     0.900000E-01   1.00800           0
     27591 MEMB     243      POPE     C11      CTL2    -0.800000E-01   12.0110           0
     27592 MEMB     243      POPE     H11A     HAL2     0.900000E-01   1.00800           0
     27593 MEMB     243      POPE     H11B     HAL2     0.900000E-01   1.00800           0
     27594 MEMB     243      POPE     P        PL        1.50000       30.9740           0
     27595 MEMB     243      POPE     O13      O2L     -0.780000       15.9994           0
     27596 MEMB     243      POPE     O14      O2L     -0.780000       15.9994           0
     27597 MEMB     243      POPE     O11      OSLP    -0.570000       15.9994           0
     27598 MEMB     243      POPE     O12      OSLP    -0.570000       15.9994           0
     27599 MEMB     243      POPE     C1       CTL2    -0.800000E-01   12.0110           0
     27600 MEMB     243      POPE     HA       HAL2     0.900000E-01   1.00800           0
     27601 MEMB     243      POPE     HB       HAL2     0.900000E-01   1.00800           0
     27602 MEMB     243      POPE     C2       CTL1     0.170000       12.0110           0
     27603 MEMB     243      POPE     HS       HAL1     0.900000E-01   1.00800           0
     27604 MEMB     243      POPE     O21      OSL     -0.490000       15.9994           0
     27605 MEMB     243      POPE     C21      CL       0.900000       12.0110           0
     27606 MEMB     243      POPE     O22      OBL     -0.630000       15.9994           0
     27607 MEMB     243      POPE     C22      CTL2    -0.220000       12.0110           0
     27608 MEMB     243      POPE     H2R      HAL2     0.900000E-01   1.00800           0
     27609 MEMB     243      POPE     H2S      HAL2     0.900000E-01   1.00800           0
     27610 MEMB     243      POPE     C3       CTL2     0.800000E-01   12.0110           0
     27611 MEMB     243      POPE     HX       HAL2     0.900000E-01   1.00800           0
     27612 MEMB     243      POPE     HY       HAL2     0.900000E-01   1.00800           0
     27613 MEMB     243      POPE     O31      OSL     -0.490000       15.9994           0
     27614 MEMB     243      POPE     C31      CL       0.900000       12.0110           0
     27615 MEMB     243      POPE     O32      OBL     -0.630000       15.9994           0
     27616 MEMB     243      POPE     C32      CTL2    -0.220000       12.0110           0
     27617 MEMB     243      POPE     H2X      HAL2     0.900000E-01   1.00800           0
     27618 MEMB     243      POPE     H2Y      HAL2     0.900000E-01   1.00800           0
     27619 MEMB     243      POPE     C23      CTL2    -0.180000       12.0110           0
     27620 MEMB     243      POPE     H3R      HAL2     0.900000E-01   1.00800           0
     27621 MEMB     243      POPE     H3S      HAL2     0.900000E-01   1.00800           0
     27622 MEMB     243      POPE     C24      CTL2    -0.180000       12.0110           0
     27623 MEMB     243      POPE     H4R      HAL2     0.900000E-01   1.00800           0
     27624 MEMB     243      POPE     H4S      HAL2     0.900000E-01   1.00800           0
     27625 MEMB     243      POPE     C25      CTL2    -0.180000       12.0110           0
     27626 MEMB     243      POPE     H5R      HAL2     0.900000E-01   1.00800           0
     27627 MEMB     243      POPE     H5S      HAL2     0.900000E-01   1.00800           0
     27628 MEMB     243      POPE     C26      CTL2    -0.180000       12.0110           0
     27629 MEMB     243      POPE     H6R      HAL2     0.900000E-01   1.00800           0
     27630 MEMB     243      POPE     H6S      HAL2     0.900000E-01   1.00800           0
     27631 MEMB     243      POPE     C27      CTL2    -0.180000       12.0110           0
     27632 MEMB     243      POPE     H7R      HAL2     0.900000E-01   1.00800           0
     27633 MEMB     243      POPE     H7S      HAL2     0.900000E-01   1.00800           0
     27634 MEMB     243      POPE     C28      CTL2    -0.180000       12.0110           0
     27635 MEMB     243      POPE     H8R      HAL2     0.900000E-01   1.00800           0
     27636 MEMB     243      POPE     H8S      HAL2     0.900000E-01   1.00800           0
     27637 MEMB     243      POPE     C29      CEL1    -0.150000       12.0110           0
     27638 MEMB     243      POPE     H91      HEL1     0.150000       1.00800           0
     27639 MEMB     243      POPE     C210     CEL1    -0.150000       12.0110           0
     27640 MEMB     243      POPE     H101     HEL1     0.150000       1.00800           0
     27641 MEMB     243      POPE     C211     CTL2    -0.180000       12.0110           0
     27642 MEMB     243      POPE     H11R     HAL2     0.900000E-01   1.00800           0
     27643 MEMB     243      POPE     H11S     HAL2     0.900000E-01   1.00800           0
     27644 MEMB     243      POPE     C212     CTL2    -0.180000       12.0110           0
     27645 MEMB     243      POPE     H12R     HAL2     0.900000E-01   1.00800           0
     27646 MEMB     243      POPE     H12S     HAL2     0.900000E-01   1.00800           0
     27647 MEMB     243      POPE     C213     CTL2    -0.180000       12.0110           0
     27648 MEMB     243      POPE     H13R     HAL2     0.900000E-01   1.00800           0
     27649 MEMB     243      POPE     H13S     HAL2     0.900000E-01   1.00800           0
     27650 MEMB     243      POPE     C214     CTL2    -0.180000       12.0110           0
     27651 MEMB     243      POPE     H14R     HAL2     0.900000E-01   1.00800           0
     27652 MEMB     243      POPE     H14S     HAL2     0.900000E-01   1.00800           0
     27653 MEMB     243      POPE     C215     CTL2    -0.180000       12.0110           0
     27654 MEMB     243      POPE     H15R     HAL2     0.900000E-01   1.00800           0
     27655 MEMB     243      POPE     H15S     HAL2     0.900000E-01   1.00800           0
     27656 MEMB     243      POPE     C216     CTL2    -0.180000       12.0110           0
     27657 MEMB     243      POPE     H16R     HAL2     0.900000E-01   1.00800           0
     27658 MEMB     243      POPE     H16S     HAL2     0.900000E-01   1.00800           0
     27659 MEMB     243      POPE     C217     CTL2    -0.180000       12.0110           0
     27660 MEMB     243      POPE     H17R     HAL2     0.900000E-01   1.00800           0
     27661 MEMB     243      POPE     H17S     HAL2     0.900000E-01   1.00800           0
     27662 MEMB     243      POPE     C218     CTL3    -0.270000       12.0110           0
     27663 MEMB     243      POPE     H18R     HAL3     0.900000E-01   1.00800           0
     27664 MEMB     243      POPE     H18S     HAL3     0.900000E-01   1.00800           0
     27665 MEMB     243      POPE     H18T     HAL3     0.900000E-01   1.00800           0
     27666 MEMB     243      POPE     C33      CTL2    -0.180000       12.0110           0
     27667 MEMB     243      POPE     H3X      HAL2     0.900000E-01   1.00800           0
     27668 MEMB     243      POPE     H3Y      HAL2     0.900000E-01   1.00800           0
     27669 MEMB     243      POPE     C34      CTL2    -0.180000       12.0110           0
     27670 MEMB     243      POPE     H4X      HAL2     0.900000E-01   1.00800           0
     27671 MEMB     243      POPE     H4Y      HAL2     0.900000E-01   1.00800           0
     27672 MEMB     243      POPE     C35      CTL2    -0.180000       12.0110           0
     27673 MEMB     243      POPE     H5X      HAL2     0.900000E-01   1.00800           0
     27674 MEMB     243      POPE     H5Y      HAL2     0.900000E-01   1.00800           0
     27675 MEMB     243      POPE     C36      CTL2    -0.180000       12.0110           0
     27676 MEMB     243      POPE     H6X      HAL2     0.900000E-01   1.00800           0
     27677 MEMB     243      POPE     H6Y      HAL2     0.900000E-01   1.00800           0
     27678 MEMB     243      POPE     C37      CTL2    -0.180000       12.0110           0
     27679 MEMB     243      POPE     H7X      HAL2     0.900000E-01   1.00800           0
     27680 MEMB     243      POPE     H7Y      HAL2     0.900000E-01   1.00800           0
     27681 MEMB     243      POPE     C38      CTL2    -0.180000       12.0110           0
     27682 MEMB     243      POPE     H8X      HAL2     0.900000E-01   1.00800           0
     27683 MEMB     243      POPE     H8Y      HAL2     0.900000E-01   1.00800           0
     27684 MEMB     243      POPE     C39      CTL2    -0.180000       12.0110           0
     27685 MEMB     243      POPE     H9X      HAL2     0.900000E-01   1.00800           0
     27686 MEMB     243      POPE     H9Y      HAL2     0.900000E-01   1.00800           0
     27687 MEMB     243      POPE     C310     CTL2    -0.180000       12.0110           0
     27688 MEMB     243      POPE     H10X     HAL2     0.900000E-01   1.00800           0
     27689 MEMB     243      POPE     H10Y     HAL2     0.900000E-01   1.00800           0
     27690 MEMB     243      POPE     C311     CTL2    -0.180000       12.0110           0
     27691 MEMB     243      POPE     H11X     HAL2     0.900000E-01   1.00800           0
     27692 MEMB     243      POPE     H11Y     HAL2     0.900000E-01   1.00800           0
     27693 MEMB     243      POPE     C312     CTL2    -0.180000       12.0110           0
     27694 MEMB     243      POPE     H12X     HAL2     0.900000E-01   1.00800           0
     27695 MEMB     243      POPE     H12Y     HAL2     0.900000E-01   1.00800           0
     27696 MEMB     243      POPE     C313     CTL2    -0.180000       12.0110           0
     27697 MEMB     243      POPE     H13X     HAL2     0.900000E-01   1.00800           0
     27698 MEMB     243      POPE     H13Y     HAL2     0.900000E-01   1.00800           0
     27699 MEMB     243      POPE     C314     CTL2    -0.180000       12.0110           0
     27700 MEMB     243      POPE     H14X     HAL2     0.900000E-01   1.00800           0
     27701 MEMB     243      POPE     H14Y     HAL2     0.900000E-01   1.00800           0
     27702 MEMB     243      POPE     C315     CTL2    -0.180000       12.0110           0
     27703 MEMB     243      POPE     H15X     HAL2     0.900000E-01   1.00800           0
     27704 MEMB     243      POPE     H15Y     HAL2     0.900000E-01   1.00800           0
     27705 MEMB     243      POPE     C316     CTL3    -0.270000       12.0110           0
     27706 MEMB     243      POPE     H16X     HAL3     0.900000E-01   1.00800           0
     27707 MEMB     243      POPE     H16Y     HAL3     0.900000E-01   1.00800           0
     27708 MEMB     243      POPE     H16Z     HAL3     0.900000E-01   1.00800           0
     27709 MEMB     244      POPE     N        NH3L    -0.300000       14.0070           0
     27710 MEMB     244      POPE     HN1      HCL      0.330000       1.00800           0
     27711 MEMB     244      POPE     HN2      HCL      0.330000       1.00800           0
     27712 MEMB     244      POPE     HN3      HCL      0.330000       1.00800           0
     27713 MEMB     244      POPE     C12      CTL2     0.130000       12.0110           0
     27714 MEMB     244      POPE     H12A     HAL2     0.900000E-01   1.00800           0
     27715 MEMB     244      POPE     H12B     HAL2     0.900000E-01   1.00800           0
     27716 MEMB     244      POPE     C11      CTL2    -0.800000E-01   12.0110           0
     27717 MEMB     244      POPE     H11A     HAL2     0.900000E-01   1.00800           0
     27718 MEMB     244      POPE     H11B     HAL2     0.900000E-01   1.00800           0
     27719 MEMB     244      POPE     P        PL        1.50000       30.9740           0
     27720 MEMB     244      POPE     O13      O2L     -0.780000       15.9994           0
     27721 MEMB     244      POPE     O14      O2L     -0.780000       15.9994           0
     27722 MEMB     244      POPE     O11      OSLP    -0.570000       15.9994           0
     27723 MEMB     244      POPE     O12      OSLP    -0.570000       15.9994           0
     27724 MEMB     244      POPE     C1       CTL2    -0.800000E-01   12.0110           0
     27725 MEMB     244      POPE     HA       HAL2     0.900000E-01   1.00800           0
     27726 MEMB     244      POPE     HB       HAL2     0.900000E-01   1.00800           0
     27727 MEMB     244      POPE     C2       CTL1     0.170000       12.0110           0
     27728 MEMB     244      POPE     HS       HAL1     0.900000E-01   1.00800           0
     27729 MEMB     244      POPE     O21      OSL     -0.490000       15.9994           0
     27730 MEMB     244      POPE     C21      CL       0.900000       12.0110           0
     27731 MEMB     244      POPE     O22      OBL     -0.630000       15.9994           0
     27732 MEMB     244      POPE     C22      CTL2    -0.220000       12.0110           0
     27733 MEMB     244      POPE     H2R      HAL2     0.900000E-01   1.00800           0
     27734 MEMB     244      POPE     H2S      HAL2     0.900000E-01   1.00800           0
     27735 MEMB     244      POPE     C3       CTL2     0.800000E-01   12.0110           0
     27736 MEMB     244      POPE     HX       HAL2     0.900000E-01   1.00800           0
     27737 MEMB     244      POPE     HY       HAL2     0.900000E-01   1.00800           0
     27738 MEMB     244      POPE     O31      OSL     -0.490000       15.9994           0
     27739 MEMB     244      POPE     C31      CL       0.900000       12.0110           0
     27740 MEMB     244      POPE     O32      OBL     -0.630000       15.9994           0
     27741 MEMB     244      POPE     C32      CTL2    -0.220000       12.0110           0
     27742 MEMB     244      POPE     H2X      HAL2     0.900000E-01   1.00800           0
     27743 MEMB     244      POPE     H2Y      HAL2     0.900000E-01   1.00800           0
     27744 MEMB     244      POPE     C23      CTL2    -0.180000       12.0110           0
     27745 MEMB     244      POPE     H3R      HAL2     0.900000E-01   1.00800           0
     27746 MEMB     244      POPE     H3S      HAL2     0.900000E-01   1.00800           0
     27747 MEMB     244      POPE     C24      CTL2    -0.180000       12.0110           0
     27748 MEMB     244      POPE     H4R      HAL2     0.900000E-01   1.00800           0
     27749 MEMB     244      POPE     H4S      HAL2     0.900000E-01   1.00800           0
     27750 MEMB     244      POPE     C25      CTL2    -0.180000       12.0110           0
     27751 MEMB     244      POPE     H5R      HAL2     0.900000E-01   1.00800           0
     27752 MEMB     244      POPE     H5S      HAL2     0.900000E-01   1.00800           0
     27753 MEMB     244      POPE     C26      CTL2    -0.180000       12.0110           0
     27754 MEMB     244      POPE     H6R      HAL2     0.900000E-01   1.00800           0
     27755 MEMB     244      POPE     H6S      HAL2     0.900000E-01   1.00800           0
     27756 MEMB     244      POPE     C27      CTL2    -0.180000       12.0110           0
     27757 MEMB     244      POPE     H7R      HAL2     0.900000E-01   1.00800           0
     27758 MEMB     244      POPE     H7S      HAL2     0.900000E-01   1.00800           0
     27759 MEMB     244      POPE     C28      CTL2    -0.180000       12.0110           0
     27760 MEMB     244      POPE     H8R      HAL2     0.900000E-01   1.00800           0
     27761 MEMB     244      POPE     H8S      HAL2     0.900000E-01   1.00800           0
     27762 MEMB     244      POPE     C29      CEL1    -0.150000       12.0110           0
     27763 MEMB     244      POPE     H91      HEL1     0.150000       1.00800           0
     27764 MEMB     244      POPE     C210     CEL1    -0.150000       12.0110           0
     27765 MEMB     244      POPE     H101     HEL1     0.150000       1.00800           0
     27766 MEMB     244      POPE     C211     CTL2    -0.180000       12.0110           0
     27767 MEMB     244      POPE     H11R     HAL2     0.900000E-01   1.00800           0
     27768 MEMB     244      POPE     H11S     HAL2     0.900000E-01   1.00800           0
     27769 MEMB     244      POPE     C212     CTL2    -0.180000       12.0110           0
     27770 MEMB     244      POPE     H12R     HAL2     0.900000E-01   1.00800           0
     27771 MEMB     244      POPE     H12S     HAL2     0.900000E-01   1.00800           0
     27772 MEMB     244      POPE     C213     CTL2    -0.180000       12.0110           0
     27773 MEMB     244      POPE     H13R     HAL2     0.900000E-01   1.00800           0
     27774 MEMB     244      POPE     H13S     HAL2     0.900000E-01   1.00800           0
     27775 MEMB     244      POPE     C214     CTL2    -0.180000       12.0110           0
     27776 MEMB     244      POPE     H14R     HAL2     0.900000E-01   1.00800           0
     27777 MEMB     244      POPE     H14S     HAL2     0.900000E-01   1.00800           0
     27778 MEMB     244      POPE     C215     CTL2    -0.180000       12.0110           0
     27779 MEMB     244      POPE     H15R     HAL2     0.900000E-01   1.00800           0
     27780 MEMB     244      POPE     H15S     HAL2     0.900000E-01   1.00800           0
     27781 MEMB     244      POPE     C216     CTL2    -0.180000       12.0110           0
     27782 MEMB     244      POPE     H16R     HAL2     0.900000E-01   1.00800           0
     27783 MEMB     244      POPE     H16S     HAL2     0.900000E-01   1.00800           0
     27784 MEMB     244      POPE     C217     CTL2    -0.180000       12.0110           0
     27785 MEMB     244      POPE     H17R     HAL2     0.900000E-01   1.00800           0
     27786 MEMB     244      POPE     H17S     HAL2     0.900000E-01   1.00800           0
     27787 MEMB     244      POPE     C218     CTL3    -0.270000       12.0110           0
     27788 MEMB     244      POPE     H18R     HAL3     0.900000E-01   1.00800           0
     27789 MEMB     244      POPE     H18S     HAL3     0.900000E-01   1.00800           0
     27790 MEMB     244      POPE     H18T     HAL3     0.900000E-01   1.00800           0
     27791 MEMB     244      POPE     C33      CTL2    -0.180000       12.0110           0
     27792 MEMB     244      POPE     H3X      HAL2     0.900000E-01   1.00800           0
     27793 MEMB     244      POPE     H3Y      HAL2     0.900000E-01   1.00800           0
     27794 MEMB     244      POPE     C34      CTL2    -0.180000       12.0110           0
     27795 MEMB     244      POPE     H4X      HAL2     0.900000E-01   1.00800           0
     27796 MEMB     244      POPE     H4Y      HAL2     0.900000E-01   1.00800           0
     27797 MEMB     244      POPE     C35      CTL2    -0.180000       12.0110           0
     27798 MEMB     244      POPE     H5X      HAL2     0.900000E-01   1.00800           0
     27799 MEMB     244      POPE     H5Y      HAL2     0.900000E-01   1.00800           0
     27800 MEMB     244      POPE     C36      CTL2    -0.180000       12.0110           0
     27801 MEMB     244      POPE     H6X      HAL2     0.900000E-01   1.00800           0
     27802 MEMB     244      POPE     H6Y      HAL2     0.900000E-01   1.00800           0
     27803 MEMB     244      POPE     C37      CTL2    -0.180000       12.0110           0
     27804 MEMB     244      POPE     H7X      HAL2     0.900000E-01   1.00800           0
     27805 MEMB     244      POPE     H7Y      HAL2     0.900000E-01   1.00800           0
     27806 MEMB     244      POPE     C38      CTL2    -0.180000       12.0110           0
     27807 MEMB     244      POPE     H8X      HAL2     0.900000E-01   1.00800           0
     27808 MEMB     244      POPE     H8Y      HAL2     0.900000E-01   1.00800           0
     27809 MEMB     244      POPE     C39      CTL2    -0.180000       12.0110           0
     27810 MEMB     244      POPE     H9X      HAL2     0.900000E-01   1.00800           0
     27811 MEMB     244      POPE     H9Y      HAL2     0.900000E-01   1.00800           0
     27812 MEMB     244      POPE     C310     CTL2    -0.180000       12.0110           0
     27813 MEMB     244      POPE     H10X     HAL2     0.900000E-01   1.00800           0
     27814 MEMB     244      POPE     H10Y     HAL2     0.900000E-01   1.00800           0
     27815 MEMB     244      POPE     C311     CTL2    -0.180000       12.0110           0
     27816 MEMB     244      POPE     H11X     HAL2     0.900000E-01   1.00800           0
     27817 MEMB     244      POPE     H11Y     HAL2     0.900000E-01   1.00800           0
     27818 MEMB     244      POPE     C312     CTL2    -0.180000       12.0110           0
     27819 MEMB     244      POPE     H12X     HAL2     0.900000E-01   1.00800           0
     27820 MEMB     244      POPE     H12Y     HAL2     0.900000E-01   1.00800           0
     27821 MEMB     244      POPE     C313     CTL2    -0.180000       12.0110           0
     27822 MEMB     244      POPE     H13X     HAL2     0.900000E-01   1.00800           0
     27823 MEMB     244      POPE     H13Y     HAL2     0.900000E-01   1.00800           0
     27824 MEMB     244      POPE     C314     CTL2    -0.180000       12.0110           0
     27825 MEMB     244      POPE     H14X     HAL2     0.900000E-01   1.00800           0
     27826 MEMB     244      POPE     H14Y     HAL2     0.900000E-01   1.00800           0
     27827 MEMB     244      POPE     C315     CTL2    -0.180000       12.0110           0
     27828 MEMB     244      POPE     H15X     HAL2     0.900000E-01   1.00800           0
     27829 MEMB     244      POPE     H15Y     HAL2     0.900000E-01   1.00800           0
     27830 MEMB     244      POPE     C316     CTL3    -0.270000       12.0110           0
     27831 MEMB     244      POPE     H16X     HAL3     0.900000E-01   1.00800           0
     27832 MEMB     244      POPE     H16Y     HAL3     0.900000E-01   1.00800           0
     27833 MEMB     244      POPE     H16Z     HAL3     0.900000E-01   1.00800           0
     27834 MEMB     245      POPE     N        NH3L    -0.300000       14.0070           0
     27835 MEMB     245      POPE     HN1      HCL      0.330000       1.00800           0
     27836 MEMB     245      POPE     HN2      HCL      0.330000       1.00800           0
     27837 MEMB     245      POPE     HN3      HCL      0.330000       1.00800           0
     27838 MEMB     245      POPE     C12      CTL2     0.130000       12.0110           0
     27839 MEMB     245      POPE     H12A     HAL2     0.900000E-01   1.00800           0
     27840 MEMB     245      POPE     H12B     HAL2     0.900000E-01   1.00800           0
     27841 MEMB     245      POPE     C11      CTL2    -0.800000E-01   12.0110           0
     27842 MEMB     245      POPE     H11A     HAL2     0.900000E-01   1.00800           0
     27843 MEMB     245      POPE     H11B     HAL2     0.900000E-01   1.00800           0
     27844 MEMB     245      POPE     P        PL        1.50000       30.9740           0
     27845 MEMB     245      POPE     O13      O2L     -0.780000       15.9994           0
     27846 MEMB     245      POPE     O14      O2L     -0.780000       15.9994           0
     27847 MEMB     245      POPE     O11      OSLP    -0.570000       15.9994           0
     27848 MEMB     245      POPE     O12      OSLP    -0.570000       15.9994           0
     27849 MEMB     245      POPE     C1       CTL2    -0.800000E-01   12.0110           0
     27850 MEMB     245      POPE     HA       HAL2     0.900000E-01   1.00800           0
     27851 MEMB     245      POPE     HB       HAL2     0.900000E-01   1.00800           0
     27852 MEMB     245      POPE     C2       CTL1     0.170000       12.0110           0
     27853 MEMB     245      POPE     HS       HAL1     0.900000E-01   1.00800           0
     27854 MEMB     245      POPE     O21      OSL     -0.490000       15.9994           0
     27855 MEMB     245      POPE     C21      CL       0.900000       12.0110           0
     27856 MEMB     245      POPE     O22      OBL     -0.630000       15.9994           0
     27857 MEMB     245      POPE     C22      CTL2    -0.220000       12.0110           0
     27858 MEMB     245      POPE     H2R      HAL2     0.900000E-01   1.00800           0
     27859 MEMB     245      POPE     H2S      HAL2     0.900000E-01   1.00800           0
     27860 MEMB     245      POPE     C3       CTL2     0.800000E-01   12.0110           0
     27861 MEMB     245      POPE     HX       HAL2     0.900000E-01   1.00800           0
     27862 MEMB     245      POPE     HY       HAL2     0.900000E-01   1.00800           0
     27863 MEMB     245      POPE     O31      OSL     -0.490000       15.9994           0
     27864 MEMB     245      POPE     C31      CL       0.900000       12.0110           0
     27865 MEMB     245      POPE     O32      OBL     -0.630000       15.9994           0
     27866 MEMB     245      POPE     C32      CTL2    -0.220000       12.0110           0
     27867 MEMB     245      POPE     H2X      HAL2     0.900000E-01   1.00800           0
     27868 MEMB     245      POPE     H2Y      HAL2     0.900000E-01   1.00800           0
     27869 MEMB     245      POPE     C23      CTL2    -0.180000       12.0110           0
     27870 MEMB     245      POPE     H3R      HAL2     0.900000E-01   1.00800           0
     27871 MEMB     245      POPE     H3S      HAL2     0.900000E-01   1.00800           0
     27872 MEMB     245      POPE     C24      CTL2    -0.180000       12.0110           0
     27873 MEMB     245      POPE     H4R      HAL2     0.900000E-01   1.00800           0
     27874 MEMB     245      POPE     H4S      HAL2     0.900000E-01   1.00800           0
     27875 MEMB     245      POPE     C25      CTL2    -0.180000       12.0110           0
     27876 MEMB     245      POPE     H5R      HAL2     0.900000E-01   1.00800           0
     27877 MEMB     245      POPE     H5S      HAL2     0.900000E-01   1.00800           0
     27878 MEMB     245      POPE     C26      CTL2    -0.180000       12.0110           0
     27879 MEMB     245      POPE     H6R      HAL2     0.900000E-01   1.00800           0
     27880 MEMB     245      POPE     H6S      HAL2     0.900000E-01   1.00800           0
     27881 MEMB     245      POPE     C27      CTL2    -0.180000       12.0110           0
     27882 MEMB     245      POPE     H7R      HAL2     0.900000E-01   1.00800           0
     27883 MEMB     245      POPE     H7S      HAL2     0.900000E-01   1.00800           0
     27884 MEMB     245      POPE     C28      CTL2    -0.180000       12.0110           0
     27885 MEMB     245      POPE     H8R      HAL2     0.900000E-01   1.00800           0
     27886 MEMB     245      POPE     H8S      HAL2     0.900000E-01   1.00800           0
     27887 MEMB     245      POPE     C29      CEL1    -0.150000       12.0110           0
     27888 MEMB     245      POPE     H91      HEL1     0.150000       1.00800           0
     27889 MEMB     245      POPE     C210     CEL1    -0.150000       12.0110           0
     27890 MEMB     245      POPE     H101     HEL1     0.150000       1.00800           0
     27891 MEMB     245      POPE     C211     CTL2    -0.180000       12.0110           0
     27892 MEMB     245      POPE     H11R     HAL2     0.900000E-01   1.00800           0
     27893 MEMB     245      POPE     H11S     HAL2     0.900000E-01   1.00800           0
     27894 MEMB     245      POPE     C212     CTL2    -0.180000       12.0110           0
     27895 MEMB     245      POPE     H12R     HAL2     0.900000E-01   1.00800           0
     27896 MEMB     245      POPE     H12S     HAL2     0.900000E-01   1.00800           0
     27897 MEMB     245      POPE     C213     CTL2    -0.180000       12.0110           0
     27898 MEMB     245      POPE     H13R     HAL2     0.900000E-01   1.00800           0
     27899 MEMB     245      POPE     H13S     HAL2     0.900000E-01   1.00800           0
     27900 MEMB     245      POPE     C214     CTL2    -0.180000       12.0110           0
     27901 MEMB     245      POPE     H14R     HAL2     0.900000E-01   1.00800           0
     27902 MEMB     245      POPE     H14S     HAL2     0.900000E-01   1.00800           0
     27903 MEMB     245      POPE     C215     CTL2    -0.180000       12.0110           0
     27904 MEMB     245      POPE     H15R     HAL2     0.900000E-01   1.00800           0
     27905 MEMB     245      POPE     H15S     HAL2     0.900000E-01   1.00800           0
     27906 MEMB     245      POPE     C216     CTL2    -0.180000       12.0110           0
     27907 MEMB     245      POPE     H16R     HAL2     0.900000E-01   1.00800           0
     27908 MEMB     245      POPE     H16S     HAL2     0.900000E-01   1.00800           0
     27909 MEMB     245      POPE     C217     CTL2    -0.180000       12.0110           0
     27910 MEMB     245      POPE     H17R     HAL2     0.900000E-01   1.00800           0
     27911 MEMB     245      POPE     H17S     HAL2     0.900000E-01   1.00800           0
     27912 MEMB     245      POPE     C218     CTL3    -0.270000       12.0110           0
     27913 MEMB     245      POPE     H18R     HAL3     0.900000E-01   1.00800           0
     27914 MEMB     245      POPE     H18S     HAL3     0.900000E-01   1.00800           0
     27915 MEMB     245      POPE     H18T     HAL3     0.900000E-01   1.00800           0
     27916 MEMB     245      POPE     C33      CTL2    -0.180000       12.0110           0
     27917 MEMB     245      POPE     H3X      HAL2     0.900000E-01   1.00800           0
     27918 MEMB     245      POPE     H3Y      HAL2     0.900000E-01   1.00800           0
     27919 MEMB     245      POPE     C34      CTL2    -0.180000       12.0110           0
     27920 MEMB     245      POPE     H4X      HAL2     0.900000E-01   1.00800           0
     27921 MEMB     245      POPE     H4Y      HAL2     0.900000E-01   1.00800           0
     27922 MEMB     245      POPE     C35      CTL2    -0.180000       12.0110           0
     27923 MEMB     245      POPE     H5X      HAL2     0.900000E-01   1.00800           0
     27924 MEMB     245      POPE     H5Y      HAL2     0.900000E-01   1.00800           0
     27925 MEMB     245      POPE     C36      CTL2    -0.180000       12.0110           0
     27926 MEMB     245      POPE     H6X      HAL2     0.900000E-01   1.00800           0
     27927 MEMB     245      POPE     H6Y      HAL2     0.900000E-01   1.00800           0
     27928 MEMB     245      POPE     C37      CTL2    -0.180000       12.0110           0
     27929 MEMB     245      POPE     H7X      HAL2     0.900000E-01   1.00800           0
     27930 MEMB     245      POPE     H7Y      HAL2     0.900000E-01   1.00800           0
     27931 MEMB     245      POPE     C38      CTL2    -0.180000       12.0110           0
     27932 MEMB     245      POPE     H8X      HAL2     0.900000E-01   1.00800           0
     27933 MEMB     245      POPE     H8Y      HAL2     0.900000E-01   1.00800           0
     27934 MEMB     245      POPE     C39      CTL2    -0.180000       12.0110           0
     27935 MEMB     245      POPE     H9X      HAL2     0.900000E-01   1.00800           0
     27936 MEMB     245      POPE     H9Y      HAL2     0.900000E-01   1.00800           0
     27937 MEMB     245      POPE     C310     CTL2    -0.180000       12.0110           0
     27938 MEMB     245      POPE     H10X     HAL2     0.900000E-01   1.00800           0
     27939 MEMB     245      POPE     H10Y     HAL2     0.900000E-01   1.00800           0
     27940 MEMB     245      POPE     C311     CTL2    -0.180000       12.0110           0
     27941 MEMB     245      POPE     H11X     HAL2     0.900000E-01   1.00800           0
     27942 MEMB     245      POPE     H11Y     HAL2     0.900000E-01   1.00800           0
     27943 MEMB     245      POPE     C312     CTL2    -0.180000       12.0110           0
     27944 MEMB     245      POPE     H12X     HAL2     0.900000E-01   1.00800           0
     27945 MEMB     245      POPE     H12Y     HAL2     0.900000E-01   1.00800           0
     27946 MEMB     245      POPE     C313     CTL2    -0.180000       12.0110           0
     27947 MEMB     245      POPE     H13X     HAL2     0.900000E-01   1.00800           0
     27948 MEMB     245      POPE     H13Y     HAL2     0.900000E-01   1.00800           0
     27949 MEMB     245      POPE     C314     CTL2    -0.180000       12.0110           0
     27950 MEMB     245      POPE     H14X     HAL2     0.900000E-01   1.00800           0
     27951 MEMB     245      POPE     H14Y     HAL2     0.900000E-01   1.00800           0
     27952 MEMB     245      POPE     C315     CTL2    -0.180000       12.0110           0
     27953 MEMB     245      POPE     H15X     HAL2     0.900000E-01   1.00800           0
     27954 MEMB     245      POPE     H15Y     HAL2     0.900000E-01   1.00800           0
     27955 MEMB     245      POPE     C316     CTL3    -0.270000       12.0110           0
     27956 MEMB     245      POPE     H16X     HAL3     0.900000E-01   1.00800           0
     27957 MEMB     245      POPE     H16Y     HAL3     0.900000E-01   1.00800           0
     27958 MEMB     245      POPE     H16Z     HAL3     0.900000E-01   1.00800           0
     27959 MEMB     246      POPC     N        NTL     -0.600000       14.0070           0
     27960 MEMB     246      POPC     C12      CTL2    -0.100000       12.0110           0
     27961 MEMB     246      POPC     H12A     HL       0.250000       1.00800           0
     27962 MEMB     246      POPC     H12B     HL       0.250000       1.00800           0
     27963 MEMB     246      POPC     C13      CTL5    -0.350000       12.0110           0
     27964 MEMB     246      POPC     H13A     HL       0.250000       1.00800           0
     27965 MEMB     246      POPC     H13B     HL       0.250000       1.00800           0
     27966 MEMB     246      POPC     H13C     HL       0.250000       1.00800           0
     27967 MEMB     246      POPC     C14      CTL5    -0.350000       12.0110           0
     27968 MEMB     246      POPC     H14A     HL       0.250000       1.00800           0
     27969 MEMB     246      POPC     H14B     HL       0.250000       1.00800           0
     27970 MEMB     246      POPC     H14C     HL       0.250000       1.00800           0
     27971 MEMB     246      POPC     C15      CTL5    -0.350000       12.0110           0
     27972 MEMB     246      POPC     H15A     HL       0.250000       1.00800           0
     27973 MEMB     246      POPC     H15B     HL       0.250000       1.00800           0
     27974 MEMB     246      POPC     H15C     HL       0.250000       1.00800           0
     27975 MEMB     246      POPC     C11      CTL2    -0.800000E-01   12.0110           0
     27976 MEMB     246      POPC     H11A     HAL2     0.900000E-01   1.00800           0
     27977 MEMB     246      POPC     H11B     HAL2     0.900000E-01   1.00800           0
     27978 MEMB     246      POPC     P        PL        1.50000       30.9740           0
     27979 MEMB     246      POPC     O13      O2L     -0.780000       15.9994           0
     27980 MEMB     246      POPC     O14      O2L     -0.780000       15.9994           0
     27981 MEMB     246      POPC     O12      OSLP    -0.570000       15.9994           0
     27982 MEMB     246      POPC     O11      OSLP    -0.570000       15.9994           0
     27983 MEMB     246      POPC     C1       CTL2    -0.800000E-01   12.0110           0
     27984 MEMB     246      POPC     HA       HAL2     0.900000E-01   1.00800           0
     27985 MEMB     246      POPC     HB       HAL2     0.900000E-01   1.00800           0
     27986 MEMB     246      POPC     C2       CTL1     0.170000       12.0110           0
     27987 MEMB     246      POPC     HS       HAL1     0.900000E-01   1.00800           0
     27988 MEMB     246      POPC     O21      OSL     -0.490000       15.9994           0
     27989 MEMB     246      POPC     C21      CL       0.900000       12.0110           0
     27990 MEMB     246      POPC     O22      OBL     -0.630000       15.9994           0
     27991 MEMB     246      POPC     C22      CTL2    -0.220000       12.0110           0
     27992 MEMB     246      POPC     H2R      HAL2     0.900000E-01   1.00800           0
     27993 MEMB     246      POPC     H2S      HAL2     0.900000E-01   1.00800           0
     27994 MEMB     246      POPC     C3       CTL2     0.800000E-01   12.0110           0
     27995 MEMB     246      POPC     HX       HAL2     0.900000E-01   1.00800           0
     27996 MEMB     246      POPC     HY       HAL2     0.900000E-01   1.00800           0
     27997 MEMB     246      POPC     O31      OSL     -0.490000       15.9994           0
     27998 MEMB     246      POPC     C31      CL       0.900000       12.0110           0
     27999 MEMB     246      POPC     O32      OBL     -0.630000       15.9994           0
     28000 MEMB     246      POPC     C32      CTL2    -0.220000       12.0110           0
     28001 MEMB     246      POPC     H2X      HAL2     0.900000E-01   1.00800           0
     28002 MEMB     246      POPC     H2Y      HAL2     0.900000E-01   1.00800           0
     28003 MEMB     246      POPC     C23      CTL2    -0.180000       12.0110           0
     28004 MEMB     246      POPC     H3R      HAL2     0.900000E-01   1.00800           0
     28005 MEMB     246      POPC     H3S      HAL2     0.900000E-01   1.00800           0
     28006 MEMB     246      POPC     C24      CTL2    -0.180000       12.0110           0
     28007 MEMB     246      POPC     H4R      HAL2     0.900000E-01   1.00800           0
     28008 MEMB     246      POPC     H4S      HAL2     0.900000E-01   1.00800           0
     28009 MEMB     246      POPC     C25      CTL2    -0.180000       12.0110           0
     28010 MEMB     246      POPC     H5R      HAL2     0.900000E-01   1.00800           0
     28011 MEMB     246      POPC     H5S      HAL2     0.900000E-01   1.00800           0
     28012 MEMB     246      POPC     C26      CTL2    -0.180000       12.0110           0
     28013 MEMB     246      POPC     H6R      HAL2     0.900000E-01   1.00800           0
     28014 MEMB     246      POPC     H6S      HAL2     0.900000E-01   1.00800           0
     28015 MEMB     246      POPC     C27      CTL2    -0.180000       12.0110           0
     28016 MEMB     246      POPC     H7R      HAL2     0.900000E-01   1.00800           0
     28017 MEMB     246      POPC     H7S      HAL2     0.900000E-01   1.00800           0
     28018 MEMB     246      POPC     C28      CTL2    -0.180000       12.0110           0
     28019 MEMB     246      POPC     H8R      HAL2     0.900000E-01   1.00800           0
     28020 MEMB     246      POPC     H8S      HAL2     0.900000E-01   1.00800           0
     28021 MEMB     246      POPC     C29      CEL1    -0.150000       12.0110           0
     28022 MEMB     246      POPC     H91      HEL1     0.150000       1.00800           0
     28023 MEMB     246      POPC     C210     CEL1    -0.150000       12.0110           0
     28024 MEMB     246      POPC     H101     HEL1     0.150000       1.00800           0
     28025 MEMB     246      POPC     C211     CTL2    -0.180000       12.0110           0
     28026 MEMB     246      POPC     H11R     HAL2     0.900000E-01   1.00800           0
     28027 MEMB     246      POPC     H11S     HAL2     0.900000E-01   1.00800           0
     28028 MEMB     246      POPC     C212     CTL2    -0.180000       12.0110           0
     28029 MEMB     246      POPC     H12R     HAL2     0.900000E-01   1.00800           0
     28030 MEMB     246      POPC     H12S     HAL2     0.900000E-01   1.00800           0
     28031 MEMB     246      POPC     C213     CTL2    -0.180000       12.0110           0
     28032 MEMB     246      POPC     H13R     HAL2     0.900000E-01   1.00800           0
     28033 MEMB     246      POPC     H13S     HAL2     0.900000E-01   1.00800           0
     28034 MEMB     246      POPC     C214     CTL2    -0.180000       12.0110           0
     28035 MEMB     246      POPC     H14R     HAL2     0.900000E-01   1.00800           0
     28036 MEMB     246      POPC     H14S     HAL2     0.900000E-01   1.00800           0
     28037 MEMB     246      POPC     C215     CTL2    -0.180000       12.0110           0
     28038 MEMB     246      POPC     H15R     HAL2     0.900000E-01   1.00800           0
     28039 MEMB     246      POPC     H15S     HAL2     0.900000E-01   1.00800           0
     28040 MEMB     246      POPC     C216     CTL2    -0.180000       12.0110           0
     28041 MEMB     246      POPC     H16R     HAL2     0.900000E-01   1.00800           0
     28042 MEMB     246      POPC     H16S     HAL2     0.900000E-01   1.00800           0
     28043 MEMB     246      POPC     C217     CTL2    -0.180000       12.0110           0
     28044 MEMB     246      POPC     H17R     HAL2     0.900000E-01   1.00800           0
     28045 MEMB     246      POPC     H17S     HAL2     0.900000E-01   1.00800           0
     28046 MEMB     246      POPC     C218     CTL3    -0.270000       12.0110           0
     28047 MEMB     246      POPC     H18R     HAL3     0.900000E-01   1.00800           0
     28048 MEMB     246      POPC     H18S     HAL3     0.900000E-01   1.00800           0
     28049 MEMB     246      POPC     H18T     HAL3     0.900000E-01   1.00800           0
     28050 MEMB     246      POPC     C33      CTL2    -0.180000       12.0110           0
     28051 MEMB     246      POPC     H3X      HAL2     0.900000E-01   1.00800           0
     28052 MEMB     246      POPC     H3Y      HAL2     0.900000E-01   1.00800           0
     28053 MEMB     246      POPC     C34      CTL2    -0.180000       12.0110           0
     28054 MEMB     246      POPC     H4X      HAL2     0.900000E-01   1.00800           0
     28055 MEMB     246      POPC     H4Y      HAL2     0.900000E-01   1.00800           0
     28056 MEMB     246      POPC     C35      CTL2    -0.180000       12.0110           0
     28057 MEMB     246      POPC     H5X      HAL2     0.900000E-01   1.00800           0
     28058 MEMB     246      POPC     H5Y      HAL2     0.900000E-01   1.00800           0
     28059 MEMB     246      POPC     C36      CTL2    -0.180000       12.0110           0
     28060 MEMB     246      POPC     H6X      HAL2     0.900000E-01   1.00800           0
     28061 MEMB     246      POPC     H6Y      HAL2     0.900000E-01   1.00800           0
     28062 MEMB     246      POPC     C37      CTL2    -0.180000       12.0110           0
     28063 MEMB     246      POPC     H7X      HAL2     0.900000E-01   1.00800           0
     28064 MEMB     246      POPC     H7Y      HAL2     0.900000E-01   1.00800           0
     28065 MEMB     246      POPC     C38      CTL2    -0.180000       12.0110           0
     28066 MEMB     246      POPC     H8X      HAL2     0.900000E-01   1.00800           0
     28067 MEMB     246      POPC     H8Y      HAL2     0.900000E-01   1.00800           0
     28068 MEMB     246      POPC     C39      CTL2    -0.180000       12.0110           0
     28069 MEMB     246      POPC     H9X      HAL2     0.900000E-01   1.00800           0
     28070 MEMB     246      POPC     H9Y      HAL2     0.900000E-01   1.00800           0
     28071 MEMB     246      POPC     C310     CTL2    -0.180000       12.0110           0
     28072 MEMB     246      POPC     H10X     HAL2     0.900000E-01   1.00800           0
     28073 MEMB     246      POPC     H10Y     HAL2     0.900000E-01   1.00800           0
     28074 MEMB     246      POPC     C311     CTL2    -0.180000       12.0110           0
     28075 MEMB     246      POPC     H11X     HAL2     0.900000E-01   1.00800           0
     28076 MEMB     246      POPC     H11Y     HAL2     0.900000E-01   1.00800           0
     28077 MEMB     246      POPC     C312     CTL2    -0.180000       12.0110           0
     28078 MEMB     246      POPC     H12X     HAL2     0.900000E-01   1.00800           0
     28079 MEMB     246      POPC     H12Y     HAL2     0.900000E-01   1.00800           0
     28080 MEMB     246      POPC     C313     CTL2    -0.180000       12.0110           0
     28081 MEMB     246      POPC     H13X     HAL2     0.900000E-01   1.00800           0
     28082 MEMB     246      POPC     H13Y     HAL2     0.900000E-01   1.00800           0
     28083 MEMB     246      POPC     C314     CTL2    -0.180000       12.0110           0
     28084 MEMB     246      POPC     H14X     HAL2     0.900000E-01   1.00800           0
     28085 MEMB     246      POPC     H14Y     HAL2     0.900000E-01   1.00800           0
     28086 MEMB     246      POPC     C315     CTL2    -0.180000       12.0110           0
     28087 MEMB     246      POPC     H15X     HAL2     0.900000E-01   1.00800           0
     28088 MEMB     246      POPC     H15Y     HAL2     0.900000E-01   1.00800           0
     28089 MEMB     246      POPC     C316     CTL3    -0.270000       12.0110           0
     28090 MEMB     246      POPC     H16X     HAL3     0.900000E-01   1.00800           0
     28091 MEMB     246      POPC     H16Y     HAL3     0.900000E-01   1.00800           0
     28092 MEMB     246      POPC     H16Z     HAL3     0.900000E-01   1.00800           0
     28093 MEMB     247      POPC     N        NTL     -0.600000       14.0070           0
     28094 MEMB     247      POPC     C12      CTL2    -0.100000       12.0110           0
     28095 MEMB     247      POPC     H12A     HL       0.250000       1.00800           0
     28096 MEMB     247      POPC     H12B     HL       0.250000       1.00800           0
     28097 MEMB     247      POPC     C13      CTL5    -0.350000       12.0110           0
     28098 MEMB     247      POPC     H13A     HL       0.250000       1.00800           0
     28099 MEMB     247      POPC     H13B     HL       0.250000       1.00800           0
     28100 MEMB     247      POPC     H13C     HL       0.250000       1.00800           0
     28101 MEMB     247      POPC     C14      CTL5    -0.350000       12.0110           0
     28102 MEMB     247      POPC     H14A     HL       0.250000       1.00800           0
     28103 MEMB     247      POPC     H14B     HL       0.250000       1.00800           0
     28104 MEMB     247      POPC     H14C     HL       0.250000       1.00800           0
     28105 MEMB     247      POPC     C15      CTL5    -0.350000       12.0110           0
     28106 MEMB     247      POPC     H15A     HL       0.250000       1.00800           0
     28107 MEMB     247      POPC     H15B     HL       0.250000       1.00800           0
     28108 MEMB     247      POPC     H15C     HL       0.250000       1.00800           0
     28109 MEMB     247      POPC     C11      CTL2    -0.800000E-01   12.0110           0
     28110 MEMB     247      POPC     H11A     HAL2     0.900000E-01   1.00800           0
     28111 MEMB     247      POPC     H11B     HAL2     0.900000E-01   1.00800           0
     28112 MEMB     247      POPC     P        PL        1.50000       30.9740           0
     28113 MEMB     247      POPC     O13      O2L     -0.780000       15.9994           0
     28114 MEMB     247      POPC     O14      O2L     -0.780000       15.9994           0
     28115 MEMB     247      POPC     O12      OSLP    -0.570000       15.9994           0
     28116 MEMB     247      POPC     O11      OSLP    -0.570000       15.9994           0
     28117 MEMB     247      POPC     C1       CTL2    -0.800000E-01   12.0110           0
     28118 MEMB     247      POPC     HA       HAL2     0.900000E-01   1.00800           0
     28119 MEMB     247      POPC     HB       HAL2     0.900000E-01   1.00800           0
     28120 MEMB     247      POPC     C2       CTL1     0.170000       12.0110           0
     28121 MEMB     247      POPC     HS       HAL1     0.900000E-01   1.00800           0
     28122 MEMB     247      POPC     O21      OSL     -0.490000       15.9994           0
     28123 MEMB     247      POPC     C21      CL       0.900000       12.0110           0
     28124 MEMB     247      POPC     O22      OBL     -0.630000       15.9994           0
     28125 MEMB     247      POPC     C22      CTL2    -0.220000       12.0110           0
     28126 MEMB     247      POPC     H2R      HAL2     0.900000E-01   1.00800           0
     28127 MEMB     247      POPC     H2S      HAL2     0.900000E-01   1.00800           0
     28128 MEMB     247      POPC     C3       CTL2     0.800000E-01   12.0110           0
     28129 MEMB     247      POPC     HX       HAL2     0.900000E-01   1.00800           0
     28130 MEMB     247      POPC     HY       HAL2     0.900000E-01   1.00800           0
     28131 MEMB     247      POPC     O31      OSL     -0.490000       15.9994           0
     28132 MEMB     247      POPC     C31      CL       0.900000       12.0110           0
     28133 MEMB     247      POPC     O32      OBL     -0.630000       15.9994           0
     28134 MEMB     247      POPC     C32      CTL2    -0.220000       12.0110           0
     28135 MEMB     247      POPC     H2X      HAL2     0.900000E-01   1.00800           0
     28136 MEMB     247      POPC     H2Y      HAL2     0.900000E-01   1.00800           0
     28137 MEMB     247      POPC     C23      CTL2    -0.180000       12.0110           0
     28138 MEMB     247      POPC     H3R      HAL2     0.900000E-01   1.00800           0
     28139 MEMB     247      POPC     H3S      HAL2     0.900000E-01   1.00800           0
     28140 MEMB     247      POPC     C24      CTL2    -0.180000       12.0110           0
     28141 MEMB     247      POPC     H4R      HAL2     0.900000E-01   1.00800           0
     28142 MEMB     247      POPC     H4S      HAL2     0.900000E-01   1.00800           0
     28143 MEMB     247      POPC     C25      CTL2    -0.180000       12.0110           0
     28144 MEMB     247      POPC     H5R      HAL2     0.900000E-01   1.00800           0
     28145 MEMB     247      POPC     H5S      HAL2     0.900000E-01   1.00800           0
     28146 MEMB     247      POPC     C26      CTL2    -0.180000       12.0110           0
     28147 MEMB     247      POPC     H6R      HAL2     0.900000E-01   1.00800           0
     28148 MEMB     247      POPC     H6S      HAL2     0.900000E-01   1.00800           0
     28149 MEMB     247      POPC     C27      CTL2    -0.180000       12.0110           0
     28150 MEMB     247      POPC     H7R      HAL2     0.900000E-01   1.00800           0
     28151 MEMB     247      POPC     H7S      HAL2     0.900000E-01   1.00800           0
     28152 MEMB     247      POPC     C28      CTL2    -0.180000       12.0110           0
     28153 MEMB     247      POPC     H8R      HAL2     0.900000E-01   1.00800           0
     28154 MEMB     247      POPC     H8S      HAL2     0.900000E-01   1.00800           0
     28155 MEMB     247      POPC     C29      CEL1    -0.150000       12.0110           0
     28156 MEMB     247      POPC     H91      HEL1     0.150000       1.00800           0
     28157 MEMB     247      POPC     C210     CEL1    -0.150000       12.0110           0
     28158 MEMB     247      POPC     H101     HEL1     0.150000       1.00800           0
     28159 MEMB     247      POPC     C211     CTL2    -0.180000       12.0110           0
     28160 MEMB     247      POPC     H11R     HAL2     0.900000E-01   1.00800           0
     28161 MEMB     247      POPC     H11S     HAL2     0.900000E-01   1.00800           0
     28162 MEMB     247      POPC     C212     CTL2    -0.180000       12.0110           0
     28163 MEMB     247      POPC     H12R     HAL2     0.900000E-01   1.00800           0
     28164 MEMB     247      POPC     H12S     HAL2     0.900000E-01   1.00800           0
     28165 MEMB     247      POPC     C213     CTL2    -0.180000       12.0110           0
     28166 MEMB     247      POPC     H13R     HAL2     0.900000E-01   1.00800           0
     28167 MEMB     247      POPC     H13S     HAL2     0.900000E-01   1.00800           0
     28168 MEMB     247      POPC     C214     CTL2    -0.180000       12.0110           0
     28169 MEMB     247      POPC     H14R     HAL2     0.900000E-01   1.00800           0
     28170 MEMB     247      POPC     H14S     HAL2     0.900000E-01   1.00800           0
     28171 MEMB     247      POPC     C215     CTL2    -0.180000       12.0110           0
     28172 MEMB     247      POPC     H15R     HAL2     0.900000E-01   1.00800           0
     28173 MEMB     247      POPC     H15S     HAL2     0.900000E-01   1.00800           0
     28174 MEMB     247      POPC     C216     CTL2    -0.180000       12.0110           0
     28175 MEMB     247      POPC     H16R     HAL2     0.900000E-01   1.00800           0
     28176 MEMB     247      POPC     H16S     HAL2     0.900000E-01   1.00800           0
     28177 MEMB     247      POPC     C217     CTL2    -0.180000       12.0110           0
     28178 MEMB     247      POPC     H17R     HAL2     0.900000E-01   1.00800           0
     28179 MEMB     247      POPC     H17S     HAL2     0.900000E-01   1.00800           0
     28180 MEMB     247      POPC     C218     CTL3    -0.270000       12.0110           0
     28181 MEMB     247      POPC     H18R     HAL3     0.900000E-01   1.00800           0
     28182 MEMB     247      POPC     H18S     HAL3     0.900000E-01   1.00800           0
     28183 MEMB     247      POPC     H18T     HAL3     0.900000E-01   1.00800           0
     28184 MEMB     247      POPC     C33      CTL2    -0.180000       12.0110           0
     28185 MEMB     247      POPC     H3X      HAL2     0.900000E-01   1.00800           0
     28186 MEMB     247      POPC     H3Y      HAL2     0.900000E-01   1.00800           0
     28187 MEMB     247      POPC     C34      CTL2    -0.180000       12.0110           0
     28188 MEMB     247      POPC     H4X      HAL2     0.900000E-01   1.00800           0
     28189 MEMB     247      POPC     H4Y      HAL2     0.900000E-01   1.00800           0
     28190 MEMB     247      POPC     C35      CTL2    -0.180000       12.0110           0
     28191 MEMB     247      POPC     H5X      HAL2     0.900000E-01   1.00800           0
     28192 MEMB     247      POPC     H5Y      HAL2     0.900000E-01   1.00800           0
     28193 MEMB     247      POPC     C36      CTL2    -0.180000       12.0110           0
     28194 MEMB     247      POPC     H6X      HAL2     0.900000E-01   1.00800           0
     28195 MEMB     247      POPC     H6Y      HAL2     0.900000E-01   1.00800           0
     28196 MEMB     247      POPC     C37      CTL2    -0.180000       12.0110           0
     28197 MEMB     247      POPC     H7X      HAL2     0.900000E-01   1.00800           0
     28198 MEMB     247      POPC     H7Y      HAL2     0.900000E-01   1.00800           0
     28199 MEMB     247      POPC     C38      CTL2    -0.180000       12.0110           0
     28200 MEMB     247      POPC     H8X      HAL2     0.900000E-01   1.00800           0
     28201 MEMB     247      POPC     H8Y      HAL2     0.900000E-01   1.00800           0
     28202 MEMB     247      POPC     C39      CTL2    -0.180000       12.0110           0
     28203 MEMB     247      POPC     H9X      HAL2     0.900000E-01   1.00800           0
     28204 MEMB     247      POPC     H9Y      HAL2     0.900000E-01   1.00800           0
     28205 MEMB     247      POPC     C310     CTL2    -0.180000       12.0110           0
     28206 MEMB     247      POPC     H10X     HAL2     0.900000E-01   1.00800           0
     28207 MEMB     247      POPC     H10Y     HAL2     0.900000E-01   1.00800           0
     28208 MEMB     247      POPC     C311     CTL2    -0.180000       12.0110           0
     28209 MEMB     247      POPC     H11X     HAL2     0.900000E-01   1.00800           0
     28210 MEMB     247      POPC     H11Y     HAL2     0.900000E-01   1.00800           0
     28211 MEMB     247      POPC     C312     CTL2    -0.180000       12.0110           0
     28212 MEMB     247      POPC     H12X     HAL2     0.900000E-01   1.00800           0
     28213 MEMB     247      POPC     H12Y     HAL2     0.900000E-01   1.00800           0
     28214 MEMB     247      POPC     C313     CTL2    -0.180000       12.0110           0
     28215 MEMB     247      POPC     H13X     HAL2     0.900000E-01   1.00800           0
     28216 MEMB     247      POPC     H13Y     HAL2     0.900000E-01   1.00800           0
     28217 MEMB     247      POPC     C314     CTL2    -0.180000       12.0110           0
     28218 MEMB     247      POPC     H14X     HAL2     0.900000E-01   1.00800           0
     28219 MEMB     247      POPC     H14Y     HAL2     0.900000E-01   1.00800           0
     28220 MEMB     247      POPC     C315     CTL2    -0.180000       12.0110           0
     28221 MEMB     247      POPC     H15X     HAL2     0.900000E-01   1.00800           0
     28222 MEMB     247      POPC     H15Y     HAL2     0.900000E-01   1.00800           0
     28223 MEMB     247      POPC     C316     CTL3    -0.270000       12.0110           0
     28224 MEMB     247      POPC     H16X     HAL3     0.900000E-01   1.00800           0
     28225 MEMB     247      POPC     H16Y     HAL3     0.900000E-01   1.00800           0
     28226 MEMB     247      POPC     H16Z     HAL3     0.900000E-01   1.00800           0
     28227 MEMB     248      POPE     N        NH3L    -0.300000       14.0070           0
     28228 MEMB     248      POPE     HN1      HCL      0.330000       1.00800           0
     28229 MEMB     248      POPE     HN2      HCL      0.330000       1.00800           0
     28230 MEMB     248      POPE     HN3      HCL      0.330000       1.00800           0
     28231 MEMB     248      POPE     C12      CTL2     0.130000       12.0110           0
     28232 MEMB     248      POPE     H12A     HAL2     0.900000E-01   1.00800           0
     28233 MEMB     248      POPE     H12B     HAL2     0.900000E-01   1.00800           0
     28234 MEMB     248      POPE     C11      CTL2    -0.800000E-01   12.0110           0
     28235 MEMB     248      POPE     H11A     HAL2     0.900000E-01   1.00800           0
     28236 MEMB     248      POPE     H11B     HAL2     0.900000E-01   1.00800           0
     28237 MEMB     248      POPE     P        PL        1.50000       30.9740           0
     28238 MEMB     248      POPE     O13      O2L     -0.780000       15.9994           0
     28239 MEMB     248      POPE     O14      O2L     -0.780000       15.9994           0
     28240 MEMB     248      POPE     O11      OSLP    -0.570000       15.9994           0
     28241 MEMB     248      POPE     O12      OSLP    -0.570000       15.9994           0
     28242 MEMB     248      POPE     C1       CTL2    -0.800000E-01   12.0110           0
     28243 MEMB     248      POPE     HA       HAL2     0.900000E-01   1.00800           0
     28244 MEMB     248      POPE     HB       HAL2     0.900000E-01   1.00800           0
     28245 MEMB     248      POPE     C2       CTL1     0.170000       12.0110           0
     28246 MEMB     248      POPE     HS       HAL1     0.900000E-01   1.00800           0
     28247 MEMB     248      POPE     O21      OSL     -0.490000       15.9994           0
     28248 MEMB     248      POPE     C21      CL       0.900000       12.0110           0
     28249 MEMB     248      POPE     O22      OBL     -0.630000       15.9994           0
     28250 MEMB     248      POPE     C22      CTL2    -0.220000       12.0110           0
     28251 MEMB     248      POPE     H2R      HAL2     0.900000E-01   1.00800           0
     28252 MEMB     248      POPE     H2S      HAL2     0.900000E-01   1.00800           0
     28253 MEMB     248      POPE     C3       CTL2     0.800000E-01   12.0110           0
     28254 MEMB     248      POPE     HX       HAL2     0.900000E-01   1.00800           0
     28255 MEMB     248      POPE     HY       HAL2     0.900000E-01   1.00800           0
     28256 MEMB     248      POPE     O31      OSL     -0.490000       15.9994           0
     28257 MEMB     248      POPE     C31      CL       0.900000       12.0110           0
     28258 MEMB     248      POPE     O32      OBL     -0.630000       15.9994           0
     28259 MEMB     248      POPE     C32      CTL2    -0.220000       12.0110           0
     28260 MEMB     248      POPE     H2X      HAL2     0.900000E-01   1.00800           0
     28261 MEMB     248      POPE     H2Y      HAL2     0.900000E-01   1.00800           0
     28262 MEMB     248      POPE     C23      CTL2    -0.180000       12.0110           0
     28263 MEMB     248      POPE     H3R      HAL2     0.900000E-01   1.00800           0
     28264 MEMB     248      POPE     H3S      HAL2     0.900000E-01   1.00800           0
     28265 MEMB     248      POPE     C24      CTL2    -0.180000       12.0110           0
     28266 MEMB     248      POPE     H4R      HAL2     0.900000E-01   1.00800           0
     28267 MEMB     248      POPE     H4S      HAL2     0.900000E-01   1.00800           0
     28268 MEMB     248      POPE     C25      CTL2    -0.180000       12.0110           0
     28269 MEMB     248      POPE     H5R      HAL2     0.900000E-01   1.00800           0
     28270 MEMB     248      POPE     H5S      HAL2     0.900000E-01   1.00800           0
     28271 MEMB     248      POPE     C26      CTL2    -0.180000       12.0110           0
     28272 MEMB     248      POPE     H6R      HAL2     0.900000E-01   1.00800           0
     28273 MEMB     248      POPE     H6S      HAL2     0.900000E-01   1.00800           0
     28274 MEMB     248      POPE     C27      CTL2    -0.180000       12.0110           0
     28275 MEMB     248      POPE     H7R      HAL2     0.900000E-01   1.00800           0
     28276 MEMB     248      POPE     H7S      HAL2     0.900000E-01   1.00800           0
     28277 MEMB     248      POPE     C28      CTL2    -0.180000       12.0110           0
     28278 MEMB     248      POPE     H8R      HAL2     0.900000E-01   1.00800           0
     28279 MEMB     248      POPE     H8S      HAL2     0.900000E-01   1.00800           0
     28280 MEMB     248      POPE     C29      CEL1    -0.150000       12.0110           0
     28281 MEMB     248      POPE     H91      HEL1     0.150000       1.00800           0
     28282 MEMB     248      POPE     C210     CEL1    -0.150000       12.0110           0
     28283 MEMB     248      POPE     H101     HEL1     0.150000       1.00800           0
     28284 MEMB     248      POPE     C211     CTL2    -0.180000       12.0110           0
     28285 MEMB     248      POPE     H11R     HAL2     0.900000E-01   1.00800           0
     28286 MEMB     248      POPE     H11S     HAL2     0.900000E-01   1.00800           0
     28287 MEMB     248      POPE     C212     CTL2    -0.180000       12.0110           0
     28288 MEMB     248      POPE     H12R     HAL2     0.900000E-01   1.00800           0
     28289 MEMB     248      POPE     H12S     HAL2     0.900000E-01   1.00800           0
     28290 MEMB     248      POPE     C213     CTL2    -0.180000       12.0110           0
     28291 MEMB     248      POPE     H13R     HAL2     0.900000E-01   1.00800           0
     28292 MEMB     248      POPE     H13S     HAL2     0.900000E-01   1.00800           0
     28293 MEMB     248      POPE     C214     CTL2    -0.180000       12.0110           0
     28294 MEMB     248      POPE     H14R     HAL2     0.900000E-01   1.00800           0
     28295 MEMB     248      POPE     H14S     HAL2     0.900000E-01   1.00800           0
     28296 MEMB     248      POPE     C215     CTL2    -0.180000       12.0110           0
     28297 MEMB     248      POPE     H15R     HAL2     0.900000E-01   1.00800           0
     28298 MEMB     248      POPE     H15S     HAL2     0.900000E-01   1.00800           0
     28299 MEMB     248      POPE     C216     CTL2    -0.180000       12.0110           0
     28300 MEMB     248      POPE     H16R     HAL2     0.900000E-01   1.00800           0
     28301 MEMB     248      POPE     H16S     HAL2     0.900000E-01   1.00800           0
     28302 MEMB     248      POPE     C217     CTL2    -0.180000       12.0110           0
     28303 MEMB     248      POPE     H17R     HAL2     0.900000E-01   1.00800           0
     28304 MEMB     248      POPE     H17S     HAL2     0.900000E-01   1.00800           0
     28305 MEMB     248      POPE     C218     CTL3    -0.270000       12.0110           0
     28306 MEMB     248      POPE     H18R     HAL3     0.900000E-01   1.00800           0
     28307 MEMB     248      POPE     H18S     HAL3     0.900000E-01   1.00800           0
     28308 MEMB     248      POPE     H18T     HAL3     0.900000E-01   1.00800           0
     28309 MEMB     248      POPE     C33      CTL2    -0.180000       12.0110           0
     28310 MEMB     248      POPE     H3X      HAL2     0.900000E-01   1.00800           0
     28311 MEMB     248      POPE     H3Y      HAL2     0.900000E-01   1.00800           0
     28312 MEMB     248      POPE     C34      CTL2    -0.180000       12.0110           0
     28313 MEMB     248      POPE     H4X      HAL2     0.900000E-01   1.00800           0
     28314 MEMB     248      POPE     H4Y      HAL2     0.900000E-01   1.00800           0
     28315 MEMB     248      POPE     C35      CTL2    -0.180000       12.0110           0
     28316 MEMB     248      POPE     H5X      HAL2     0.900000E-01   1.00800           0
     28317 MEMB     248      POPE     H5Y      HAL2     0.900000E-01   1.00800           0
     28318 MEMB     248      POPE     C36      CTL2    -0.180000       12.0110           0
     28319 MEMB     248      POPE     H6X      HAL2     0.900000E-01   1.00800           0
     28320 MEMB     248      POPE     H6Y      HAL2     0.900000E-01   1.00800           0
     28321 MEMB     248      POPE     C37      CTL2    -0.180000       12.0110           0
     28322 MEMB     248      POPE     H7X      HAL2     0.900000E-01   1.00800           0
     28323 MEMB     248      POPE     H7Y      HAL2     0.900000E-01   1.00800           0
     28324 MEMB     248      POPE     C38      CTL2    -0.180000       12.0110           0
     28325 MEMB     248      POPE     H8X      HAL2     0.900000E-01   1.00800           0
     28326 MEMB     248      POPE     H8Y      HAL2     0.900000E-01   1.00800           0
     28327 MEMB     248      POPE     C39      CTL2    -0.180000       12.0110           0
     28328 MEMB     248      POPE     H9X      HAL2     0.900000E-01   1.00800           0
     28329 MEMB     248      POPE     H9Y      HAL2     0.900000E-01   1.00800           0
     28330 MEMB     248      POPE     C310     CTL2    -0.180000       12.0110           0
     28331 MEMB     248      POPE     H10X     HAL2     0.900000E-01   1.00800           0
     28332 MEMB     248      POPE     H10Y     HAL2     0.900000E-01   1.00800           0
     28333 MEMB     248      POPE     C311     CTL2    -0.180000       12.0110           0
     28334 MEMB     248      POPE     H11X     HAL2     0.900000E-01   1.00800           0
     28335 MEMB     248      POPE     H11Y     HAL2     0.900000E-01   1.00800           0
     28336 MEMB     248      POPE     C312     CTL2    -0.180000       12.0110           0
     28337 MEMB     248      POPE     H12X     HAL2     0.900000E-01   1.00800           0
     28338 MEMB     248      POPE     H12Y     HAL2     0.900000E-01   1.00800           0
     28339 MEMB     248      POPE     C313     CTL2    -0.180000       12.0110           0
     28340 MEMB     248      POPE     H13X     HAL2     0.900000E-01   1.00800           0
     28341 MEMB     248      POPE     H13Y     HAL2     0.900000E-01   1.00800           0
     28342 MEMB     248      POPE     C314     CTL2    -0.180000       12.0110           0
     28343 MEMB     248      POPE     H14X     HAL2     0.900000E-01   1.00800           0
     28344 MEMB     248      POPE     H14Y     HAL2     0.900000E-01   1.00800           0
     28345 MEMB     248      POPE     C315     CTL2    -0.180000       12.0110           0
     28346 MEMB     248      POPE     H15X     HAL2     0.900000E-01   1.00800           0
     28347 MEMB     248      POPE     H15Y     HAL2     0.900000E-01   1.00800           0
     28348 MEMB     248      POPE     C316     CTL3    -0.270000       12.0110           0
     28349 MEMB     248      POPE     H16X     HAL3     0.900000E-01   1.00800           0
     28350 MEMB     248      POPE     H16Y     HAL3     0.900000E-01   1.00800           0
     28351 MEMB     248      POPE     H16Z     HAL3     0.900000E-01   1.00800           0
     28352 MEMB     249      POPE     N        NH3L    -0.300000       14.0070           0
     28353 MEMB     249      POPE     HN1      HCL      0.330000       1.00800           0
     28354 MEMB     249      POPE     HN2      HCL      0.330000       1.00800           0
     28355 MEMB     249      POPE     HN3      HCL      0.330000       1.00800           0
     28356 MEMB     249      POPE     C12      CTL2     0.130000       12.0110           0
     28357 MEMB     249      POPE     H12A     HAL2     0.900000E-01   1.00800           0
     28358 MEMB     249      POPE     H12B     HAL2     0.900000E-01   1.00800           0
     28359 MEMB     249      POPE     C11      CTL2    -0.800000E-01   12.0110           0
     28360 MEMB     249      POPE     H11A     HAL2     0.900000E-01   1.00800           0
     28361 MEMB     249      POPE     H11B     HAL2     0.900000E-01   1.00800           0
     28362 MEMB     249      POPE     P        PL        1.50000       30.9740           0
     28363 MEMB     249      POPE     O13      O2L     -0.780000       15.9994           0
     28364 MEMB     249      POPE     O14      O2L     -0.780000       15.9994           0
     28365 MEMB     249      POPE     O11      OSLP    -0.570000       15.9994           0
     28366 MEMB     249      POPE     O12      OSLP    -0.570000       15.9994           0
     28367 MEMB     249      POPE     C1       CTL2    -0.800000E-01   12.0110           0
     28368 MEMB     249      POPE     HA       HAL2     0.900000E-01   1.00800           0
     28369 MEMB     249      POPE     HB       HAL2     0.900000E-01   1.00800           0
     28370 MEMB     249      POPE     C2       CTL1     0.170000       12.0110           0
     28371 MEMB     249      POPE     HS       HAL1     0.900000E-01   1.00800           0
     28372 MEMB     249      POPE     O21      OSL     -0.490000       15.9994           0
     28373 MEMB     249      POPE     C21      CL       0.900000       12.0110           0
     28374 MEMB     249      POPE     O22      OBL     -0.630000       15.9994           0
     28375 MEMB     249      POPE     C22      CTL2    -0.220000       12.0110           0
     28376 MEMB     249      POPE     H2R      HAL2     0.900000E-01   1.00800           0
     28377 MEMB     249      POPE     H2S      HAL2     0.900000E-01   1.00800           0
     28378 MEMB     249      POPE     C3       CTL2     0.800000E-01   12.0110           0
     28379 MEMB     249      POPE     HX       HAL2     0.900000E-01   1.00800           0
     28380 MEMB     249      POPE     HY       HAL2     0.900000E-01   1.00800           0
     28381 MEMB     249      POPE     O31      OSL     -0.490000       15.9994           0
     28382 MEMB     249      POPE     C31      CL       0.900000       12.0110           0
     28383 MEMB     249      POPE     O32      OBL     -0.630000       15.9994           0
     28384 MEMB     249      POPE     C32      CTL2    -0.220000       12.0110           0
     28385 MEMB     249      POPE     H2X      HAL2     0.900000E-01   1.00800           0
     28386 MEMB     249      POPE     H2Y      HAL2     0.900000E-01   1.00800           0
     28387 MEMB     249      POPE     C23      CTL2    -0.180000       12.0110           0
     28388 MEMB     249      POPE     H3R      HAL2     0.900000E-01   1.00800           0
     28389 MEMB     249      POPE     H3S      HAL2     0.900000E-01   1.00800           0
     28390 MEMB     249      POPE     C24      CTL2    -0.180000       12.0110           0
     28391 MEMB     249      POPE     H4R      HAL2     0.900000E-01   1.00800           0
     28392 MEMB     249      POPE     H4S      HAL2     0.900000E-01   1.00800           0
     28393 MEMB     249      POPE     C25      CTL2    -0.180000       12.0110           0
     28394 MEMB     249      POPE     H5R      HAL2     0.900000E-01   1.00800           0
     28395 MEMB     249      POPE     H5S      HAL2     0.900000E-01   1.00800           0
     28396 MEMB     249      POPE     C26      CTL2    -0.180000       12.0110           0
     28397 MEMB     249      POPE     H6R      HAL2     0.900000E-01   1.00800           0
     28398 MEMB     249      POPE     H6S      HAL2     0.900000E-01   1.00800           0
     28399 MEMB     249      POPE     C27      CTL2    -0.180000       12.0110           0
     28400 MEMB     249      POPE     H7R      HAL2     0.900000E-01   1.00800           0
     28401 MEMB     249      POPE     H7S      HAL2     0.900000E-01   1.00800           0
     28402 MEMB     249      POPE     C28      CTL2    -0.180000       12.0110           0
     28403 MEMB     249      POPE     H8R      HAL2     0.900000E-01   1.00800           0
     28404 MEMB     249      POPE     H8S      HAL2     0.900000E-01   1.00800           0
     28405 MEMB     249      POPE     C29      CEL1    -0.150000       12.0110           0
     28406 MEMB     249      POPE     H91      HEL1     0.150000       1.00800           0
     28407 MEMB     249      POPE     C210     CEL1    -0.150000       12.0110           0
     28408 MEMB     249      POPE     H101     HEL1     0.150000       1.00800           0
     28409 MEMB     249      POPE     C211     CTL2    -0.180000       12.0110           0
     28410 MEMB     249      POPE     H11R     HAL2     0.900000E-01   1.00800           0
     28411 MEMB     249      POPE     H11S     HAL2     0.900000E-01   1.00800           0
     28412 MEMB     249      POPE     C212     CTL2    -0.180000       12.0110           0
     28413 MEMB     249      POPE     H12R     HAL2     0.900000E-01   1.00800           0
     28414 MEMB     249      POPE     H12S     HAL2     0.900000E-01   1.00800           0
     28415 MEMB     249      POPE     C213     CTL2    -0.180000       12.0110           0
     28416 MEMB     249      POPE     H13R     HAL2     0.900000E-01   1.00800           0
     28417 MEMB     249      POPE     H13S     HAL2     0.900000E-01   1.00800           0
     28418 MEMB     249      POPE     C214     CTL2    -0.180000       12.0110           0
     28419 MEMB     249      POPE     H14R     HAL2     0.900000E-01   1.00800           0
     28420 MEMB     249      POPE     H14S     HAL2     0.900000E-01   1.00800           0
     28421 MEMB     249      POPE     C215     CTL2    -0.180000       12.0110           0
     28422 MEMB     249      POPE     H15R     HAL2     0.900000E-01   1.00800           0
     28423 MEMB     249      POPE     H15S     HAL2     0.900000E-01   1.00800           0
     28424 MEMB     249      POPE     C216     CTL2    -0.180000       12.0110           0
     28425 MEMB     249      POPE     H16R     HAL2     0.900000E-01   1.00800           0
     28426 MEMB     249      POPE     H16S     HAL2     0.900000E-01   1.00800           0
     28427 MEMB     249      POPE     C217     CTL2    -0.180000       12.0110           0
     28428 MEMB     249      POPE     H17R     HAL2     0.900000E-01   1.00800           0
     28429 MEMB     249      POPE     H17S     HAL2     0.900000E-01   1.00800           0
     28430 MEMB     249      POPE     C218     CTL3    -0.270000       12.0110           0
     28431 MEMB     249      POPE     H18R     HAL3     0.900000E-01   1.00800           0
     28432 MEMB     249      POPE     H18S     HAL3     0.900000E-01   1.00800           0
     28433 MEMB     249      POPE     H18T     HAL3     0.900000E-01   1.00800           0
     28434 MEMB     249      POPE     C33      CTL2    -0.180000       12.0110           0
     28435 MEMB     249      POPE     H3X      HAL2     0.900000E-01   1.00800           0
     28436 MEMB     249      POPE     H3Y      HAL2     0.900000E-01   1.00800           0
     28437 MEMB     249      POPE     C34      CTL2    -0.180000       12.0110           0
     28438 MEMB     249      POPE     H4X      HAL2     0.900000E-01   1.00800           0
     28439 MEMB     249      POPE     H4Y      HAL2     0.900000E-01   1.00800           0
     28440 MEMB     249      POPE     C35      CTL2    -0.180000       12.0110           0
     28441 MEMB     249      POPE     H5X      HAL2     0.900000E-01   1.00800           0
     28442 MEMB     249      POPE     H5Y      HAL2     0.900000E-01   1.00800           0
     28443 MEMB     249      POPE     C36      CTL2    -0.180000       12.0110           0
     28444 MEMB     249      POPE     H6X      HAL2     0.900000E-01   1.00800           0
     28445 MEMB     249      POPE     H6Y      HAL2     0.900000E-01   1.00800           0
     28446 MEMB     249      POPE     C37      CTL2    -0.180000       12.0110           0
     28447 MEMB     249      POPE     H7X      HAL2     0.900000E-01   1.00800           0
     28448 MEMB     249      POPE     H7Y      HAL2     0.900000E-01   1.00800           0
     28449 MEMB     249      POPE     C38      CTL2    -0.180000       12.0110           0
     28450 MEMB     249      POPE     H8X      HAL2     0.900000E-01   1.00800           0
     28451 MEMB     249      POPE     H8Y      HAL2     0.900000E-01   1.00800           0
     28452 MEMB     249      POPE     C39      CTL2    -0.180000       12.0110           0
     28453 MEMB     249      POPE     H9X      HAL2     0.900000E-01   1.00800           0
     28454 MEMB     249      POPE     H9Y      HAL2     0.900000E-01   1.00800           0
     28455 MEMB     249      POPE     C310     CTL2    -0.180000       12.0110           0
     28456 MEMB     249      POPE     H10X     HAL2     0.900000E-01   1.00800           0
     28457 MEMB     249      POPE     H10Y     HAL2     0.900000E-01   1.00800           0
     28458 MEMB     249      POPE     C311     CTL2    -0.180000       12.0110           0
     28459 MEMB     249      POPE     H11X     HAL2     0.900000E-01   1.00800           0
     28460 MEMB     249      POPE     H11Y     HAL2     0.900000E-01   1.00800           0
     28461 MEMB     249      POPE     C312     CTL2    -0.180000       12.0110           0
     28462 MEMB     249      POPE     H12X     HAL2     0.900000E-01   1.00800           0
     28463 MEMB     249      POPE     H12Y     HAL2     0.900000E-01   1.00800           0
     28464 MEMB     249      POPE     C313     CTL2    -0.180000       12.0110           0
     28465 MEMB     249      POPE     H13X     HAL2     0.900000E-01   1.00800           0
     28466 MEMB     249      POPE     H13Y     HAL2     0.900000E-01   1.00800           0
     28467 MEMB     249      POPE     C314     CTL2    -0.180000       12.0110           0
     28468 MEMB     249      POPE     H14X     HAL2     0.900000E-01   1.00800           0
     28469 MEMB     249      POPE     H14Y     HAL2     0.900000E-01   1.00800           0
     28470 MEMB     249      POPE     C315     CTL2    -0.180000       12.0110           0
     28471 MEMB     249      POPE     H15X     HAL2     0.900000E-01   1.00800           0
     28472 MEMB     249      POPE     H15Y     HAL2     0.900000E-01   1.00800           0
     28473 MEMB     249      POPE     C316     CTL3    -0.270000       12.0110           0
     28474 MEMB     249      POPE     H16X     HAL3     0.900000E-01   1.00800           0
     28475 MEMB     249      POPE     H16Y     HAL3     0.900000E-01   1.00800           0
     28476 MEMB     249      POPE     H16Z     HAL3     0.900000E-01   1.00800           0
     28477 MEMB     250      POPE     N        NH3L    -0.300000       14.0070           0
     28478 MEMB     250      POPE     HN1      HCL      0.330000       1.00800           0
     28479 MEMB     250      POPE     HN2      HCL      0.330000       1.00800           0
     28480 MEMB     250      POPE     HN3      HCL      0.330000       1.00800           0
     28481 MEMB     250      POPE     C12      CTL2     0.130000       12.0110           0
     28482 MEMB     250      POPE     H12A     HAL2     0.900000E-01   1.00800           0
     28483 MEMB     250      POPE     H12B     HAL2     0.900000E-01   1.00800           0
     28484 MEMB     250      POPE     C11      CTL2    -0.800000E-01   12.0110           0
     28485 MEMB     250      POPE     H11A     HAL2     0.900000E-01   1.00800           0
     28486 MEMB     250      POPE     H11B     HAL2     0.900000E-01   1.00800           0
     28487 MEMB     250      POPE     P        PL        1.50000       30.9740           0
     28488 MEMB     250      POPE     O13      O2L     -0.780000       15.9994           0
     28489 MEMB     250      POPE     O14      O2L     -0.780000       15.9994           0
     28490 MEMB     250      POPE     O11      OSLP    -0.570000       15.9994           0
     28491 MEMB     250      POPE     O12      OSLP    -0.570000       15.9994           0
     28492 MEMB     250      POPE     C1       CTL2    -0.800000E-01   12.0110           0
     28493 MEMB     250      POPE     HA       HAL2     0.900000E-01   1.00800           0
     28494 MEMB     250      POPE     HB       HAL2     0.900000E-01   1.00800           0
     28495 MEMB     250      POPE     C2       CTL1     0.170000       12.0110           0
     28496 MEMB     250      POPE     HS       HAL1     0.900000E-01   1.00800           0
     28497 MEMB     250      POPE     O21      OSL     -0.490000       15.9994           0
     28498 MEMB     250      POPE     C21      CL       0.900000       12.0110           0
     28499 MEMB     250      POPE     O22      OBL     -0.630000       15.9994           0
     28500 MEMB     250      POPE     C22      CTL2    -0.220000       12.0110           0
     28501 MEMB     250      POPE     H2R      HAL2     0.900000E-01   1.00800           0
     28502 MEMB     250      POPE     H2S      HAL2     0.900000E-01   1.00800           0
     28503 MEMB     250      POPE     C3       CTL2     0.800000E-01   12.0110           0
     28504 MEMB     250      POPE     HX       HAL2     0.900000E-01   1.00800           0
     28505 MEMB     250      POPE     HY       HAL2     0.900000E-01   1.00800           0
     28506 MEMB     250      POPE     O31      OSL     -0.490000       15.9994           0
     28507 MEMB     250      POPE     C31      CL       0.900000       12.0110           0
     28508 MEMB     250      POPE     O32      OBL     -0.630000       15.9994           0
     28509 MEMB     250      POPE     C32      CTL2    -0.220000       12.0110           0
     28510 MEMB     250      POPE     H2X      HAL2     0.900000E-01   1.00800           0
     28511 MEMB     250      POPE     H2Y      HAL2     0.900000E-01   1.00800           0
     28512 MEMB     250      POPE     C23      CTL2    -0.180000       12.0110           0
     28513 MEMB     250      POPE     H3R      HAL2     0.900000E-01   1.00800           0
     28514 MEMB     250      POPE     H3S      HAL2     0.900000E-01   1.00800           0
     28515 MEMB     250      POPE     C24      CTL2    -0.180000       12.0110           0
     28516 MEMB     250      POPE     H4R      HAL2     0.900000E-01   1.00800           0
     28517 MEMB     250      POPE     H4S      HAL2     0.900000E-01   1.00800           0
     28518 MEMB     250      POPE     C25      CTL2    -0.180000       12.0110           0
     28519 MEMB     250      POPE     H5R      HAL2     0.900000E-01   1.00800           0
     28520 MEMB     250      POPE     H5S      HAL2     0.900000E-01   1.00800           0
     28521 MEMB     250      POPE     C26      CTL2    -0.180000       12.0110           0
     28522 MEMB     250      POPE     H6R      HAL2     0.900000E-01   1.00800           0
     28523 MEMB     250      POPE     H6S      HAL2     0.900000E-01   1.00800           0
     28524 MEMB     250      POPE     C27      CTL2    -0.180000       12.0110           0
     28525 MEMB     250      POPE     H7R      HAL2     0.900000E-01   1.00800           0
     28526 MEMB     250      POPE     H7S      HAL2     0.900000E-01   1.00800           0
     28527 MEMB     250      POPE     C28      CTL2    -0.180000       12.0110           0
     28528 MEMB     250      POPE     H8R      HAL2     0.900000E-01   1.00800           0
     28529 MEMB     250      POPE     H8S      HAL2     0.900000E-01   1.00800           0
     28530 MEMB     250      POPE     C29      CEL1    -0.150000       12.0110           0
     28531 MEMB     250      POPE     H91      HEL1     0.150000       1.00800           0
     28532 MEMB     250      POPE     C210     CEL1    -0.150000       12.0110           0
     28533 MEMB     250      POPE     H101     HEL1     0.150000       1.00800           0
     28534 MEMB     250      POPE     C211     CTL2    -0.180000       12.0110           0
     28535 MEMB     250      POPE     H11R     HAL2     0.900000E-01   1.00800           0
     28536 MEMB     250      POPE     H11S     HAL2     0.900000E-01   1.00800           0
     28537 MEMB     250      POPE     C212     CTL2    -0.180000       12.0110           0
     28538 MEMB     250      POPE     H12R     HAL2     0.900000E-01   1.00800           0
     28539 MEMB     250      POPE     H12S     HAL2     0.900000E-01   1.00800           0
     28540 MEMB     250      POPE     C213     CTL2    -0.180000       12.0110           0
     28541 MEMB     250      POPE     H13R     HAL2     0.900000E-01   1.00800           0
     28542 MEMB     250      POPE     H13S     HAL2     0.900000E-01   1.00800           0
     28543 MEMB     250      POPE     C214     CTL2    -0.180000       12.0110           0
     28544 MEMB     250      POPE     H14R     HAL2     0.900000E-01   1.00800           0
     28545 MEMB     250      POPE     H14S     HAL2     0.900000E-01   1.00800           0
     28546 MEMB     250      POPE     C215     CTL2    -0.180000       12.0110           0
     28547 MEMB     250      POPE     H15R     HAL2     0.900000E-01   1.00800           0
     28548 MEMB     250      POPE     H15S     HAL2     0.900000E-01   1.00800           0
     28549 MEMB     250      POPE     C216     CTL2    -0.180000       12.0110           0
     28550 MEMB     250      POPE     H16R     HAL2     0.900000E-01   1.00800           0
     28551 MEMB     250      POPE     H16S     HAL2     0.900000E-01   1.00800           0
     28552 MEMB     250      POPE     C217     CTL2    -0.180000       12.0110           0
     28553 MEMB     250      POPE     H17R     HAL2     0.900000E-01   1.00800           0
     28554 MEMB     250      POPE     H17S     HAL2     0.900000E-01   1.00800           0
     28555 MEMB     250      POPE     C218     CTL3    -0.270000       12.0110           0
     28556 MEMB     250      POPE     H18R     HAL3     0.900000E-01   1.00800           0
     28557 MEMB     250      POPE     H18S     HAL3     0.900000E-01   1.00800           0
     28558 MEMB     250      POPE     H18T     HAL3     0.900000E-01   1.00800           0
     28559 MEMB     250      POPE     C33      CTL2    -0.180000       12.0110           0
     28560 MEMB     250      POPE     H3X      HAL2     0.900000E-01   1.00800           0
     28561 MEMB     250      POPE     H3Y      HAL2     0.900000E-01   1.00800           0
     28562 MEMB     250      POPE     C34      CTL2    -0.180000       12.0110           0
     28563 MEMB     250      POPE     H4X      HAL2     0.900000E-01   1.00800           0
     28564 MEMB     250      POPE     H4Y      HAL2     0.900000E-01   1.00800           0
     28565 MEMB     250      POPE     C35      CTL2    -0.180000       12.0110           0
     28566 MEMB     250      POPE     H5X      HAL2     0.900000E-01   1.00800           0
     28567 MEMB     250      POPE     H5Y      HAL2     0.900000E-01   1.00800           0
     28568 MEMB     250      POPE     C36      CTL2    -0.180000       12.0110           0
     28569 MEMB     250      POPE     H6X      HAL2     0.900000E-01   1.00800           0
     28570 MEMB     250      POPE     H6Y      HAL2     0.900000E-01   1.00800           0
     28571 MEMB     250      POPE     C37      CTL2    -0.180000       12.0110           0
     28572 MEMB     250      POPE     H7X      HAL2     0.900000E-01   1.00800           0
     28573 MEMB     250      POPE     H7Y      HAL2     0.900000E-01   1.00800           0
     28574 MEMB     250      POPE     C38      CTL2    -0.180000       12.0110           0
     28575 MEMB     250      POPE     H8X      HAL2     0.900000E-01   1.00800           0
     28576 MEMB     250      POPE     H8Y      HAL2     0.900000E-01   1.00800           0
     28577 MEMB     250      POPE     C39      CTL2    -0.180000       12.0110           0
     28578 MEMB     250      POPE     H9X      HAL2     0.900000E-01   1.00800           0
     28579 MEMB     250      POPE     H9Y      HAL2     0.900000E-01   1.00800           0
     28580 MEMB     250      POPE     C310     CTL2    -0.180000       12.0110           0
     28581 MEMB     250      POPE     H10X     HAL2     0.900000E-01   1.00800           0
     28582 MEMB     250      POPE     H10Y     HAL2     0.900000E-01   1.00800           0
     28583 MEMB     250      POPE     C311     CTL2    -0.180000       12.0110           0
     28584 MEMB     250      POPE     H11X     HAL2     0.900000E-01   1.00800           0
     28585 MEMB     250      POPE     H11Y     HAL2     0.900000E-01   1.00800           0
     28586 MEMB     250      POPE     C312     CTL2    -0.180000       12.0110           0
     28587 MEMB     250      POPE     H12X     HAL2     0.900000E-01   1.00800           0
     28588 MEMB     250      POPE     H12Y     HAL2     0.900000E-01   1.00800           0
     28589 MEMB     250      POPE     C313     CTL2    -0.180000       12.0110           0
     28590 MEMB     250      POPE     H13X     HAL2     0.900000E-01   1.00800           0
     28591 MEMB     250      POPE     H13Y     HAL2     0.900000E-01   1.00800           0
     28592 MEMB     250      POPE     C314     CTL2    -0.180000       12.0110           0
     28593 MEMB     250      POPE     H14X     HAL2     0.900000E-01   1.00800           0
     28594 MEMB     250      POPE     H14Y     HAL2     0.900000E-01   1.00800           0
     28595 MEMB     250      POPE     C315     CTL2    -0.180000       12.0110           0
     28596 MEMB     250      POPE     H15X     HAL2     0.900000E-01   1.00800           0
     28597 MEMB     250      POPE     H15Y     HAL2     0.900000E-01   1.00800           0
     28598 MEMB     250      POPE     C316     CTL3    -0.270000       12.0110           0
     28599 MEMB     250      POPE     H16X     HAL3     0.900000E-01   1.00800           0
     28600 MEMB     250      POPE     H16Y     HAL3     0.900000E-01   1.00800           0
     28601 MEMB     250      POPE     H16Z     HAL3     0.900000E-01   1.00800           0
     28602 MEMB     251      POPE     N        NH3L    -0.300000       14.0070           0
     28603 MEMB     251      POPE     HN1      HCL      0.330000       1.00800           0
     28604 MEMB     251      POPE     HN2      HCL      0.330000       1.00800           0
     28605 MEMB     251      POPE     HN3      HCL      0.330000       1.00800           0
     28606 MEMB     251      POPE     C12      CTL2     0.130000       12.0110           0
     28607 MEMB     251      POPE     H12A     HAL2     0.900000E-01   1.00800           0
     28608 MEMB     251      POPE     H12B     HAL2     0.900000E-01   1.00800           0
     28609 MEMB     251      POPE     C11      CTL2    -0.800000E-01   12.0110           0
     28610 MEMB     251      POPE     H11A     HAL2     0.900000E-01   1.00800           0
     28611 MEMB     251      POPE     H11B     HAL2     0.900000E-01   1.00800           0
     28612 MEMB     251      POPE     P        PL        1.50000       30.9740           0
     28613 MEMB     251      POPE     O13      O2L     -0.780000       15.9994           0
     28614 MEMB     251      POPE     O14      O2L     -0.780000       15.9994           0
     28615 MEMB     251      POPE     O11      OSLP    -0.570000       15.9994           0
     28616 MEMB     251      POPE     O12      OSLP    -0.570000       15.9994           0
     28617 MEMB     251      POPE     C1       CTL2    -0.800000E-01   12.0110           0
     28618 MEMB     251      POPE     HA       HAL2     0.900000E-01   1.00800           0
     28619 MEMB     251      POPE     HB       HAL2     0.900000E-01   1.00800           0
     28620 MEMB     251      POPE     C2       CTL1     0.170000       12.0110           0
     28621 MEMB     251      POPE     HS       HAL1     0.900000E-01   1.00800           0
     28622 MEMB     251      POPE     O21      OSL     -0.490000       15.9994           0
     28623 MEMB     251      POPE     C21      CL       0.900000       12.0110           0
     28624 MEMB     251      POPE     O22      OBL     -0.630000       15.9994           0
     28625 MEMB     251      POPE     C22      CTL2    -0.220000       12.0110           0
     28626 MEMB     251      POPE     H2R      HAL2     0.900000E-01   1.00800           0
     28627 MEMB     251      POPE     H2S      HAL2     0.900000E-01   1.00800           0
     28628 MEMB     251      POPE     C3       CTL2     0.800000E-01   12.0110           0
     28629 MEMB     251      POPE     HX       HAL2     0.900000E-01   1.00800           0
     28630 MEMB     251      POPE     HY       HAL2     0.900000E-01   1.00800           0
     28631 MEMB     251      POPE     O31      OSL     -0.490000       15.9994           0
     28632 MEMB     251      POPE     C31      CL       0.900000       12.0110           0
     28633 MEMB     251      POPE     O32      OBL     -0.630000       15.9994           0
     28634 MEMB     251      POPE     C32      CTL2    -0.220000       12.0110           0
     28635 MEMB     251      POPE     H2X      HAL2     0.900000E-01   1.00800           0
     28636 MEMB     251      POPE     H2Y      HAL2     0.900000E-01   1.00800           0
     28637 MEMB     251      POPE     C23      CTL2    -0.180000       12.0110           0
     28638 MEMB     251      POPE     H3R      HAL2     0.900000E-01   1.00800           0
     28639 MEMB     251      POPE     H3S      HAL2     0.900000E-01   1.00800           0
     28640 MEMB     251      POPE     C24      CTL2    -0.180000       12.0110           0
     28641 MEMB     251      POPE     H4R      HAL2     0.900000E-01   1.00800           0
     28642 MEMB     251      POPE     H4S      HAL2     0.900000E-01   1.00800           0
     28643 MEMB     251      POPE     C25      CTL2    -0.180000       12.0110           0
     28644 MEMB     251      POPE     H5R      HAL2     0.900000E-01   1.00800           0
     28645 MEMB     251      POPE     H5S      HAL2     0.900000E-01   1.00800           0
     28646 MEMB     251      POPE     C26      CTL2    -0.180000       12.0110           0
     28647 MEMB     251      POPE     H6R      HAL2     0.900000E-01   1.00800           0
     28648 MEMB     251      POPE     H6S      HAL2     0.900000E-01   1.00800           0
     28649 MEMB     251      POPE     C27      CTL2    -0.180000       12.0110           0
     28650 MEMB     251      POPE     H7R      HAL2     0.900000E-01   1.00800           0
     28651 MEMB     251      POPE     H7S      HAL2     0.900000E-01   1.00800           0
     28652 MEMB     251      POPE     C28      CTL2    -0.180000       12.0110           0
     28653 MEMB     251      POPE     H8R      HAL2     0.900000E-01   1.00800           0
     28654 MEMB     251      POPE     H8S      HAL2     0.900000E-01   1.00800           0
     28655 MEMB     251      POPE     C29      CEL1    -0.150000       12.0110           0
     28656 MEMB     251      POPE     H91      HEL1     0.150000       1.00800           0
     28657 MEMB     251      POPE     C210     CEL1    -0.150000       12.0110           0
     28658 MEMB     251      POPE     H101     HEL1     0.150000       1.00800           0
     28659 MEMB     251      POPE     C211     CTL2    -0.180000       12.0110           0
     28660 MEMB     251      POPE     H11R     HAL2     0.900000E-01   1.00800           0
     28661 MEMB     251      POPE     H11S     HAL2     0.900000E-01   1.00800           0
     28662 MEMB     251      POPE     C212     CTL2    -0.180000       12.0110           0
     28663 MEMB     251      POPE     H12R     HAL2     0.900000E-01   1.00800           0
     28664 MEMB     251      POPE     H12S     HAL2     0.900000E-01   1.00800           0
     28665 MEMB     251      POPE     C213     CTL2    -0.180000       12.0110           0
     28666 MEMB     251      POPE     H13R     HAL2     0.900000E-01   1.00800           0
     28667 MEMB     251      POPE     H13S     HAL2     0.900000E-01   1.00800           0
     28668 MEMB     251      POPE     C214     CTL2    -0.180000       12.0110           0
     28669 MEMB     251      POPE     H14R     HAL2     0.900000E-01   1.00800           0
     28670 MEMB     251      POPE     H14S     HAL2     0.900000E-01   1.00800           0
     28671 MEMB     251      POPE     C215     CTL2    -0.180000       12.0110           0
     28672 MEMB     251      POPE     H15R     HAL2     0.900000E-01   1.00800           0
     28673 MEMB     251      POPE     H15S     HAL2     0.900000E-01   1.00800           0
     28674 MEMB     251      POPE     C216     CTL2    -0.180000       12.0110           0
     28675 MEMB     251      POPE     H16R     HAL2     0.900000E-01   1.00800           0
     28676 MEMB     251      POPE     H16S     HAL2     0.900000E-01   1.00800           0
     28677 MEMB     251      POPE     C217     CTL2    -0.180000       12.0110           0
     28678 MEMB     251      POPE     H17R     HAL2     0.900000E-01   1.00800           0
     28679 MEMB     251      POPE     H17S     HAL2     0.900000E-01   1.00800           0
     28680 MEMB     251      POPE     C218     CTL3    -0.270000       12.0110           0
     28681 MEMB     251      POPE     H18R     HAL3     0.900000E-01   1.00800           0
     28682 MEMB     251      POPE     H18S     HAL3     0.900000E-01   1.00800           0
     28683 MEMB     251      POPE     H18T     HAL3     0.900000E-01   1.00800           0
     28684 MEMB     251      POPE     C33      CTL2    -0.180000       12.0110           0
     28685 MEMB     251      POPE     H3X      HAL2     0.900000E-01   1.00800           0
     28686 MEMB     251      POPE     H3Y      HAL2     0.900000E-01   1.00800           0
     28687 MEMB     251      POPE     C34      CTL2    -0.180000       12.0110           0
     28688 MEMB     251      POPE     H4X      HAL2     0.900000E-01   1.00800           0
     28689 MEMB     251      POPE     H4Y      HAL2     0.900000E-01   1.00800           0
     28690 MEMB     251      POPE     C35      CTL2    -0.180000       12.0110           0
     28691 MEMB     251      POPE     H5X      HAL2     0.900000E-01   1.00800           0
     28692 MEMB     251      POPE     H5Y      HAL2     0.900000E-01   1.00800           0
     28693 MEMB     251      POPE     C36      CTL2    -0.180000       12.0110           0
     28694 MEMB     251      POPE     H6X      HAL2     0.900000E-01   1.00800           0
     28695 MEMB     251      POPE     H6Y      HAL2     0.900000E-01   1.00800           0
     28696 MEMB     251      POPE     C37      CTL2    -0.180000       12.0110           0
     28697 MEMB     251      POPE     H7X      HAL2     0.900000E-01   1.00800           0
     28698 MEMB     251      POPE     H7Y      HAL2     0.900000E-01   1.00800           0
     28699 MEMB     251      POPE     C38      CTL2    -0.180000       12.0110           0
     28700 MEMB     251      POPE     H8X      HAL2     0.900000E-01   1.00800           0
     28701 MEMB     251      POPE     H8Y      HAL2     0.900000E-01   1.00800           0
     28702 MEMB     251      POPE     C39      CTL2    -0.180000       12.0110           0
     28703 MEMB     251      POPE     H9X      HAL2     0.900000E-01   1.00800           0
     28704 MEMB     251      POPE     H9Y      HAL2     0.900000E-01   1.00800           0
     28705 MEMB     251      POPE     C310     CTL2    -0.180000       12.0110           0
     28706 MEMB     251      POPE     H10X     HAL2     0.900000E-01   1.00800           0
     28707 MEMB     251      POPE     H10Y     HAL2     0.900000E-01   1.00800           0
     28708 MEMB     251      POPE     C311     CTL2    -0.180000       12.0110           0
     28709 MEMB     251      POPE     H11X     HAL2     0.900000E-01   1.00800           0
     28710 MEMB     251      POPE     H11Y     HAL2     0.900000E-01   1.00800           0
     28711 MEMB     251      POPE     C312     CTL2    -0.180000       12.0110           0
     28712 MEMB     251      POPE     H12X     HAL2     0.900000E-01   1.00800           0
     28713 MEMB     251      POPE     H12Y     HAL2     0.900000E-01   1.00800           0
     28714 MEMB     251      POPE     C313     CTL2    -0.180000       12.0110           0
     28715 MEMB     251      POPE     H13X     HAL2     0.900000E-01   1.00800           0
     28716 MEMB     251      POPE     H13Y     HAL2     0.900000E-01   1.00800           0
     28717 MEMB     251      POPE     C314     CTL2    -0.180000       12.0110           0
     28718 MEMB     251      POPE     H14X     HAL2     0.900000E-01   1.00800           0
     28719 MEMB     251      POPE     H14Y     HAL2     0.900000E-01   1.00800           0
     28720 MEMB     251      POPE     C315     CTL2    -0.180000       12.0110           0
     28721 MEMB     251      POPE     H15X     HAL2     0.900000E-01   1.00800           0
     28722 MEMB     251      POPE     H15Y     HAL2     0.900000E-01   1.00800           0
     28723 MEMB     251      POPE     C316     CTL3    -0.270000       12.0110           0
     28724 MEMB     251      POPE     H16X     HAL3     0.900000E-01   1.00800           0
     28725 MEMB     251      POPE     H16Y     HAL3     0.900000E-01   1.00800           0
     28726 MEMB     251      POPE     H16Z     HAL3     0.900000E-01   1.00800           0
     28727 MEMB     252      POPE     N        NH3L    -0.300000       14.0070           0
     28728 MEMB     252      POPE     HN1      HCL      0.330000       1.00800           0
     28729 MEMB     252      POPE     HN2      HCL      0.330000       1.00800           0
     28730 MEMB     252      POPE     HN3      HCL      0.330000       1.00800           0
     28731 MEMB     252      POPE     C12      CTL2     0.130000       12.0110           0
     28732 MEMB     252      POPE     H12A     HAL2     0.900000E-01   1.00800           0
     28733 MEMB     252      POPE     H12B     HAL2     0.900000E-01   1.00800           0
     28734 MEMB     252      POPE     C11      CTL2    -0.800000E-01   12.0110           0
     28735 MEMB     252      POPE     H11A     HAL2     0.900000E-01   1.00800           0
     28736 MEMB     252      POPE     H11B     HAL2     0.900000E-01   1.00800           0
     28737 MEMB     252      POPE     P        PL        1.50000       30.9740           0
     28738 MEMB     252      POPE     O13      O2L     -0.780000       15.9994           0
     28739 MEMB     252      POPE     O14      O2L     -0.780000       15.9994           0
     28740 MEMB     252      POPE     O11      OSLP    -0.570000       15.9994           0
     28741 MEMB     252      POPE     O12      OSLP    -0.570000       15.9994           0
     28742 MEMB     252      POPE     C1       CTL2    -0.800000E-01   12.0110           0
     28743 MEMB     252      POPE     HA       HAL2     0.900000E-01   1.00800           0
     28744 MEMB     252      POPE     HB       HAL2     0.900000E-01   1.00800           0
     28745 MEMB     252      POPE     C2       CTL1     0.170000       12.0110           0
     28746 MEMB     252      POPE     HS       HAL1     0.900000E-01   1.00800           0
     28747 MEMB     252      POPE     O21      OSL     -0.490000       15.9994           0
     28748 MEMB     252      POPE     C21      CL       0.900000       12.0110           0
     28749 MEMB     252      POPE     O22      OBL     -0.630000       15.9994           0
     28750 MEMB     252      POPE     C22      CTL2    -0.220000       12.0110           0
     28751 MEMB     252      POPE     H2R      HAL2     0.900000E-01   1.00800           0
     28752 MEMB     252      POPE     H2S      HAL2     0.900000E-01   1.00800           0
     28753 MEMB     252      POPE     C3       CTL2     0.800000E-01   12.0110           0
     28754 MEMB     252      POPE     HX       HAL2     0.900000E-01   1.00800           0
     28755 MEMB     252      POPE     HY       HAL2     0.900000E-01   1.00800           0
     28756 MEMB     252      POPE     O31      OSL     -0.490000       15.9994           0
     28757 MEMB     252      POPE     C31      CL       0.900000       12.0110           0
     28758 MEMB     252      POPE     O32      OBL     -0.630000       15.9994           0
     28759 MEMB     252      POPE     C32      CTL2    -0.220000       12.0110           0
     28760 MEMB     252      POPE     H2X      HAL2     0.900000E-01   1.00800           0
     28761 MEMB     252      POPE     H2Y      HAL2     0.900000E-01   1.00800           0
     28762 MEMB     252      POPE     C23      CTL2    -0.180000       12.0110           0
     28763 MEMB     252      POPE     H3R      HAL2     0.900000E-01   1.00800           0
     28764 MEMB     252      POPE     H3S      HAL2     0.900000E-01   1.00800           0
     28765 MEMB     252      POPE     C24      CTL2    -0.180000       12.0110           0
     28766 MEMB     252      POPE     H4R      HAL2     0.900000E-01   1.00800           0
     28767 MEMB     252      POPE     H4S      HAL2     0.900000E-01   1.00800           0
     28768 MEMB     252      POPE     C25      CTL2    -0.180000       12.0110           0
     28769 MEMB     252      POPE     H5R      HAL2     0.900000E-01   1.00800           0
     28770 MEMB     252      POPE     H5S      HAL2     0.900000E-01   1.00800           0
     28771 MEMB     252      POPE     C26      CTL2    -0.180000       12.0110           0
     28772 MEMB     252      POPE     H6R      HAL2     0.900000E-01   1.00800           0
     28773 MEMB     252      POPE     H6S      HAL2     0.900000E-01   1.00800           0
     28774 MEMB     252      POPE     C27      CTL2    -0.180000       12.0110           0
     28775 MEMB     252      POPE     H7R      HAL2     0.900000E-01   1.00800           0
     28776 MEMB     252      POPE     H7S      HAL2     0.900000E-01   1.00800           0
     28777 MEMB     252      POPE     C28      CTL2    -0.180000       12.0110           0
     28778 MEMB     252      POPE     H8R      HAL2     0.900000E-01   1.00800           0
     28779 MEMB     252      POPE     H8S      HAL2     0.900000E-01   1.00800           0
     28780 MEMB     252      POPE     C29      CEL1    -0.150000       12.0110           0
     28781 MEMB     252      POPE     H91      HEL1     0.150000       1.00800           0
     28782 MEMB     252      POPE     C210     CEL1    -0.150000       12.0110           0
     28783 MEMB     252      POPE     H101     HEL1     0.150000       1.00800           0
     28784 MEMB     252      POPE     C211     CTL2    -0.180000       12.0110           0
     28785 MEMB     252      POPE     H11R     HAL2     0.900000E-01   1.00800           0
     28786 MEMB     252      POPE     H11S     HAL2     0.900000E-01   1.00800           0
     28787 MEMB     252      POPE     C212     CTL2    -0.180000       12.0110           0
     28788 MEMB     252      POPE     H12R     HAL2     0.900000E-01   1.00800           0
     28789 MEMB     252      POPE     H12S     HAL2     0.900000E-01   1.00800           0
     28790 MEMB     252      POPE     C213     CTL2    -0.180000       12.0110           0
     28791 MEMB     252      POPE     H13R     HAL2     0.900000E-01   1.00800           0
     28792 MEMB     252      POPE     H13S     HAL2     0.900000E-01   1.00800           0
     28793 MEMB     252      POPE     C214     CTL2    -0.180000       12.0110           0
     28794 MEMB     252      POPE     H14R     HAL2     0.900000E-01   1.00800           0
     28795 MEMB     252      POPE     H14S     HAL2     0.900000E-01   1.00800           0
     28796 MEMB     252      POPE     C215     CTL2    -0.180000       12.0110           0
     28797 MEMB     252      POPE     H15R     HAL2     0.900000E-01   1.00800           0
     28798 MEMB     252      POPE     H15S     HAL2     0.900000E-01   1.00800           0
     28799 MEMB     252      POPE     C216     CTL2    -0.180000       12.0110           0
     28800 MEMB     252      POPE     H16R     HAL2     0.900000E-01   1.00800           0
     28801 MEMB     252      POPE     H16S     HAL2     0.900000E-01   1.00800           0
     28802 MEMB     252      POPE     C217     CTL2    -0.180000       12.0110           0
     28803 MEMB     252      POPE     H17R     HAL2     0.900000E-01   1.00800           0
     28804 MEMB     252      POPE     H17S     HAL2     0.900000E-01   1.00800           0
     28805 MEMB     252      POPE     C218     CTL3    -0.270000       12.0110           0
     28806 MEMB     252      POPE     H18R     HAL3     0.900000E-01   1.00800           0
     28807 MEMB     252      POPE     H18S     HAL3     0.900000E-01   1.00800           0
     28808 MEMB     252      POPE     H18T     HAL3     0.900000E-01   1.00800           0
     28809 MEMB     252      POPE     C33      CTL2    -0.180000       12.0110           0
     28810 MEMB     252      POPE     H3X      HAL2     0.900000E-01   1.00800           0
     28811 MEMB     252      POPE     H3Y      HAL2     0.900000E-01   1.00800           0
     28812 MEMB     252      POPE     C34      CTL2    -0.180000       12.0110           0
     28813 MEMB     252      POPE     H4X      HAL2     0.900000E-01   1.00800           0
     28814 MEMB     252      POPE     H4Y      HAL2     0.900000E-01   1.00800           0
     28815 MEMB     252      POPE     C35      CTL2    -0.180000       12.0110           0
     28816 MEMB     252      POPE     H5X      HAL2     0.900000E-01   1.00800           0
     28817 MEMB     252      POPE     H5Y      HAL2     0.900000E-01   1.00800           0
     28818 MEMB     252      POPE     C36      CTL2    -0.180000       12.0110           0
     28819 MEMB     252      POPE     H6X      HAL2     0.900000E-01   1.00800           0
     28820 MEMB     252      POPE     H6Y      HAL2     0.900000E-01   1.00800           0
     28821 MEMB     252      POPE     C37      CTL2    -0.180000       12.0110           0
     28822 MEMB     252      POPE     H7X      HAL2     0.900000E-01   1.00800           0
     28823 MEMB     252      POPE     H7Y      HAL2     0.900000E-01   1.00800           0
     28824 MEMB     252      POPE     C38      CTL2    -0.180000       12.0110           0
     28825 MEMB     252      POPE     H8X      HAL2     0.900000E-01   1.00800           0
     28826 MEMB     252      POPE     H8Y      HAL2     0.900000E-01   1.00800           0
     28827 MEMB     252      POPE     C39      CTL2    -0.180000       12.0110           0
     28828 MEMB     252      POPE     H9X      HAL2     0.900000E-01   1.00800           0
     28829 MEMB     252      POPE     H9Y      HAL2     0.900000E-01   1.00800           0
     28830 MEMB     252      POPE     C310     CTL2    -0.180000       12.0110           0
     28831 MEMB     252      POPE     H10X     HAL2     0.900000E-01   1.00800           0
     28832 MEMB     252      POPE     H10Y     HAL2     0.900000E-01   1.00800           0
     28833 MEMB     252      POPE     C311     CTL2    -0.180000       12.0110           0
     28834 MEMB     252      POPE     H11X     HAL2     0.900000E-01   1.00800           0
     28835 MEMB     252      POPE     H11Y     HAL2     0.900000E-01   1.00800           0
     28836 MEMB     252      POPE     C312     CTL2    -0.180000       12.0110           0
     28837 MEMB     252      POPE     H12X     HAL2     0.900000E-01   1.00800           0
     28838 MEMB     252      POPE     H12Y     HAL2     0.900000E-01   1.00800           0
     28839 MEMB     252      POPE     C313     CTL2    -0.180000       12.0110           0
     28840 MEMB     252      POPE     H13X     HAL2     0.900000E-01   1.00800           0
     28841 MEMB     252      POPE     H13Y     HAL2     0.900000E-01   1.00800           0
     28842 MEMB     252      POPE     C314     CTL2    -0.180000       12.0110           0
     28843 MEMB     252      POPE     H14X     HAL2     0.900000E-01   1.00800           0
     28844 MEMB     252      POPE     H14Y     HAL2     0.900000E-01   1.00800           0
     28845 MEMB     252      POPE     C315     CTL2    -0.180000       12.0110           0
     28846 MEMB     252      POPE     H15X     HAL2     0.900000E-01   1.00800           0
     28847 MEMB     252      POPE     H15Y     HAL2     0.900000E-01   1.00800           0
     28848 MEMB     252      POPE     C316     CTL3    -0.270000       12.0110           0
     28849 MEMB     252      POPE     H16X     HAL3     0.900000E-01   1.00800           0
     28850 MEMB     252      POPE     H16Y     HAL3     0.900000E-01   1.00800           0
     28851 MEMB     252      POPE     H16Z     HAL3     0.900000E-01   1.00800           0
     28852 MEMB     253      POPC     N        NTL     -0.600000       14.0070           0
     28853 MEMB     253      POPC     C12      CTL2    -0.100000       12.0110           0
     28854 MEMB     253      POPC     H12A     HL       0.250000       1.00800           0
     28855 MEMB     253      POPC     H12B     HL       0.250000       1.00800           0
     28856 MEMB     253      POPC     C13      CTL5    -0.350000       12.0110           0
     28857 MEMB     253      POPC     H13A     HL       0.250000       1.00800           0
     28858 MEMB     253      POPC     H13B     HL       0.250000       1.00800           0
     28859 MEMB     253      POPC     H13C     HL       0.250000       1.00800           0
     28860 MEMB     253      POPC     C14      CTL5    -0.350000       12.0110           0
     28861 MEMB     253      POPC     H14A     HL       0.250000       1.00800           0
     28862 MEMB     253      POPC     H14B     HL       0.250000       1.00800           0
     28863 MEMB     253      POPC     H14C     HL       0.250000       1.00800           0
     28864 MEMB     253      POPC     C15      CTL5    -0.350000       12.0110           0
     28865 MEMB     253      POPC     H15A     HL       0.250000       1.00800           0
     28866 MEMB     253      POPC     H15B     HL       0.250000       1.00800           0
     28867 MEMB     253      POPC     H15C     HL       0.250000       1.00800           0
     28868 MEMB     253      POPC     C11      CTL2    -0.800000E-01   12.0110           0
     28869 MEMB     253      POPC     H11A     HAL2     0.900000E-01   1.00800           0
     28870 MEMB     253      POPC     H11B     HAL2     0.900000E-01   1.00800           0
     28871 MEMB     253      POPC     P        PL        1.50000       30.9740           0
     28872 MEMB     253      POPC     O13      O2L     -0.780000       15.9994           0
     28873 MEMB     253      POPC     O14      O2L     -0.780000       15.9994           0
     28874 MEMB     253      POPC     O12      OSLP    -0.570000       15.9994           0
     28875 MEMB     253      POPC     O11      OSLP    -0.570000       15.9994           0
     28876 MEMB     253      POPC     C1       CTL2    -0.800000E-01   12.0110           0
     28877 MEMB     253      POPC     HA       HAL2     0.900000E-01   1.00800           0
     28878 MEMB     253      POPC     HB       HAL2     0.900000E-01   1.00800           0
     28879 MEMB     253      POPC     C2       CTL1     0.170000       12.0110           0
     28880 MEMB     253      POPC     HS       HAL1     0.900000E-01   1.00800           0
     28881 MEMB     253      POPC     O21      OSL     -0.490000       15.9994           0
     28882 MEMB     253      POPC     C21      CL       0.900000       12.0110           0
     28883 MEMB     253      POPC     O22      OBL     -0.630000       15.9994           0
     28884 MEMB     253      POPC     C22      CTL2    -0.220000       12.0110           0
     28885 MEMB     253      POPC     H2R      HAL2     0.900000E-01   1.00800           0
     28886 MEMB     253      POPC     H2S      HAL2     0.900000E-01   1.00800           0
     28887 MEMB     253      POPC     C3       CTL2     0.800000E-01   12.0110           0
     28888 MEMB     253      POPC     HX       HAL2     0.900000E-01   1.00800           0
     28889 MEMB     253      POPC     HY       HAL2     0.900000E-01   1.00800           0
     28890 MEMB     253      POPC     O31      OSL     -0.490000       15.9994           0
     28891 MEMB     253      POPC     C31      CL       0.900000       12.0110           0
     28892 MEMB     253      POPC     O32      OBL     -0.630000       15.9994           0
     28893 MEMB     253      POPC     C32      CTL2    -0.220000       12.0110           0
     28894 MEMB     253      POPC     H2X      HAL2     0.900000E-01   1.00800           0
     28895 MEMB     253      POPC     H2Y      HAL2     0.900000E-01   1.00800           0
     28896 MEMB     253      POPC     C23      CTL2    -0.180000       12.0110           0
     28897 MEMB     253      POPC     H3R      HAL2     0.900000E-01   1.00800           0
     28898 MEMB     253      POPC     H3S      HAL2     0.900000E-01   1.00800           0
     28899 MEMB     253      POPC     C24      CTL2    -0.180000       12.0110           0
     28900 MEMB     253      POPC     H4R      HAL2     0.900000E-01   1.00800           0
     28901 MEMB     253      POPC     H4S      HAL2     0.900000E-01   1.00800           0
     28902 MEMB     253      POPC     C25      CTL2    -0.180000       12.0110           0
     28903 MEMB     253      POPC     H5R      HAL2     0.900000E-01   1.00800           0
     28904 MEMB     253      POPC     H5S      HAL2     0.900000E-01   1.00800           0
     28905 MEMB     253      POPC     C26      CTL2    -0.180000       12.0110           0
     28906 MEMB     253      POPC     H6R      HAL2     0.900000E-01   1.00800           0
     28907 MEMB     253      POPC     H6S      HAL2     0.900000E-01   1.00800           0
     28908 MEMB     253      POPC     C27      CTL2    -0.180000       12.0110           0
     28909 MEMB     253      POPC     H7R      HAL2     0.900000E-01   1.00800           0
     28910 MEMB     253      POPC     H7S      HAL2     0.900000E-01   1.00800           0
     28911 MEMB     253      POPC     C28      CTL2    -0.180000       12.0110           0
     28912 MEMB     253      POPC     H8R      HAL2     0.900000E-01   1.00800           0
     28913 MEMB     253      POPC     H8S      HAL2     0.900000E-01   1.00800           0
     28914 MEMB     253      POPC     C29      CEL1    -0.150000       12.0110           0
     28915 MEMB     253      POPC     H91      HEL1     0.150000       1.00800           0
     28916 MEMB     253      POPC     C210     CEL1    -0.150000       12.0110           0
     28917 MEMB     253      POPC     H101     HEL1     0.150000       1.00800           0
     28918 MEMB     253      POPC     C211     CTL2    -0.180000       12.0110           0
     28919 MEMB     253      POPC     H11R     HAL2     0.900000E-01   1.00800           0
     28920 MEMB     253      POPC     H11S     HAL2     0.900000E-01   1.00800           0
     28921 MEMB     253      POPC     C212     CTL2    -0.180000       12.0110           0
     28922 MEMB     253      POPC     H12R     HAL2     0.900000E-01   1.00800           0
     28923 MEMB     253      POPC     H12S     HAL2     0.900000E-01   1.00800           0
     28924 MEMB     253      POPC     C213     CTL2    -0.180000       12.0110           0
     28925 MEMB     253      POPC     H13R     HAL2     0.900000E-01   1.00800           0
     28926 MEMB     253      POPC     H13S     HAL2     0.900000E-01   1.00800           0
     28927 MEMB     253      POPC     C214     CTL2    -0.180000       12.0110           0
     28928 MEMB     253      POPC     H14R     HAL2     0.900000E-01   1.00800           0
     28929 MEMB     253      POPC     H14S     HAL2     0.900000E-01   1.00800           0
     28930 MEMB     253      POPC     C215     CTL2    -0.180000       12.0110           0
     28931 MEMB     253      POPC     H15R     HAL2     0.900000E-01   1.00800           0
     28932 MEMB     253      POPC     H15S     HAL2     0.900000E-01   1.00800           0
     28933 MEMB     253      POPC     C216     CTL2    -0.180000       12.0110           0
     28934 MEMB     253      POPC     H16R     HAL2     0.900000E-01   1.00800           0
     28935 MEMB     253      POPC     H16S     HAL2     0.900000E-01   1.00800           0
     28936 MEMB     253      POPC     C217     CTL2    -0.180000       12.0110           0
     28937 MEMB     253      POPC     H17R     HAL2     0.900000E-01   1.00800           0
     28938 MEMB     253      POPC     H17S     HAL2     0.900000E-01   1.00800           0
     28939 MEMB     253      POPC     C218     CTL3    -0.270000       12.0110           0
     28940 MEMB     253      POPC     H18R     HAL3     0.900000E-01   1.00800           0
     28941 MEMB     253      POPC     H18S     HAL3     0.900000E-01   1.00800           0
     28942 MEMB     253      POPC     H18T     HAL3     0.900000E-01   1.00800           0
     28943 MEMB     253      POPC     C33      CTL2    -0.180000       12.0110           0
     28944 MEMB     253      POPC     H3X      HAL2     0.900000E-01   1.00800           0
     28945 MEMB     253      POPC     H3Y      HAL2     0.900000E-01   1.00800           0
     28946 MEMB     253      POPC     C34      CTL2    -0.180000       12.0110           0
     28947 MEMB     253      POPC     H4X      HAL2     0.900000E-01   1.00800           0
     28948 MEMB     253      POPC     H4Y      HAL2     0.900000E-01   1.00800           0
     28949 MEMB     253      POPC     C35      CTL2    -0.180000       12.0110           0
     28950 MEMB     253      POPC     H5X      HAL2     0.900000E-01   1.00800           0
     28951 MEMB     253      POPC     H5Y      HAL2     0.900000E-01   1.00800           0
     28952 MEMB     253      POPC     C36      CTL2    -0.180000       12.0110           0
     28953 MEMB     253      POPC     H6X      HAL2     0.900000E-01   1.00800           0
     28954 MEMB     253      POPC     H6Y      HAL2     0.900000E-01   1.00800           0
     28955 MEMB     253      POPC     C37      CTL2    -0.180000       12.0110           0
     28956 MEMB     253      POPC     H7X      HAL2     0.900000E-01   1.00800           0
     28957 MEMB     253      POPC     H7Y      HAL2     0.900000E-01   1.00800           0
     28958 MEMB     253      POPC     C38      CTL2    -0.180000       12.0110           0
     28959 MEMB     253      POPC     H8X      HAL2     0.900000E-01   1.00800           0
     28960 MEMB     253      POPC     H8Y      HAL2     0.900000E-01   1.00800           0
     28961 MEMB     253      POPC     C39      CTL2    -0.180000       12.0110           0
     28962 MEMB     253      POPC     H9X      HAL2     0.900000E-01   1.00800           0
     28963 MEMB     253      POPC     H9Y      HAL2     0.900000E-01   1.00800           0
     28964 MEMB     253      POPC     C310     CTL2    -0.180000       12.0110           0
     28965 MEMB     253      POPC     H10X     HAL2     0.900000E-01   1.00800           0
     28966 MEMB     253      POPC     H10Y     HAL2     0.900000E-01   1.00800           0
     28967 MEMB     253      POPC     C311     CTL2    -0.180000       12.0110           0
     28968 MEMB     253      POPC     H11X     HAL2     0.900000E-01   1.00800           0
     28969 MEMB     253      POPC     H11Y     HAL2     0.900000E-01   1.00800           0
     28970 MEMB     253      POPC     C312     CTL2    -0.180000       12.0110           0
     28971 MEMB     253      POPC     H12X     HAL2     0.900000E-01   1.00800           0
     28972 MEMB     253      POPC     H12Y     HAL2     0.900000E-01   1.00800           0
     28973 MEMB     253      POPC     C313     CTL2    -0.180000       12.0110           0
     28974 MEMB     253      POPC     H13X     HAL2     0.900000E-01   1.00800           0
     28975 MEMB     253      POPC     H13Y     HAL2     0.900000E-01   1.00800           0
     28976 MEMB     253      POPC     C314     CTL2    -0.180000       12.0110           0
     28977 MEMB     253      POPC     H14X     HAL2     0.900000E-01   1.00800           0
     28978 MEMB     253      POPC     H14Y     HAL2     0.900000E-01   1.00800           0
     28979 MEMB     253      POPC     C315     CTL2    -0.180000       12.0110           0
     28980 MEMB     253      POPC     H15X     HAL2     0.900000E-01   1.00800           0
     28981 MEMB     253      POPC     H15Y     HAL2     0.900000E-01   1.00800           0
     28982 MEMB     253      POPC     C316     CTL3    -0.270000       12.0110           0
     28983 MEMB     253      POPC     H16X     HAL3     0.900000E-01   1.00800           0
     28984 MEMB     253      POPC     H16Y     HAL3     0.900000E-01   1.00800           0
     28985 MEMB     253      POPC     H16Z     HAL3     0.900000E-01   1.00800           0
     28986 MEMB     254      POPC     N        NTL     -0.600000       14.0070           0
     28987 MEMB     254      POPC     C12      CTL2    -0.100000       12.0110           0
     28988 MEMB     254      POPC     H12A     HL       0.250000       1.00800           0
     28989 MEMB     254      POPC     H12B     HL       0.250000       1.00800           0
     28990 MEMB     254      POPC     C13      CTL5    -0.350000       12.0110           0
     28991 MEMB     254      POPC     H13A     HL       0.250000       1.00800           0
     28992 MEMB     254      POPC     H13B     HL       0.250000       1.00800           0
     28993 MEMB     254      POPC     H13C     HL       0.250000       1.00800           0
     28994 MEMB     254      POPC     C14      CTL5    -0.350000       12.0110           0
     28995 MEMB     254      POPC     H14A     HL       0.250000       1.00800           0
     28996 MEMB     254      POPC     H14B     HL       0.250000       1.00800           0
     28997 MEMB     254      POPC     H14C     HL       0.250000       1.00800           0
     28998 MEMB     254      POPC     C15      CTL5    -0.350000       12.0110           0
     28999 MEMB     254      POPC     H15A     HL       0.250000       1.00800           0
     29000 MEMB     254      POPC     H15B     HL       0.250000       1.00800           0
     29001 MEMB     254      POPC     H15C     HL       0.250000       1.00800           0
     29002 MEMB     254      POPC     C11      CTL2    -0.800000E-01   12.0110           0
     29003 MEMB     254      POPC     H11A     HAL2     0.900000E-01   1.00800           0
     29004 MEMB     254      POPC     H11B     HAL2     0.900000E-01   1.00800           0
     29005 MEMB     254      POPC     P        PL        1.50000       30.9740           0
     29006 MEMB     254      POPC     O13      O2L     -0.780000       15.9994           0
     29007 MEMB     254      POPC     O14      O2L     -0.780000       15.9994           0
     29008 MEMB     254      POPC     O12      OSLP    -0.570000       15.9994           0
     29009 MEMB     254      POPC     O11      OSLP    -0.570000       15.9994           0
     29010 MEMB     254      POPC     C1       CTL2    -0.800000E-01   12.0110           0
     29011 MEMB     254      POPC     HA       HAL2     0.900000E-01   1.00800           0
     29012 MEMB     254      POPC     HB       HAL2     0.900000E-01   1.00800           0
     29013 MEMB     254      POPC     C2       CTL1     0.170000       12.0110           0
     29014 MEMB     254      POPC     HS       HAL1     0.900000E-01   1.00800           0
     29015 MEMB     254      POPC     O21      OSL     -0.490000       15.9994           0
     29016 MEMB     254      POPC     C21      CL       0.900000       12.0110           0
     29017 MEMB     254      POPC     O22      OBL     -0.630000       15.9994           0
     29018 MEMB     254      POPC     C22      CTL2    -0.220000       12.0110           0
     29019 MEMB     254      POPC     H2R      HAL2     0.900000E-01   1.00800           0
     29020 MEMB     254      POPC     H2S      HAL2     0.900000E-01   1.00800           0
     29021 MEMB     254      POPC     C3       CTL2     0.800000E-01   12.0110           0
     29022 MEMB     254      POPC     HX       HAL2     0.900000E-01   1.00800           0
     29023 MEMB     254      POPC     HY       HAL2     0.900000E-01   1.00800           0
     29024 MEMB     254      POPC     O31      OSL     -0.490000       15.9994           0
     29025 MEMB     254      POPC     C31      CL       0.900000       12.0110           0
     29026 MEMB     254      POPC     O32      OBL     -0.630000       15.9994           0
     29027 MEMB     254      POPC     C32      CTL2    -0.220000       12.0110           0
     29028 MEMB     254      POPC     H2X      HAL2     0.900000E-01   1.00800           0
     29029 MEMB     254      POPC     H2Y      HAL2     0.900000E-01   1.00800           0
     29030 MEMB     254      POPC     C23      CTL2    -0.180000       12.0110           0
     29031 MEMB     254      POPC     H3R      HAL2     0.900000E-01   1.00800           0
     29032 MEMB     254      POPC     H3S      HAL2     0.900000E-01   1.00800           0
     29033 MEMB     254      POPC     C24      CTL2    -0.180000       12.0110           0
     29034 MEMB     254      POPC     H4R      HAL2     0.900000E-01   1.00800           0
     29035 MEMB     254      POPC     H4S      HAL2     0.900000E-01   1.00800           0
     29036 MEMB     254      POPC     C25      CTL2    -0.180000       12.0110           0
     29037 MEMB     254      POPC     H5R      HAL2     0.900000E-01   1.00800           0
     29038 MEMB     254      POPC     H5S      HAL2     0.900000E-01   1.00800           0
     29039 MEMB     254      POPC     C26      CTL2    -0.180000       12.0110           0
     29040 MEMB     254      POPC     H6R      HAL2     0.900000E-01   1.00800           0
     29041 MEMB     254      POPC     H6S      HAL2     0.900000E-01   1.00800           0
     29042 MEMB     254      POPC     C27      CTL2    -0.180000       12.0110           0
     29043 MEMB     254      POPC     H7R      HAL2     0.900000E-01   1.00800           0
     29044 MEMB     254      POPC     H7S      HAL2     0.900000E-01   1.00800           0
     29045 MEMB     254      POPC     C28      CTL2    -0.180000       12.0110           0
     29046 MEMB     254      POPC     H8R      HAL2     0.900000E-01   1.00800           0
     29047 MEMB     254      POPC     H8S      HAL2     0.900000E-01   1.00800           0
     29048 MEMB     254      POPC     C29      CEL1    -0.150000       12.0110           0
     29049 MEMB     254      POPC     H91      HEL1     0.150000       1.00800           0
     29050 MEMB     254      POPC     C210     CEL1    -0.150000       12.0110           0
     29051 MEMB     254      POPC     H101     HEL1     0.150000       1.00800           0
     29052 MEMB     254      POPC     C211     CTL2    -0.180000       12.0110           0
     29053 MEMB     254      POPC     H11R     HAL2     0.900000E-01   1.00800           0
     29054 MEMB     254      POPC     H11S     HAL2     0.900000E-01   1.00800           0
     29055 MEMB     254      POPC     C212     CTL2    -0.180000       12.0110           0
     29056 MEMB     254      POPC     H12R     HAL2     0.900000E-01   1.00800           0
     29057 MEMB     254      POPC     H12S     HAL2     0.900000E-01   1.00800           0
     29058 MEMB     254      POPC     C213     CTL2    -0.180000       12.0110           0
     29059 MEMB     254      POPC     H13R     HAL2     0.900000E-01   1.00800           0
     29060 MEMB     254      POPC     H13S     HAL2     0.900000E-01   1.00800           0
     29061 MEMB     254      POPC     C214     CTL2    -0.180000       12.0110           0
     29062 MEMB     254      POPC     H14R     HAL2     0.900000E-01   1.00800           0
     29063 MEMB     254      POPC     H14S     HAL2     0.900000E-01   1.00800           0
     29064 MEMB     254      POPC     C215     CTL2    -0.180000       12.0110           0
     29065 MEMB     254      POPC     H15R     HAL2     0.900000E-01   1.00800           0
     29066 MEMB     254      POPC     H15S     HAL2     0.900000E-01   1.00800           0
     29067 MEMB     254      POPC     C216     CTL2    -0.180000       12.0110           0
     29068 MEMB     254      POPC     H16R     HAL2     0.900000E-01   1.00800           0
     29069 MEMB     254      POPC     H16S     HAL2     0.900000E-01   1.00800           0
     29070 MEMB     254      POPC     C217     CTL2    -0.180000       12.0110           0
     29071 MEMB     254      POPC     H17R     HAL2     0.900000E-01   1.00800           0
     29072 MEMB     254      POPC     H17S     HAL2     0.900000E-01   1.00800           0
     29073 MEMB     254      POPC     C218     CTL3    -0.270000       12.0110           0
     29074 MEMB     254      POPC     H18R     HAL3     0.900000E-01   1.00800           0
     29075 MEMB     254      POPC     H18S     HAL3     0.900000E-01   1.00800           0
     29076 MEMB     254      POPC     H18T     HAL3     0.900000E-01   1.00800           0
     29077 MEMB     254      POPC     C33      CTL2    -0.180000       12.0110           0
     29078 MEMB     254      POPC     H3X      HAL2     0.900000E-01   1.00800           0
     29079 MEMB     254      POPC     H3Y      HAL2     0.900000E-01   1.00800           0
     29080 MEMB     254      POPC     C34      CTL2    -0.180000       12.0110           0
     29081 MEMB     254      POPC     H4X      HAL2     0.900000E-01   1.00800           0
     29082 MEMB     254      POPC     H4Y      HAL2     0.900000E-01   1.00800           0
     29083 MEMB     254      POPC     C35      CTL2    -0.180000       12.0110           0
     29084 MEMB     254      POPC     H5X      HAL2     0.900000E-01   1.00800           0
     29085 MEMB     254      POPC     H5Y      HAL2     0.900000E-01   1.00800           0
     29086 MEMB     254      POPC     C36      CTL2    -0.180000       12.0110           0
     29087 MEMB     254      POPC     H6X      HAL2     0.900000E-01   1.00800           0
     29088 MEMB     254      POPC     H6Y      HAL2     0.900000E-01   1.00800           0
     29089 MEMB     254      POPC     C37      CTL2    -0.180000       12.0110           0
     29090 MEMB     254      POPC     H7X      HAL2     0.900000E-01   1.00800           0
     29091 MEMB     254      POPC     H7Y      HAL2     0.900000E-01   1.00800           0
     29092 MEMB     254      POPC     C38      CTL2    -0.180000       12.0110           0
     29093 MEMB     254      POPC     H8X      HAL2     0.900000E-01   1.00800           0
     29094 MEMB     254      POPC     H8Y      HAL2     0.900000E-01   1.00800           0
     29095 MEMB     254      POPC     C39      CTL2    -0.180000       12.0110           0
     29096 MEMB     254      POPC     H9X      HAL2     0.900000E-01   1.00800           0
     29097 MEMB     254      POPC     H9Y      HAL2     0.900000E-01   1.00800           0
     29098 MEMB     254      POPC     C310     CTL2    -0.180000       12.0110           0
     29099 MEMB     254      POPC     H10X     HAL2     0.900000E-01   1.00800           0
     29100 MEMB     254      POPC     H10Y     HAL2     0.900000E-01   1.00800           0
     29101 MEMB     254      POPC     C311     CTL2    -0.180000       12.0110           0
     29102 MEMB     254      POPC     H11X     HAL2     0.900000E-01   1.00800           0
     29103 MEMB     254      POPC     H11Y     HAL2     0.900000E-01   1.00800           0
     29104 MEMB     254      POPC     C312     CTL2    -0.180000       12.0110           0
     29105 MEMB     254      POPC     H12X     HAL2     0.900000E-01   1.00800           0
     29106 MEMB     254      POPC     H12Y     HAL2     0.900000E-01   1.00800           0
     29107 MEMB     254      POPC     C313     CTL2    -0.180000       12.0110           0
     29108 MEMB     254      POPC     H13X     HAL2     0.900000E-01   1.00800           0
     29109 MEMB     254      POPC     H13Y     HAL2     0.900000E-01   1.00800           0
     29110 MEMB     254      POPC     C314     CTL2    -0.180000       12.0110           0
     29111 MEMB     254      POPC     H14X     HAL2     0.900000E-01   1.00800           0
     29112 MEMB     254      POPC     H14Y     HAL2     0.900000E-01   1.00800           0
     29113 MEMB     254      POPC     C315     CTL2    -0.180000       12.0110           0
     29114 MEMB     254      POPC     H15X     HAL2     0.900000E-01   1.00800           0
     29115 MEMB     254      POPC     H15Y     HAL2     0.900000E-01   1.00800           0
     29116 MEMB     254      POPC     C316     CTL3    -0.270000       12.0110           0
     29117 MEMB     254      POPC     H16X     HAL3     0.900000E-01   1.00800           0
     29118 MEMB     254      POPC     H16Y     HAL3     0.900000E-01   1.00800           0
     29119 MEMB     254      POPC     H16Z     HAL3     0.900000E-01   1.00800           0
     29120 MEMB     255      POPE     N        NH3L    -0.300000       14.0070           0
     29121 MEMB     255      POPE     HN1      HCL      0.330000       1.00800           0
     29122 MEMB     255      POPE     HN2      HCL      0.330000       1.00800           0
     29123 MEMB     255      POPE     HN3      HCL      0.330000       1.00800           0
     29124 MEMB     255      POPE     C12      CTL2     0.130000       12.0110           0
     29125 MEMB     255      POPE     H12A     HAL2     0.900000E-01   1.00800           0
     29126 MEMB     255      POPE     H12B     HAL2     0.900000E-01   1.00800           0
     29127 MEMB     255      POPE     C11      CTL2    -0.800000E-01   12.0110           0
     29128 MEMB     255      POPE     H11A     HAL2     0.900000E-01   1.00800           0
     29129 MEMB     255      POPE     H11B     HAL2     0.900000E-01   1.00800           0
     29130 MEMB     255      POPE     P        PL        1.50000       30.9740           0
     29131 MEMB     255      POPE     O13      O2L     -0.780000       15.9994           0
     29132 MEMB     255      POPE     O14      O2L     -0.780000       15.9994           0
     29133 MEMB     255      POPE     O11      OSLP    -0.570000       15.9994           0
     29134 MEMB     255      POPE     O12      OSLP    -0.570000       15.9994           0
     29135 MEMB     255      POPE     C1       CTL2    -0.800000E-01   12.0110           0
     29136 MEMB     255      POPE     HA       HAL2     0.900000E-01   1.00800           0
     29137 MEMB     255      POPE     HB       HAL2     0.900000E-01   1.00800           0
     29138 MEMB     255      POPE     C2       CTL1     0.170000       12.0110           0
     29139 MEMB     255      POPE     HS       HAL1     0.900000E-01   1.00800           0
     29140 MEMB     255      POPE     O21      OSL     -0.490000       15.9994           0
     29141 MEMB     255      POPE     C21      CL       0.900000       12.0110           0
     29142 MEMB     255      POPE     O22      OBL     -0.630000       15.9994           0
     29143 MEMB     255      POPE     C22      CTL2    -0.220000       12.0110           0
     29144 MEMB     255      POPE     H2R      HAL2     0.900000E-01   1.00800           0
     29145 MEMB     255      POPE     H2S      HAL2     0.900000E-01   1.00800           0
     29146 MEMB     255      POPE     C3       CTL2     0.800000E-01   12.0110           0
     29147 MEMB     255      POPE     HX       HAL2     0.900000E-01   1.00800           0
     29148 MEMB     255      POPE     HY       HAL2     0.900000E-01   1.00800           0
     29149 MEMB     255      POPE     O31      OSL     -0.490000       15.9994           0
     29150 MEMB     255      POPE     C31      CL       0.900000       12.0110           0
     29151 MEMB     255      POPE     O32      OBL     -0.630000       15.9994           0
     29152 MEMB     255      POPE     C32      CTL2    -0.220000       12.0110           0
     29153 MEMB     255      POPE     H2X      HAL2     0.900000E-01   1.00800           0
     29154 MEMB     255      POPE     H2Y      HAL2     0.900000E-01   1.00800           0
     29155 MEMB     255      POPE     C23      CTL2    -0.180000       12.0110           0
     29156 MEMB     255      POPE     H3R      HAL2     0.900000E-01   1.00800           0
     29157 MEMB     255      POPE     H3S      HAL2     0.900000E-01   1.00800           0
     29158 MEMB     255      POPE     C24      CTL2    -0.180000       12.0110           0
     29159 MEMB     255      POPE     H4R      HAL2     0.900000E-01   1.00800           0
     29160 MEMB     255      POPE     H4S      HAL2     0.900000E-01   1.00800           0
     29161 MEMB     255      POPE     C25      CTL2    -0.180000       12.0110           0
     29162 MEMB     255      POPE     H5R      HAL2     0.900000E-01   1.00800           0
     29163 MEMB     255      POPE     H5S      HAL2     0.900000E-01   1.00800           0
     29164 MEMB     255      POPE     C26      CTL2    -0.180000       12.0110           0
     29165 MEMB     255      POPE     H6R      HAL2     0.900000E-01   1.00800           0
     29166 MEMB     255      POPE     H6S      HAL2     0.900000E-01   1.00800           0
     29167 MEMB     255      POPE     C27      CTL2    -0.180000       12.0110           0
     29168 MEMB     255      POPE     H7R      HAL2     0.900000E-01   1.00800           0
     29169 MEMB     255      POPE     H7S      HAL2     0.900000E-01   1.00800           0
     29170 MEMB     255      POPE     C28      CTL2    -0.180000       12.0110           0
     29171 MEMB     255      POPE     H8R      HAL2     0.900000E-01   1.00800           0
     29172 MEMB     255      POPE     H8S      HAL2     0.900000E-01   1.00800           0
     29173 MEMB     255      POPE     C29      CEL1    -0.150000       12.0110           0
     29174 MEMB     255      POPE     H91      HEL1     0.150000       1.00800           0
     29175 MEMB     255      POPE     C210     CEL1    -0.150000       12.0110           0
     29176 MEMB     255      POPE     H101     HEL1     0.150000       1.00800           0
     29177 MEMB     255      POPE     C211     CTL2    -0.180000       12.0110           0
     29178 MEMB     255      POPE     H11R     HAL2     0.900000E-01   1.00800           0
     29179 MEMB     255      POPE     H11S     HAL2     0.900000E-01   1.00800           0
     29180 MEMB     255      POPE     C212     CTL2    -0.180000       12.0110           0
     29181 MEMB     255      POPE     H12R     HAL2     0.900000E-01   1.00800           0
     29182 MEMB     255      POPE     H12S     HAL2     0.900000E-01   1.00800           0
     29183 MEMB     255      POPE     C213     CTL2    -0.180000       12.0110           0
     29184 MEMB     255      POPE     H13R     HAL2     0.900000E-01   1.00800           0
     29185 MEMB     255      POPE     H13S     HAL2     0.900000E-01   1.00800           0
     29186 MEMB     255      POPE     C214     CTL2    -0.180000       12.0110           0
     29187 MEMB     255      POPE     H14R     HAL2     0.900000E-01   1.00800           0
     29188 MEMB     255      POPE     H14S     HAL2     0.900000E-01   1.00800           0
     29189 MEMB     255      POPE     C215     CTL2    -0.180000       12.0110           0
     29190 MEMB     255      POPE     H15R     HAL2     0.900000E-01   1.00800           0
     29191 MEMB     255      POPE     H15S     HAL2     0.900000E-01   1.00800           0
     29192 MEMB     255      POPE     C216     CTL2    -0.180000       12.0110           0
     29193 MEMB     255      POPE     H16R     HAL2     0.900000E-01   1.00800           0
     29194 MEMB     255      POPE     H16S     HAL2     0.900000E-01   1.00800           0
     29195 MEMB     255      POPE     C217     CTL2    -0.180000       12.0110           0
     29196 MEMB     255      POPE     H17R     HAL2     0.900000E-01   1.00800           0
     29197 MEMB     255      POPE     H17S     HAL2     0.900000E-01   1.00800           0
     29198 MEMB     255      POPE     C218     CTL3    -0.270000       12.0110           0
     29199 MEMB     255      POPE     H18R     HAL3     0.900000E-01   1.00800           0
     29200 MEMB     255      POPE     H18S     HAL3     0.900000E-01   1.00800           0
     29201 MEMB     255      POPE     H18T     HAL3     0.900000E-01   1.00800           0
     29202 MEMB     255      POPE     C33      CTL2    -0.180000       12.0110           0
     29203 MEMB     255      POPE     H3X      HAL2     0.900000E-01   1.00800           0
     29204 MEMB     255      POPE     H3Y      HAL2     0.900000E-01   1.00800           0
     29205 MEMB     255      POPE     C34      CTL2    -0.180000       12.0110           0
     29206 MEMB     255      POPE     H4X      HAL2     0.900000E-01   1.00800           0
     29207 MEMB     255      POPE     H4Y      HAL2     0.900000E-01   1.00800           0
     29208 MEMB     255      POPE     C35      CTL2    -0.180000       12.0110           0
     29209 MEMB     255      POPE     H5X      HAL2     0.900000E-01   1.00800           0
     29210 MEMB     255      POPE     H5Y      HAL2     0.900000E-01   1.00800           0
     29211 MEMB     255      POPE     C36      CTL2    -0.180000       12.0110           0
     29212 MEMB     255      POPE     H6X      HAL2     0.900000E-01   1.00800           0
     29213 MEMB     255      POPE     H6Y      HAL2     0.900000E-01   1.00800           0
     29214 MEMB     255      POPE     C37      CTL2    -0.180000       12.0110           0
     29215 MEMB     255      POPE     H7X      HAL2     0.900000E-01   1.00800           0
     29216 MEMB     255      POPE     H7Y      HAL2     0.900000E-01   1.00800           0
     29217 MEMB     255      POPE     C38      CTL2    -0.180000       12.0110           0
     29218 MEMB     255      POPE     H8X      HAL2     0.900000E-01   1.00800           0
     29219 MEMB     255      POPE     H8Y      HAL2     0.900000E-01   1.00800           0
     29220 MEMB     255      POPE     C39      CTL2    -0.180000       12.0110           0
     29221 MEMB     255      POPE     H9X      HAL2     0.900000E-01   1.00800           0
     29222 MEMB     255      POPE     H9Y      HAL2     0.900000E-01   1.00800           0
     29223 MEMB     255      POPE     C310     CTL2    -0.180000       12.0110           0
     29224 MEMB     255      POPE     H10X     HAL2     0.900000E-01   1.00800           0
     29225 MEMB     255      POPE     H10Y     HAL2     0.900000E-01   1.00800           0
     29226 MEMB     255      POPE     C311     CTL2    -0.180000       12.0110           0
     29227 MEMB     255      POPE     H11X     HAL2     0.900000E-01   1.00800           0
     29228 MEMB     255      POPE     H11Y     HAL2     0.900000E-01   1.00800           0
     29229 MEMB     255      POPE     C312     CTL2    -0.180000       12.0110           0
     29230 MEMB     255      POPE     H12X     HAL2     0.900000E-01   1.00800           0
     29231 MEMB     255      POPE     H12Y     HAL2     0.900000E-01   1.00800           0
     29232 MEMB     255      POPE     C313     CTL2    -0.180000       12.0110           0
     29233 MEMB     255      POPE     H13X     HAL2     0.900000E-01   1.00800           0
     29234 MEMB     255      POPE     H13Y     HAL2     0.900000E-01   1.00800           0
     29235 MEMB     255      POPE     C314     CTL2    -0.180000       12.0110           0
     29236 MEMB     255      POPE     H14X     HAL2     0.900000E-01   1.00800           0
     29237 MEMB     255      POPE     H14Y     HAL2     0.900000E-01   1.00800           0
     29238 MEMB     255      POPE     C315     CTL2    -0.180000       12.0110           0
     29239 MEMB     255      POPE     H15X     HAL2     0.900000E-01   1.00800           0
     29240 MEMB     255      POPE     H15Y     HAL2     0.900000E-01   1.00800           0
     29241 MEMB     255      POPE     C316     CTL3    -0.270000       12.0110           0
     29242 MEMB     255      POPE     H16X     HAL3     0.900000E-01   1.00800           0
     29243 MEMB     255      POPE     H16Y     HAL3     0.900000E-01   1.00800           0
     29244 MEMB     255      POPE     H16Z     HAL3     0.900000E-01   1.00800           0
     29245 MEMB     256      POPC     N        NTL     -0.600000       14.0070           0
     29246 MEMB     256      POPC     C12      CTL2    -0.100000       12.0110           0
     29247 MEMB     256      POPC     H12A     HL       0.250000       1.00800           0
     29248 MEMB     256      POPC     H12B     HL       0.250000       1.00800           0
     29249 MEMB     256      POPC     C13      CTL5    -0.350000       12.0110           0
     29250 MEMB     256      POPC     H13A     HL       0.250000       1.00800           0
     29251 MEMB     256      POPC     H13B     HL       0.250000       1.00800           0
     29252 MEMB     256      POPC     H13C     HL       0.250000       1.00800           0
     29253 MEMB     256      POPC     C14      CTL5    -0.350000       12.0110           0
     29254 MEMB     256      POPC     H14A     HL       0.250000       1.00800           0
     29255 MEMB     256      POPC     H14B     HL       0.250000       1.00800           0
     29256 MEMB     256      POPC     H14C     HL       0.250000       1.00800           0
     29257 MEMB     256      POPC     C15      CTL5    -0.350000       12.0110           0
     29258 MEMB     256      POPC     H15A     HL       0.250000       1.00800           0
     29259 MEMB     256      POPC     H15B     HL       0.250000       1.00800           0
     29260 MEMB     256      POPC     H15C     HL       0.250000       1.00800           0
     29261 MEMB     256      POPC     C11      CTL2    -0.800000E-01   12.0110           0
     29262 MEMB     256      POPC     H11A     HAL2     0.900000E-01   1.00800           0
     29263 MEMB     256      POPC     H11B     HAL2     0.900000E-01   1.00800           0
     29264 MEMB     256      POPC     P        PL        1.50000       30.9740           0
     29265 MEMB     256      POPC     O13      O2L     -0.780000       15.9994           0
     29266 MEMB     256      POPC     O14      O2L     -0.780000       15.9994           0
     29267 MEMB     256      POPC     O12      OSLP    -0.570000       15.9994           0
     29268 MEMB     256      POPC     O11      OSLP    -0.570000       15.9994           0
     29269 MEMB     256      POPC     C1       CTL2    -0.800000E-01   12.0110           0
     29270 MEMB     256      POPC     HA       HAL2     0.900000E-01   1.00800           0
     29271 MEMB     256      POPC     HB       HAL2     0.900000E-01   1.00800           0
     29272 MEMB     256      POPC     C2       CTL1     0.170000       12.0110           0
     29273 MEMB     256      POPC     HS       HAL1     0.900000E-01   1.00800           0
     29274 MEMB     256      POPC     O21      OSL     -0.490000       15.9994           0
     29275 MEMB     256      POPC     C21      CL       0.900000       12.0110           0
     29276 MEMB     256      POPC     O22      OBL     -0.630000       15.9994           0
     29277 MEMB     256      POPC     C22      CTL2    -0.220000       12.0110           0
     29278 MEMB     256      POPC     H2R      HAL2     0.900000E-01   1.00800           0
     29279 MEMB     256      POPC     H2S      HAL2     0.900000E-01   1.00800           0
     29280 MEMB     256      POPC     C3       CTL2     0.800000E-01   12.0110           0
     29281 MEMB     256      POPC     HX       HAL2     0.900000E-01   1.00800           0
     29282 MEMB     256      POPC     HY       HAL2     0.900000E-01   1.00800           0
     29283 MEMB     256      POPC     O31      OSL     -0.490000       15.9994           0
     29284 MEMB     256      POPC     C31      CL       0.900000       12.0110           0
     29285 MEMB     256      POPC     O32      OBL     -0.630000       15.9994           0
     29286 MEMB     256      POPC     C32      CTL2    -0.220000       12.0110           0
     29287 MEMB     256      POPC     H2X      HAL2     0.900000E-01   1.00800           0
     29288 MEMB     256      POPC     H2Y      HAL2     0.900000E-01   1.00800           0
     29289 MEMB     256      POPC     C23      CTL2    -0.180000       12.0110           0
     29290 MEMB     256      POPC     H3R      HAL2     0.900000E-01   1.00800           0
     29291 MEMB     256      POPC     H3S      HAL2     0.900000E-01   1.00800           0
     29292 MEMB     256      POPC     C24      CTL2    -0.180000       12.0110           0
     29293 MEMB     256      POPC     H4R      HAL2     0.900000E-01   1.00800           0
     29294 MEMB     256      POPC     H4S      HAL2     0.900000E-01   1.00800           0
     29295 MEMB     256      POPC     C25      CTL2    -0.180000       12.0110           0
     29296 MEMB     256      POPC     H5R      HAL2     0.900000E-01   1.00800           0
     29297 MEMB     256      POPC     H5S      HAL2     0.900000E-01   1.00800           0
     29298 MEMB     256      POPC     C26      CTL2    -0.180000       12.0110           0
     29299 MEMB     256      POPC     H6R      HAL2     0.900000E-01   1.00800           0
     29300 MEMB     256      POPC     H6S      HAL2     0.900000E-01   1.00800           0
     29301 MEMB     256      POPC     C27      CTL2    -0.180000       12.0110           0
     29302 MEMB     256      POPC     H7R      HAL2     0.900000E-01   1.00800           0
     29303 MEMB     256      POPC     H7S      HAL2     0.900000E-01   1.00800           0
     29304 MEMB     256      POPC     C28      CTL2    -0.180000       12.0110           0
     29305 MEMB     256      POPC     H8R      HAL2     0.900000E-01   1.00800           0
     29306 MEMB     256      POPC     H8S      HAL2     0.900000E-01   1.00800           0
     29307 MEMB     256      POPC     C29      CEL1    -0.150000       12.0110           0
     29308 MEMB     256      POPC     H91      HEL1     0.150000       1.00800           0
     29309 MEMB     256      POPC     C210     CEL1    -0.150000       12.0110           0
     29310 MEMB     256      POPC     H101     HEL1     0.150000       1.00800           0
     29311 MEMB     256      POPC     C211     CTL2    -0.180000       12.0110           0
     29312 MEMB     256      POPC     H11R     HAL2     0.900000E-01   1.00800           0
     29313 MEMB     256      POPC     H11S     HAL2     0.900000E-01   1.00800           0
     29314 MEMB     256      POPC     C212     CTL2    -0.180000       12.0110           0
     29315 MEMB     256      POPC     H12R     HAL2     0.900000E-01   1.00800           0
     29316 MEMB     256      POPC     H12S     HAL2     0.900000E-01   1.00800           0
     29317 MEMB     256      POPC     C213     CTL2    -0.180000       12.0110           0
     29318 MEMB     256      POPC     H13R     HAL2     0.900000E-01   1.00800           0
     29319 MEMB     256      POPC     H13S     HAL2     0.900000E-01   1.00800           0
     29320 MEMB     256      POPC     C214     CTL2    -0.180000       12.0110           0
     29321 MEMB     256      POPC     H14R     HAL2     0.900000E-01   1.00800           0
     29322 MEMB     256      POPC     H14S     HAL2     0.900000E-01   1.00800           0
     29323 MEMB     256      POPC     C215     CTL2    -0.180000       12.0110           0
     29324 MEMB     256      POPC     H15R     HAL2     0.900000E-01   1.00800           0
     29325 MEMB     256      POPC     H15S     HAL2     0.900000E-01   1.00800           0
     29326 MEMB     256      POPC     C216     CTL2    -0.180000       12.0110           0
     29327 MEMB     256      POPC     H16R     HAL2     0.900000E-01   1.00800           0
     29328 MEMB     256      POPC     H16S     HAL2     0.900000E-01   1.00800           0
     29329 MEMB     256      POPC     C217     CTL2    -0.180000       12.0110           0
     29330 MEMB     256      POPC     H17R     HAL2     0.900000E-01   1.00800           0
     29331 MEMB     256      POPC     H17S     HAL2     0.900000E-01   1.00800           0
     29332 MEMB     256      POPC     C218     CTL3    -0.270000       12.0110           0
     29333 MEMB     256      POPC     H18R     HAL3     0.900000E-01   1.00800           0
     29334 MEMB     256      POPC     H18S     HAL3     0.900000E-01   1.00800           0
     29335 MEMB     256      POPC     H18T     HAL3     0.900000E-01   1.00800           0
     29336 MEMB     256      POPC     C33      CTL2    -0.180000       12.0110           0
     29337 MEMB     256      POPC     H3X      HAL2     0.900000E-01   1.00800           0
     29338 MEMB     256      POPC     H3Y      HAL2     0.900000E-01   1.00800           0
     29339 MEMB     256      POPC     C34      CTL2    -0.180000       12.0110           0
     29340 MEMB     256      POPC     H4X      HAL2     0.900000E-01   1.00800           0
     29341 MEMB     256      POPC     H4Y      HAL2     0.900000E-01   1.00800           0
     29342 MEMB     256      POPC     C35      CTL2    -0.180000       12.0110           0
     29343 MEMB     256      POPC     H5X      HAL2     0.900000E-01   1.00800           0
     29344 MEMB     256      POPC     H5Y      HAL2     0.900000E-01   1.00800           0
     29345 MEMB     256      POPC     C36      CTL2    -0.180000       12.0110           0
     29346 MEMB     256      POPC     H6X      HAL2     0.900000E-01   1.00800           0
     29347 MEMB     256      POPC     H6Y      HAL2     0.900000E-01   1.00800           0
     29348 MEMB     256      POPC     C37      CTL2    -0.180000       12.0110           0
     29349 MEMB     256      POPC     H7X      HAL2     0.900000E-01   1.00800           0
     29350 MEMB     256      POPC     H7Y      HAL2     0.900000E-01   1.00800           0
     29351 MEMB     256      POPC     C38      CTL2    -0.180000       12.0110           0
     29352 MEMB     256      POPC     H8X      HAL2     0.900000E-01   1.00800           0
     29353 MEMB     256      POPC     H8Y      HAL2     0.900000E-01   1.00800           0
     29354 MEMB     256      POPC     C39      CTL2    -0.180000       12.0110           0
     29355 MEMB     256      POPC     H9X      HAL2     0.900000E-01   1.00800           0
     29356 MEMB     256      POPC     H9Y      HAL2     0.900000E-01   1.00800           0
     29357 MEMB     256      POPC     C310     CTL2    -0.180000       12.0110           0
     29358 MEMB     256      POPC     H10X     HAL2     0.900000E-01   1.00800           0
     29359 MEMB     256      POPC     H10Y     HAL2     0.900000E-01   1.00800           0
     29360 MEMB     256      POPC     C311     CTL2    -0.180000       12.0110           0
     29361 MEMB     256      POPC     H11X     HAL2     0.900000E-01   1.00800           0
     29362 MEMB     256      POPC     H11Y     HAL2     0.900000E-01   1.00800           0
     29363 MEMB     256      POPC     C312     CTL2    -0.180000       12.0110           0
     29364 MEMB     256      POPC     H12X     HAL2     0.900000E-01   1.00800           0
     29365 MEMB     256      POPC     H12Y     HAL2     0.900000E-01   1.00800           0
     29366 MEMB     256      POPC     C313     CTL2    -0.180000       12.0110           0
     29367 MEMB     256      POPC     H13X     HAL2     0.900000E-01   1.00800           0
     29368 MEMB     256      POPC     H13Y     HAL2     0.900000E-01   1.00800           0
     29369 MEMB     256      POPC     C314     CTL2    -0.180000       12.0110           0
     29370 MEMB     256      POPC     H14X     HAL2     0.900000E-01   1.00800           0
     29371 MEMB     256      POPC     H14Y     HAL2     0.900000E-01   1.00800           0
     29372 MEMB     256      POPC     C315     CTL2    -0.180000       12.0110           0
     29373 MEMB     256      POPC     H15X     HAL2     0.900000E-01   1.00800           0
     29374 MEMB     256      POPC     H15Y     HAL2     0.900000E-01   1.00800           0
     29375 MEMB     256      POPC     C316     CTL3    -0.270000       12.0110           0
     29376 MEMB     256      POPC     H16X     HAL3     0.900000E-01   1.00800           0
     29377 MEMB     256      POPC     H16Y     HAL3     0.900000E-01   1.00800           0
     29378 MEMB     256      POPC     H16Z     HAL3     0.900000E-01   1.00800           0
     29379 MEMB     257      POPC     N        NTL     -0.600000       14.0070           0
     29380 MEMB     257      POPC     C12      CTL2    -0.100000       12.0110           0
     29381 MEMB     257      POPC     H12A     HL       0.250000       1.00800           0
     29382 MEMB     257      POPC     H12B     HL       0.250000       1.00800           0
     29383 MEMB     257      POPC     C13      CTL5    -0.350000       12.0110           0
     29384 MEMB     257      POPC     H13A     HL       0.250000       1.00800           0
     29385 MEMB     257      POPC     H13B     HL       0.250000       1.00800           0
     29386 MEMB     257      POPC     H13C     HL       0.250000       1.00800           0
     29387 MEMB     257      POPC     C14      CTL5    -0.350000       12.0110           0
     29388 MEMB     257      POPC     H14A     HL       0.250000       1.00800           0
     29389 MEMB     257      POPC     H14B     HL       0.250000       1.00800           0
     29390 MEMB     257      POPC     H14C     HL       0.250000       1.00800           0
     29391 MEMB     257      POPC     C15      CTL5    -0.350000       12.0110           0
     29392 MEMB     257      POPC     H15A     HL       0.250000       1.00800           0
     29393 MEMB     257      POPC     H15B     HL       0.250000       1.00800           0
     29394 MEMB     257      POPC     H15C     HL       0.250000       1.00800           0
     29395 MEMB     257      POPC     C11      CTL2    -0.800000E-01   12.0110           0
     29396 MEMB     257      POPC     H11A     HAL2     0.900000E-01   1.00800           0
     29397 MEMB     257      POPC     H11B     HAL2     0.900000E-01   1.00800           0
     29398 MEMB     257      POPC     P        PL        1.50000       30.9740           0
     29399 MEMB     257      POPC     O13      O2L     -0.780000       15.9994           0
     29400 MEMB     257      POPC     O14      O2L     -0.780000       15.9994           0
     29401 MEMB     257      POPC     O12      OSLP    -0.570000       15.9994           0
     29402 MEMB     257      POPC     O11      OSLP    -0.570000       15.9994           0
     29403 MEMB     257      POPC     C1       CTL2    -0.800000E-01   12.0110           0
     29404 MEMB     257      POPC     HA       HAL2     0.900000E-01   1.00800           0
     29405 MEMB     257      POPC     HB       HAL2     0.900000E-01   1.00800           0
     29406 MEMB     257      POPC     C2       CTL1     0.170000       12.0110           0
     29407 MEMB     257      POPC     HS       HAL1     0.900000E-01   1.00800           0
     29408 MEMB     257      POPC     O21      OSL     -0.490000       15.9994           0
     29409 MEMB     257      POPC     C21      CL       0.900000       12.0110           0
     29410 MEMB     257      POPC     O22      OBL     -0.630000       15.9994           0
     29411 MEMB     257      POPC     C22      CTL2    -0.220000       12.0110           0
     29412 MEMB     257      POPC     H2R      HAL2     0.900000E-01   1.00800           0
     29413 MEMB     257      POPC     H2S      HAL2     0.900000E-01   1.00800           0
     29414 MEMB     257      POPC     C3       CTL2     0.800000E-01   12.0110           0
     29415 MEMB     257      POPC     HX       HAL2     0.900000E-01   1.00800           0
     29416 MEMB     257      POPC     HY       HAL2     0.900000E-01   1.00800           0
     29417 MEMB     257      POPC     O31      OSL     -0.490000       15.9994           0
     29418 MEMB     257      POPC     C31      CL       0.900000       12.0110           0
     29419 MEMB     257      POPC     O32      OBL     -0.630000       15.9994           0
     29420 MEMB     257      POPC     C32      CTL2    -0.220000       12.0110           0
     29421 MEMB     257      POPC     H2X      HAL2     0.900000E-01   1.00800           0
     29422 MEMB     257      POPC     H2Y      HAL2     0.900000E-01   1.00800           0
     29423 MEMB     257      POPC     C23      CTL2    -0.180000       12.0110           0
     29424 MEMB     257      POPC     H3R      HAL2     0.900000E-01   1.00800           0
     29425 MEMB     257      POPC     H3S      HAL2     0.900000E-01   1.00800           0
     29426 MEMB     257      POPC     C24      CTL2    -0.180000       12.0110           0
     29427 MEMB     257      POPC     H4R      HAL2     0.900000E-01   1.00800           0
     29428 MEMB     257      POPC     H4S      HAL2     0.900000E-01   1.00800           0
     29429 MEMB     257      POPC     C25      CTL2    -0.180000       12.0110           0
     29430 MEMB     257      POPC     H5R      HAL2     0.900000E-01   1.00800           0
     29431 MEMB     257      POPC     H5S      HAL2     0.900000E-01   1.00800           0
     29432 MEMB     257      POPC     C26      CTL2    -0.180000       12.0110           0
     29433 MEMB     257      POPC     H6R      HAL2     0.900000E-01   1.00800           0
     29434 MEMB     257      POPC     H6S      HAL2     0.900000E-01   1.00800           0
     29435 MEMB     257      POPC     C27      CTL2    -0.180000       12.0110           0
     29436 MEMB     257      POPC     H7R      HAL2     0.900000E-01   1.00800           0
     29437 MEMB     257      POPC     H7S      HAL2     0.900000E-01   1.00800           0
     29438 MEMB     257      POPC     C28      CTL2    -0.180000       12.0110           0
     29439 MEMB     257      POPC     H8R      HAL2     0.900000E-01   1.00800           0
     29440 MEMB     257      POPC     H8S      HAL2     0.900000E-01   1.00800           0
     29441 MEMB     257      POPC     C29      CEL1    -0.150000       12.0110           0
     29442 MEMB     257      POPC     H91      HEL1     0.150000       1.00800           0
     29443 MEMB     257      POPC     C210     CEL1    -0.150000       12.0110           0
     29444 MEMB     257      POPC     H101     HEL1     0.150000       1.00800           0
     29445 MEMB     257      POPC     C211     CTL2    -0.180000       12.0110           0
     29446 MEMB     257      POPC     H11R     HAL2     0.900000E-01   1.00800           0
     29447 MEMB     257      POPC     H11S     HAL2     0.900000E-01   1.00800           0
     29448 MEMB     257      POPC     C212     CTL2    -0.180000       12.0110           0
     29449 MEMB     257      POPC     H12R     HAL2     0.900000E-01   1.00800           0
     29450 MEMB     257      POPC     H12S     HAL2     0.900000E-01   1.00800           0
     29451 MEMB     257      POPC     C213     CTL2    -0.180000       12.0110           0
     29452 MEMB     257      POPC     H13R     HAL2     0.900000E-01   1.00800           0
     29453 MEMB     257      POPC     H13S     HAL2     0.900000E-01   1.00800           0
     29454 MEMB     257      POPC     C214     CTL2    -0.180000       12.0110           0
     29455 MEMB     257      POPC     H14R     HAL2     0.900000E-01   1.00800           0
     29456 MEMB     257      POPC     H14S     HAL2     0.900000E-01   1.00800           0
     29457 MEMB     257      POPC     C215     CTL2    -0.180000       12.0110           0
     29458 MEMB     257      POPC     H15R     HAL2     0.900000E-01   1.00800           0
     29459 MEMB     257      POPC     H15S     HAL2     0.900000E-01   1.00800           0
     29460 MEMB     257      POPC     C216     CTL2    -0.180000       12.0110           0
     29461 MEMB     257      POPC     H16R     HAL2     0.900000E-01   1.00800           0
     29462 MEMB     257      POPC     H16S     HAL2     0.900000E-01   1.00800           0
     29463 MEMB     257      POPC     C217     CTL2    -0.180000       12.0110           0
     29464 MEMB     257      POPC     H17R     HAL2     0.900000E-01   1.00800           0
     29465 MEMB     257      POPC     H17S     HAL2     0.900000E-01   1.00800           0
     29466 MEMB     257      POPC     C218     CTL3    -0.270000       12.0110           0
     29467 MEMB     257      POPC     H18R     HAL3     0.900000E-01   1.00800           0
     29468 MEMB     257      POPC     H18S     HAL3     0.900000E-01   1.00800           0
     29469 MEMB     257      POPC     H18T     HAL3     0.900000E-01   1.00800           0
     29470 MEMB     257      POPC     C33      CTL2    -0.180000       12.0110           0
     29471 MEMB     257      POPC     H3X      HAL2     0.900000E-01   1.00800           0
     29472 MEMB     257      POPC     H3Y      HAL2     0.900000E-01   1.00800           0
     29473 MEMB     257      POPC     C34      CTL2    -0.180000       12.0110           0
     29474 MEMB     257      POPC     H4X      HAL2     0.900000E-01   1.00800           0
     29475 MEMB     257      POPC     H4Y      HAL2     0.900000E-01   1.00800           0
     29476 MEMB     257      POPC     C35      CTL2    -0.180000       12.0110           0
     29477 MEMB     257      POPC     H5X      HAL2     0.900000E-01   1.00800           0
     29478 MEMB     257      POPC     H5Y      HAL2     0.900000E-01   1.00800           0
     29479 MEMB     257      POPC     C36      CTL2    -0.180000       12.0110           0
     29480 MEMB     257      POPC     H6X      HAL2     0.900000E-01   1.00800           0
     29481 MEMB     257      POPC     H6Y      HAL2     0.900000E-01   1.00800           0
     29482 MEMB     257      POPC     C37      CTL2    -0.180000       12.0110           0
     29483 MEMB     257      POPC     H7X      HAL2     0.900000E-01   1.00800           0
     29484 MEMB     257      POPC     H7Y      HAL2     0.900000E-01   1.00800           0
     29485 MEMB     257      POPC     C38      CTL2    -0.180000       12.0110           0
     29486 MEMB     257      POPC     H8X      HAL2     0.900000E-01   1.00800           0
     29487 MEMB     257      POPC     H8Y      HAL2     0.900000E-01   1.00800           0
     29488 MEMB     257      POPC     C39      CTL2    -0.180000       12.0110           0
     29489 MEMB     257      POPC     H9X      HAL2     0.900000E-01   1.00800           0
     29490 MEMB     257      POPC     H9Y      HAL2     0.900000E-01   1.00800           0
     29491 MEMB     257      POPC     C310     CTL2    -0.180000       12.0110           0
     29492 MEMB     257      POPC     H10X     HAL2     0.900000E-01   1.00800           0
     29493 MEMB     257      POPC     H10Y     HAL2     0.900000E-01   1.00800           0
     29494 MEMB     257      POPC     C311     CTL2    -0.180000       12.0110           0
     29495 MEMB     257      POPC     H11X     HAL2     0.900000E-01   1.00800           0
     29496 MEMB     257      POPC     H11Y     HAL2     0.900000E-01   1.00800           0
     29497 MEMB     257      POPC     C312     CTL2    -0.180000       12.0110           0
     29498 MEMB     257      POPC     H12X     HAL2     0.900000E-01   1.00800           0
     29499 MEMB     257      POPC     H12Y     HAL2     0.900000E-01   1.00800           0
     29500 MEMB     257      POPC     C313     CTL2    -0.180000       12.0110           0
     29501 MEMB     257      POPC     H13X     HAL2     0.900000E-01   1.00800           0
     29502 MEMB     257      POPC     H13Y     HAL2     0.900000E-01   1.00800           0
     29503 MEMB     257      POPC     C314     CTL2    -0.180000       12.0110           0
     29504 MEMB     257      POPC     H14X     HAL2     0.900000E-01   1.00800           0
     29505 MEMB     257      POPC     H14Y     HAL2     0.900000E-01   1.00800           0
     29506 MEMB     257      POPC     C315     CTL2    -0.180000       12.0110           0
     29507 MEMB     257      POPC     H15X     HAL2     0.900000E-01   1.00800           0
     29508 MEMB     257      POPC     H15Y     HAL2     0.900000E-01   1.00800           0
     29509 MEMB     257      POPC     C316     CTL3    -0.270000       12.0110           0
     29510 MEMB     257      POPC     H16X     HAL3     0.900000E-01   1.00800           0
     29511 MEMB     257      POPC     H16Y     HAL3     0.900000E-01   1.00800           0
     29512 MEMB     257      POPC     H16Z     HAL3     0.900000E-01   1.00800           0
     29513 MEMB     258      POPC     N        NTL     -0.600000       14.0070           0
     29514 MEMB     258      POPC     C12      CTL2    -0.100000       12.0110           0
     29515 MEMB     258      POPC     H12A     HL       0.250000       1.00800           0
     29516 MEMB     258      POPC     H12B     HL       0.250000       1.00800           0
     29517 MEMB     258      POPC     C13      CTL5    -0.350000       12.0110           0
     29518 MEMB     258      POPC     H13A     HL       0.250000       1.00800           0
     29519 MEMB     258      POPC     H13B     HL       0.250000       1.00800           0
     29520 MEMB     258      POPC     H13C     HL       0.250000       1.00800           0
     29521 MEMB     258      POPC     C14      CTL5    -0.350000       12.0110           0
     29522 MEMB     258      POPC     H14A     HL       0.250000       1.00800           0
     29523 MEMB     258      POPC     H14B     HL       0.250000       1.00800           0
     29524 MEMB     258      POPC     H14C     HL       0.250000       1.00800           0
     29525 MEMB     258      POPC     C15      CTL5    -0.350000       12.0110           0
     29526 MEMB     258      POPC     H15A     HL       0.250000       1.00800           0
     29527 MEMB     258      POPC     H15B     HL       0.250000       1.00800           0
     29528 MEMB     258      POPC     H15C     HL       0.250000       1.00800           0
     29529 MEMB     258      POPC     C11      CTL2    -0.800000E-01   12.0110           0
     29530 MEMB     258      POPC     H11A     HAL2     0.900000E-01   1.00800           0
     29531 MEMB     258      POPC     H11B     HAL2     0.900000E-01   1.00800           0
     29532 MEMB     258      POPC     P        PL        1.50000       30.9740           0
     29533 MEMB     258      POPC     O13      O2L     -0.780000       15.9994           0
     29534 MEMB     258      POPC     O14      O2L     -0.780000       15.9994           0
     29535 MEMB     258      POPC     O12      OSLP    -0.570000       15.9994           0
     29536 MEMB     258      POPC     O11      OSLP    -0.570000       15.9994           0
     29537 MEMB     258      POPC     C1       CTL2    -0.800000E-01   12.0110           0
     29538 MEMB     258      POPC     HA       HAL2     0.900000E-01   1.00800           0
     29539 MEMB     258      POPC     HB       HAL2     0.900000E-01   1.00800           0
     29540 MEMB     258      POPC     C2       CTL1     0.170000       12.0110           0
     29541 MEMB     258      POPC     HS       HAL1     0.900000E-01   1.00800           0
     29542 MEMB     258      POPC     O21      OSL     -0.490000       15.9994           0
     29543 MEMB     258      POPC     C21      CL       0.900000       12.0110           0
     29544 MEMB     258      POPC     O22      OBL     -0.630000       15.9994           0
     29545 MEMB     258      POPC     C22      CTL2    -0.220000       12.0110           0
     29546 MEMB     258      POPC     H2R      HAL2     0.900000E-01   1.00800           0
     29547 MEMB     258      POPC     H2S      HAL2     0.900000E-01   1.00800           0
     29548 MEMB     258      POPC     C3       CTL2     0.800000E-01   12.0110           0
     29549 MEMB     258      POPC     HX       HAL2     0.900000E-01   1.00800           0
     29550 MEMB     258      POPC     HY       HAL2     0.900000E-01   1.00800           0
     29551 MEMB     258      POPC     O31      OSL     -0.490000       15.9994           0
     29552 MEMB     258      POPC     C31      CL       0.900000       12.0110           0
     29553 MEMB     258      POPC     O32      OBL     -0.630000       15.9994           0
     29554 MEMB     258      POPC     C32      CTL2    -0.220000       12.0110           0
     29555 MEMB     258      POPC     H2X      HAL2     0.900000E-01   1.00800           0
     29556 MEMB     258      POPC     H2Y      HAL2     0.900000E-01   1.00800           0
     29557 MEMB     258      POPC     C23      CTL2    -0.180000       12.0110           0
     29558 MEMB     258      POPC     H3R      HAL2     0.900000E-01   1.00800           0
     29559 MEMB     258      POPC     H3S      HAL2     0.900000E-01   1.00800           0
     29560 MEMB     258      POPC     C24      CTL2    -0.180000       12.0110           0
     29561 MEMB     258      POPC     H4R      HAL2     0.900000E-01   1.00800           0
     29562 MEMB     258      POPC     H4S      HAL2     0.900000E-01   1.00800           0
     29563 MEMB     258      POPC     C25      CTL2    -0.180000       12.0110           0
     29564 MEMB     258      POPC     H5R      HAL2     0.900000E-01   1.00800           0
     29565 MEMB     258      POPC     H5S      HAL2     0.900000E-01   1.00800           0
     29566 MEMB     258      POPC     C26      CTL2    -0.180000       12.0110           0
     29567 MEMB     258      POPC     H6R      HAL2     0.900000E-01   1.00800           0
     29568 MEMB     258      POPC     H6S      HAL2     0.900000E-01   1.00800           0
     29569 MEMB     258      POPC     C27      CTL2    -0.180000       12.0110           0
     29570 MEMB     258      POPC     H7R      HAL2     0.900000E-01   1.00800           0
     29571 MEMB     258      POPC     H7S      HAL2     0.900000E-01   1.00800           0
     29572 MEMB     258      POPC     C28      CTL2    -0.180000       12.0110           0
     29573 MEMB     258      POPC     H8R      HAL2     0.900000E-01   1.00800           0
     29574 MEMB     258      POPC     H8S      HAL2     0.900000E-01   1.00800           0
     29575 MEMB     258      POPC     C29      CEL1    -0.150000       12.0110           0
     29576 MEMB     258      POPC     H91      HEL1     0.150000       1.00800           0
     29577 MEMB     258      POPC     C210     CEL1    -0.150000       12.0110           0
     29578 MEMB     258      POPC     H101     HEL1     0.150000       1.00800           0
     29579 MEMB     258      POPC     C211     CTL2    -0.180000       12.0110           0
     29580 MEMB     258      POPC     H11R     HAL2     0.900000E-01   1.00800           0
     29581 MEMB     258      POPC     H11S     HAL2     0.900000E-01   1.00800           0
     29582 MEMB     258      POPC     C212     CTL2    -0.180000       12.0110           0
     29583 MEMB     258      POPC     H12R     HAL2     0.900000E-01   1.00800           0
     29584 MEMB     258      POPC     H12S     HAL2     0.900000E-01   1.00800           0
     29585 MEMB     258      POPC     C213     CTL2    -0.180000       12.0110           0
     29586 MEMB     258      POPC     H13R     HAL2     0.900000E-01   1.00800           0
     29587 MEMB     258      POPC     H13S     HAL2     0.900000E-01   1.00800           0
     29588 MEMB     258      POPC     C214     CTL2    -0.180000       12.0110           0
     29589 MEMB     258      POPC     H14R     HAL2     0.900000E-01   1.00800           0
     29590 MEMB     258      POPC     H14S     HAL2     0.900000E-01   1.00800           0
     29591 MEMB     258      POPC     C215     CTL2    -0.180000       12.0110           0
     29592 MEMB     258      POPC     H15R     HAL2     0.900000E-01   1.00800           0
     29593 MEMB     258      POPC     H15S     HAL2     0.900000E-01   1.00800           0
     29594 MEMB     258      POPC     C216     CTL2    -0.180000       12.0110           0
     29595 MEMB     258      POPC     H16R     HAL2     0.900000E-01   1.00800           0
     29596 MEMB     258      POPC     H16S     HAL2     0.900000E-01   1.00800           0
     29597 MEMB     258      POPC     C217     CTL2    -0.180000       12.0110           0
     29598 MEMB     258      POPC     H17R     HAL2     0.900000E-01   1.00800           0
     29599 MEMB     258      POPC     H17S     HAL2     0.900000E-01   1.00800           0
     29600 MEMB     258      POPC     C218     CTL3    -0.270000       12.0110           0
     29601 MEMB     258      POPC     H18R     HAL3     0.900000E-01   1.00800           0
     29602 MEMB     258      POPC     H18S     HAL3     0.900000E-01   1.00800           0
     29603 MEMB     258      POPC     H18T     HAL3     0.900000E-01   1.00800           0
     29604 MEMB     258      POPC     C33      CTL2    -0.180000       12.0110           0
     29605 MEMB     258      POPC     H3X      HAL2     0.900000E-01   1.00800           0
     29606 MEMB     258      POPC     H3Y      HAL2     0.900000E-01   1.00800           0
     29607 MEMB     258      POPC     C34      CTL2    -0.180000       12.0110           0
     29608 MEMB     258      POPC     H4X      HAL2     0.900000E-01   1.00800           0
     29609 MEMB     258      POPC     H4Y      HAL2     0.900000E-01   1.00800           0
     29610 MEMB     258      POPC     C35      CTL2    -0.180000       12.0110           0
     29611 MEMB     258      POPC     H5X      HAL2     0.900000E-01   1.00800           0
     29612 MEMB     258      POPC     H5Y      HAL2     0.900000E-01   1.00800           0
     29613 MEMB     258      POPC     C36      CTL2    -0.180000       12.0110           0
     29614 MEMB     258      POPC     H6X      HAL2     0.900000E-01   1.00800           0
     29615 MEMB     258      POPC     H6Y      HAL2     0.900000E-01   1.00800           0
     29616 MEMB     258      POPC     C37      CTL2    -0.180000       12.0110           0
     29617 MEMB     258      POPC     H7X      HAL2     0.900000E-01   1.00800           0
     29618 MEMB     258      POPC     H7Y      HAL2     0.900000E-01   1.00800           0
     29619 MEMB     258      POPC     C38      CTL2    -0.180000       12.0110           0
     29620 MEMB     258      POPC     H8X      HAL2     0.900000E-01   1.00800           0
     29621 MEMB     258      POPC     H8Y      HAL2     0.900000E-01   1.00800           0
     29622 MEMB     258      POPC     C39      CTL2    -0.180000       12.0110           0
     29623 MEMB     258      POPC     H9X      HAL2     0.900000E-01   1.00800           0
     29624 MEMB     258      POPC     H9Y      HAL2     0.900000E-01   1.00800           0
     29625 MEMB     258      POPC     C310     CTL2    -0.180000       12.0110           0
     29626 MEMB     258      POPC     H10X     HAL2     0.900000E-01   1.00800           0
     29627 MEMB     258      POPC     H10Y     HAL2     0.900000E-01   1.00800           0
     29628 MEMB     258      POPC     C311     CTL2    -0.180000       12.0110           0
     29629 MEMB     258      POPC     H11X     HAL2     0.900000E-01   1.00800           0
     29630 MEMB     258      POPC     H11Y     HAL2     0.900000E-01   1.00800           0
     29631 MEMB     258      POPC     C312     CTL2    -0.180000       12.0110           0
     29632 MEMB     258      POPC     H12X     HAL2     0.900000E-01   1.00800           0
     29633 MEMB     258      POPC     H12Y     HAL2     0.900000E-01   1.00800           0
     29634 MEMB     258      POPC     C313     CTL2    -0.180000       12.0110           0
     29635 MEMB     258      POPC     H13X     HAL2     0.900000E-01   1.00800           0
     29636 MEMB     258      POPC     H13Y     HAL2     0.900000E-01   1.00800           0
     29637 MEMB     258      POPC     C314     CTL2    -0.180000       12.0110           0
     29638 MEMB     258      POPC     H14X     HAL2     0.900000E-01   1.00800           0
     29639 MEMB     258      POPC     H14Y     HAL2     0.900000E-01   1.00800           0
     29640 MEMB     258      POPC     C315     CTL2    -0.180000       12.0110           0
     29641 MEMB     258      POPC     H15X     HAL2     0.900000E-01   1.00800           0
     29642 MEMB     258      POPC     H15Y     HAL2     0.900000E-01   1.00800           0
     29643 MEMB     258      POPC     C316     CTL3    -0.270000       12.0110           0
     29644 MEMB     258      POPC     H16X     HAL3     0.900000E-01   1.00800           0
     29645 MEMB     258      POPC     H16Y     HAL3     0.900000E-01   1.00800           0
     29646 MEMB     258      POPC     H16Z     HAL3     0.900000E-01   1.00800           0
     29647 MEMB     259      POPC     N        NTL     -0.600000       14.0070           0
     29648 MEMB     259      POPC     C12      CTL2    -0.100000       12.0110           0
     29649 MEMB     259      POPC     H12A     HL       0.250000       1.00800           0
     29650 MEMB     259      POPC     H12B     HL       0.250000       1.00800           0
     29651 MEMB     259      POPC     C13      CTL5    -0.350000       12.0110           0
     29652 MEMB     259      POPC     H13A     HL       0.250000       1.00800           0
     29653 MEMB     259      POPC     H13B     HL       0.250000       1.00800           0
     29654 MEMB     259      POPC     H13C     HL       0.250000       1.00800           0
     29655 MEMB     259      POPC     C14      CTL5    -0.350000       12.0110           0
     29656 MEMB     259      POPC     H14A     HL       0.250000       1.00800           0
     29657 MEMB     259      POPC     H14B     HL       0.250000       1.00800           0
     29658 MEMB     259      POPC     H14C     HL       0.250000       1.00800           0
     29659 MEMB     259      POPC     C15      CTL5    -0.350000       12.0110           0
     29660 MEMB     259      POPC     H15A     HL       0.250000       1.00800           0
     29661 MEMB     259      POPC     H15B     HL       0.250000       1.00800           0
     29662 MEMB     259      POPC     H15C     HL       0.250000       1.00800           0
     29663 MEMB     259      POPC     C11      CTL2    -0.800000E-01   12.0110           0
     29664 MEMB     259      POPC     H11A     HAL2     0.900000E-01   1.00800           0
     29665 MEMB     259      POPC     H11B     HAL2     0.900000E-01   1.00800           0
     29666 MEMB     259      POPC     P        PL        1.50000       30.9740           0
     29667 MEMB     259      POPC     O13      O2L     -0.780000       15.9994           0
     29668 MEMB     259      POPC     O14      O2L     -0.780000       15.9994           0
     29669 MEMB     259      POPC     O12      OSLP    -0.570000       15.9994           0
     29670 MEMB     259      POPC     O11      OSLP    -0.570000       15.9994           0
     29671 MEMB     259      POPC     C1       CTL2    -0.800000E-01   12.0110           0
     29672 MEMB     259      POPC     HA       HAL2     0.900000E-01   1.00800           0
     29673 MEMB     259      POPC     HB       HAL2     0.900000E-01   1.00800           0
     29674 MEMB     259      POPC     C2       CTL1     0.170000       12.0110           0
     29675 MEMB     259      POPC     HS       HAL1     0.900000E-01   1.00800           0
     29676 MEMB     259      POPC     O21      OSL     -0.490000       15.9994           0
     29677 MEMB     259      POPC     C21      CL       0.900000       12.0110           0
     29678 MEMB     259      POPC     O22      OBL     -0.630000       15.9994           0
     29679 MEMB     259      POPC     C22      CTL2    -0.220000       12.0110           0
     29680 MEMB     259      POPC     H2R      HAL2     0.900000E-01   1.00800           0
     29681 MEMB     259      POPC     H2S      HAL2     0.900000E-01   1.00800           0
     29682 MEMB     259      POPC     C3       CTL2     0.800000E-01   12.0110           0
     29683 MEMB     259      POPC     HX       HAL2     0.900000E-01   1.00800           0
     29684 MEMB     259      POPC     HY       HAL2     0.900000E-01   1.00800           0
     29685 MEMB     259      POPC     O31      OSL     -0.490000       15.9994           0
     29686 MEMB     259      POPC     C31      CL       0.900000       12.0110           0
     29687 MEMB     259      POPC     O32      OBL     -0.630000       15.9994           0
     29688 MEMB     259      POPC     C32      CTL2    -0.220000       12.0110           0
     29689 MEMB     259      POPC     H2X      HAL2     0.900000E-01   1.00800           0
     29690 MEMB     259      POPC     H2Y      HAL2     0.900000E-01   1.00800           0
     29691 MEMB     259      POPC     C23      CTL2    -0.180000       12.0110           0
     29692 MEMB     259      POPC     H3R      HAL2     0.900000E-01   1.00800           0
     29693 MEMB     259      POPC     H3S      HAL2     0.900000E-01   1.00800           0
     29694 MEMB     259      POPC     C24      CTL2    -0.180000       12.0110           0
     29695 MEMB     259      POPC     H4R      HAL2     0.900000E-01   1.00800           0
     29696 MEMB     259      POPC     H4S      HAL2     0.900000E-01   1.00800           0
     29697 MEMB     259      POPC     C25      CTL2    -0.180000       12.0110           0
     29698 MEMB     259      POPC     H5R      HAL2     0.900000E-01   1.00800           0
     29699 MEMB     259      POPC     H5S      HAL2     0.900000E-01   1.00800           0
     29700 MEMB     259      POPC     C26      CTL2    -0.180000       12.0110           0
     29701 MEMB     259      POPC     H6R      HAL2     0.900000E-01   1.00800           0
     29702 MEMB     259      POPC     H6S      HAL2     0.900000E-01   1.00800           0
     29703 MEMB     259      POPC     C27      CTL2    -0.180000       12.0110           0
     29704 MEMB     259      POPC     H7R      HAL2     0.900000E-01   1.00800           0
     29705 MEMB     259      POPC     H7S      HAL2     0.900000E-01   1.00800           0
     29706 MEMB     259      POPC     C28      CTL2    -0.180000       12.0110           0
     29707 MEMB     259      POPC     H8R      HAL2     0.900000E-01   1.00800           0
     29708 MEMB     259      POPC     H8S      HAL2     0.900000E-01   1.00800           0
     29709 MEMB     259      POPC     C29      CEL1    -0.150000       12.0110           0
     29710 MEMB     259      POPC     H91      HEL1     0.150000       1.00800           0
     29711 MEMB     259      POPC     C210     CEL1    -0.150000       12.0110           0
     29712 MEMB     259      POPC     H101     HEL1     0.150000       1.00800           0
     29713 MEMB     259      POPC     C211     CTL2    -0.180000       12.0110           0
     29714 MEMB     259      POPC     H11R     HAL2     0.900000E-01   1.00800           0
     29715 MEMB     259      POPC     H11S     HAL2     0.900000E-01   1.00800           0
     29716 MEMB     259      POPC     C212     CTL2    -0.180000       12.0110           0
     29717 MEMB     259      POPC     H12R     HAL2     0.900000E-01   1.00800           0
     29718 MEMB     259      POPC     H12S     HAL2     0.900000E-01   1.00800           0
     29719 MEMB     259      POPC     C213     CTL2    -0.180000       12.0110           0
     29720 MEMB     259      POPC     H13R     HAL2     0.900000E-01   1.00800           0
     29721 MEMB     259      POPC     H13S     HAL2     0.900000E-01   1.00800           0
     29722 MEMB     259      POPC     C214     CTL2    -0.180000       12.0110           0
     29723 MEMB     259      POPC     H14R     HAL2     0.900000E-01   1.00800           0
     29724 MEMB     259      POPC     H14S     HAL2     0.900000E-01   1.00800           0
     29725 MEMB     259      POPC     C215     CTL2    -0.180000       12.0110           0
     29726 MEMB     259      POPC     H15R     HAL2     0.900000E-01   1.00800           0
     29727 MEMB     259      POPC     H15S     HAL2     0.900000E-01   1.00800           0
     29728 MEMB     259      POPC     C216     CTL2    -0.180000       12.0110           0
     29729 MEMB     259      POPC     H16R     HAL2     0.900000E-01   1.00800           0
     29730 MEMB     259      POPC     H16S     HAL2     0.900000E-01   1.00800           0
     29731 MEMB     259      POPC     C217     CTL2    -0.180000       12.0110           0
     29732 MEMB     259      POPC     H17R     HAL2     0.900000E-01   1.00800           0
     29733 MEMB     259      POPC     H17S     HAL2     0.900000E-01   1.00800           0
     29734 MEMB     259      POPC     C218     CTL3    -0.270000       12.0110           0
     29735 MEMB     259      POPC     H18R     HAL3     0.900000E-01   1.00800           0
     29736 MEMB     259      POPC     H18S     HAL3     0.900000E-01   1.00800           0
     29737 MEMB     259      POPC     H18T     HAL3     0.900000E-01   1.00800           0
     29738 MEMB     259      POPC     C33      CTL2    -0.180000       12.0110           0
     29739 MEMB     259      POPC     H3X      HAL2     0.900000E-01   1.00800           0
     29740 MEMB     259      POPC     H3Y      HAL2     0.900000E-01   1.00800           0
     29741 MEMB     259      POPC     C34      CTL2    -0.180000       12.0110           0
     29742 MEMB     259      POPC     H4X      HAL2     0.900000E-01   1.00800           0
     29743 MEMB     259      POPC     H4Y      HAL2     0.900000E-01   1.00800           0
     29744 MEMB     259      POPC     C35      CTL2    -0.180000       12.0110           0
     29745 MEMB     259      POPC     H5X      HAL2     0.900000E-01   1.00800           0
     29746 MEMB     259      POPC     H5Y      HAL2     0.900000E-01   1.00800           0
     29747 MEMB     259      POPC     C36      CTL2    -0.180000       12.0110           0
     29748 MEMB     259      POPC     H6X      HAL2     0.900000E-01   1.00800           0
     29749 MEMB     259      POPC     H6Y      HAL2     0.900000E-01   1.00800           0
     29750 MEMB     259      POPC     C37      CTL2    -0.180000       12.0110           0
     29751 MEMB     259      POPC     H7X      HAL2     0.900000E-01   1.00800           0
     29752 MEMB     259      POPC     H7Y      HAL2     0.900000E-01   1.00800           0
     29753 MEMB     259      POPC     C38      CTL2    -0.180000       12.0110           0
     29754 MEMB     259      POPC     H8X      HAL2     0.900000E-01   1.00800           0
     29755 MEMB     259      POPC     H8Y      HAL2     0.900000E-01   1.00800           0
     29756 MEMB     259      POPC     C39      CTL2    -0.180000       12.0110           0
     29757 MEMB     259      POPC     H9X      HAL2     0.900000E-01   1.00800           0
     29758 MEMB     259      POPC     H9Y      HAL2     0.900000E-01   1.00800           0
     29759 MEMB     259      POPC     C310     CTL2    -0.180000       12.0110           0
     29760 MEMB     259      POPC     H10X     HAL2     0.900000E-01   1.00800           0
     29761 MEMB     259      POPC     H10Y     HAL2     0.900000E-01   1.00800           0
     29762 MEMB     259      POPC     C311     CTL2    -0.180000       12.0110           0
     29763 MEMB     259      POPC     H11X     HAL2     0.900000E-01   1.00800           0
     29764 MEMB     259      POPC     H11Y     HAL2     0.900000E-01   1.00800           0
     29765 MEMB     259      POPC     C312     CTL2    -0.180000       12.0110           0
     29766 MEMB     259      POPC     H12X     HAL2     0.900000E-01   1.00800           0
     29767 MEMB     259      POPC     H12Y     HAL2     0.900000E-01   1.00800           0
     29768 MEMB     259      POPC     C313     CTL2    -0.180000       12.0110           0
     29769 MEMB     259      POPC     H13X     HAL2     0.900000E-01   1.00800           0
     29770 MEMB     259      POPC     H13Y     HAL2     0.900000E-01   1.00800           0
     29771 MEMB     259      POPC     C314     CTL2    -0.180000       12.0110           0
     29772 MEMB     259      POPC     H14X     HAL2     0.900000E-01   1.00800           0
     29773 MEMB     259      POPC     H14Y     HAL2     0.900000E-01   1.00800           0
     29774 MEMB     259      POPC     C315     CTL2    -0.180000       12.0110           0
     29775 MEMB     259      POPC     H15X     HAL2     0.900000E-01   1.00800           0
     29776 MEMB     259      POPC     H15Y     HAL2     0.900000E-01   1.00800           0
     29777 MEMB     259      POPC     C316     CTL3    -0.270000       12.0110           0
     29778 MEMB     259      POPC     H16X     HAL3     0.900000E-01   1.00800           0
     29779 MEMB     259      POPC     H16Y     HAL3     0.900000E-01   1.00800           0
     29780 MEMB     259      POPC     H16Z     HAL3     0.900000E-01   1.00800           0
     29781 MEMB     260      POPC     N        NTL     -0.600000       14.0070           0
     29782 MEMB     260      POPC     C12      CTL2    -0.100000       12.0110           0
     29783 MEMB     260      POPC     H12A     HL       0.250000       1.00800           0
     29784 MEMB     260      POPC     H12B     HL       0.250000       1.00800           0
     29785 MEMB     260      POPC     C13      CTL5    -0.350000       12.0110           0
     29786 MEMB     260      POPC     H13A     HL       0.250000       1.00800           0
     29787 MEMB     260      POPC     H13B     HL       0.250000       1.00800           0
     29788 MEMB     260      POPC     H13C     HL       0.250000       1.00800           0
     29789 MEMB     260      POPC     C14      CTL5    -0.350000       12.0110           0
     29790 MEMB     260      POPC     H14A     HL       0.250000       1.00800           0
     29791 MEMB     260      POPC     H14B     HL       0.250000       1.00800           0
     29792 MEMB     260      POPC     H14C     HL       0.250000       1.00800           0
     29793 MEMB     260      POPC     C15      CTL5    -0.350000       12.0110           0
     29794 MEMB     260      POPC     H15A     HL       0.250000       1.00800           0
     29795 MEMB     260      POPC     H15B     HL       0.250000       1.00800           0
     29796 MEMB     260      POPC     H15C     HL       0.250000       1.00800           0
     29797 MEMB     260      POPC     C11      CTL2    -0.800000E-01   12.0110           0
     29798 MEMB     260      POPC     H11A     HAL2     0.900000E-01   1.00800           0
     29799 MEMB     260      POPC     H11B     HAL2     0.900000E-01   1.00800           0
     29800 MEMB     260      POPC     P        PL        1.50000       30.9740           0
     29801 MEMB     260      POPC     O13      O2L     -0.780000       15.9994           0
     29802 MEMB     260      POPC     O14      O2L     -0.780000       15.9994           0
     29803 MEMB     260      POPC     O12      OSLP    -0.570000       15.9994           0
     29804 MEMB     260      POPC     O11      OSLP    -0.570000       15.9994           0
     29805 MEMB     260      POPC     C1       CTL2    -0.800000E-01   12.0110           0
     29806 MEMB     260      POPC     HA       HAL2     0.900000E-01   1.00800           0
     29807 MEMB     260      POPC     HB       HAL2     0.900000E-01   1.00800           0
     29808 MEMB     260      POPC     C2       CTL1     0.170000       12.0110           0
     29809 MEMB     260      POPC     HS       HAL1     0.900000E-01   1.00800           0
     29810 MEMB     260      POPC     O21      OSL     -0.490000       15.9994           0
     29811 MEMB     260      POPC     C21      CL       0.900000       12.0110           0
     29812 MEMB     260      POPC     O22      OBL     -0.630000       15.9994           0
     29813 MEMB     260      POPC     C22      CTL2    -0.220000       12.0110           0
     29814 MEMB     260      POPC     H2R      HAL2     0.900000E-01   1.00800           0
     29815 MEMB     260      POPC     H2S      HAL2     0.900000E-01   1.00800           0
     29816 MEMB     260      POPC     C3       CTL2     0.800000E-01   12.0110           0
     29817 MEMB     260      POPC     HX       HAL2     0.900000E-01   1.00800           0
     29818 MEMB     260      POPC     HY       HAL2     0.900000E-01   1.00800           0
     29819 MEMB     260      POPC     O31      OSL     -0.490000       15.9994           0
     29820 MEMB     260      POPC     C31      CL       0.900000       12.0110           0
     29821 MEMB     260      POPC     O32      OBL     -0.630000       15.9994           0
     29822 MEMB     260      POPC     C32      CTL2    -0.220000       12.0110           0
     29823 MEMB     260      POPC     H2X      HAL2     0.900000E-01   1.00800           0
     29824 MEMB     260      POPC     H2Y      HAL2     0.900000E-01   1.00800           0
     29825 MEMB     260      POPC     C23      CTL2    -0.180000       12.0110           0
     29826 MEMB     260      POPC     H3R      HAL2     0.900000E-01   1.00800           0
     29827 MEMB     260      POPC     H3S      HAL2     0.900000E-01   1.00800           0
     29828 MEMB     260      POPC     C24      CTL2    -0.180000       12.0110           0
     29829 MEMB     260      POPC     H4R      HAL2     0.900000E-01   1.00800           0
     29830 MEMB     260      POPC     H4S      HAL2     0.900000E-01   1.00800           0
     29831 MEMB     260      POPC     C25      CTL2    -0.180000       12.0110           0
     29832 MEMB     260      POPC     H5R      HAL2     0.900000E-01   1.00800           0
     29833 MEMB     260      POPC     H5S      HAL2     0.900000E-01   1.00800           0
     29834 MEMB     260      POPC     C26      CTL2    -0.180000       12.0110           0
     29835 MEMB     260      POPC     H6R      HAL2     0.900000E-01   1.00800           0
     29836 MEMB     260      POPC     H6S      HAL2     0.900000E-01   1.00800           0
     29837 MEMB     260      POPC     C27      CTL2    -0.180000       12.0110           0
     29838 MEMB     260      POPC     H7R      HAL2     0.900000E-01   1.00800           0
     29839 MEMB     260      POPC     H7S      HAL2     0.900000E-01   1.00800           0
     29840 MEMB     260      POPC     C28      CTL2    -0.180000       12.0110           0
     29841 MEMB     260      POPC     H8R      HAL2     0.900000E-01   1.00800           0
     29842 MEMB     260      POPC     H8S      HAL2     0.900000E-01   1.00800           0
     29843 MEMB     260      POPC     C29      CEL1    -0.150000       12.0110           0
     29844 MEMB     260      POPC     H91      HEL1     0.150000       1.00800           0
     29845 MEMB     260      POPC     C210     CEL1    -0.150000       12.0110           0
     29846 MEMB     260      POPC     H101     HEL1     0.150000       1.00800           0
     29847 MEMB     260      POPC     C211     CTL2    -0.180000       12.0110           0
     29848 MEMB     260      POPC     H11R     HAL2     0.900000E-01   1.00800           0
     29849 MEMB     260      POPC     H11S     HAL2     0.900000E-01   1.00800           0
     29850 MEMB     260      POPC     C212     CTL2    -0.180000       12.0110           0
     29851 MEMB     260      POPC     H12R     HAL2     0.900000E-01   1.00800           0
     29852 MEMB     260      POPC     H12S     HAL2     0.900000E-01   1.00800           0
     29853 MEMB     260      POPC     C213     CTL2    -0.180000       12.0110           0
     29854 MEMB     260      POPC     H13R     HAL2     0.900000E-01   1.00800           0
     29855 MEMB     260      POPC     H13S     HAL2     0.900000E-01   1.00800           0
     29856 MEMB     260      POPC     C214     CTL2    -0.180000       12.0110           0
     29857 MEMB     260      POPC     H14R     HAL2     0.900000E-01   1.00800           0
     29858 MEMB     260      POPC     H14S     HAL2     0.900000E-01   1.00800           0
     29859 MEMB     260      POPC     C215     CTL2    -0.180000       12.0110           0
     29860 MEMB     260      POPC     H15R     HAL2     0.900000E-01   1.00800           0
     29861 MEMB     260      POPC     H15S     HAL2     0.900000E-01   1.00800           0
     29862 MEMB     260      POPC     C216     CTL2    -0.180000       12.0110           0
     29863 MEMB     260      POPC     H16R     HAL2     0.900000E-01   1.00800           0
     29864 MEMB     260      POPC     H16S     HAL2     0.900000E-01   1.00800           0
     29865 MEMB     260      POPC     C217     CTL2    -0.180000       12.0110           0
     29866 MEMB     260      POPC     H17R     HAL2     0.900000E-01   1.00800           0
     29867 MEMB     260      POPC     H17S     HAL2     0.900000E-01   1.00800           0
     29868 MEMB     260      POPC     C218     CTL3    -0.270000       12.0110           0
     29869 MEMB     260      POPC     H18R     HAL3     0.900000E-01   1.00800           0
     29870 MEMB     260      POPC     H18S     HAL3     0.900000E-01   1.00800           0
     29871 MEMB     260      POPC     H18T     HAL3     0.900000E-01   1.00800           0
     29872 MEMB     260      POPC     C33      CTL2    -0.180000       12.0110           0
     29873 MEMB     260      POPC     H3X      HAL2     0.900000E-01   1.00800           0
     29874 MEMB     260      POPC     H3Y      HAL2     0.900000E-01   1.00800           0
     29875 MEMB     260      POPC     C34      CTL2    -0.180000       12.0110           0
     29876 MEMB     260      POPC     H4X      HAL2     0.900000E-01   1.00800           0
     29877 MEMB     260      POPC     H4Y      HAL2     0.900000E-01   1.00800           0
     29878 MEMB     260      POPC     C35      CTL2    -0.180000       12.0110           0
     29879 MEMB     260      POPC     H5X      HAL2     0.900000E-01   1.00800           0
     29880 MEMB     260      POPC     H5Y      HAL2     0.900000E-01   1.00800           0
     29881 MEMB     260      POPC     C36      CTL2    -0.180000       12.0110           0
     29882 MEMB     260      POPC     H6X      HAL2     0.900000E-01   1.00800           0
     29883 MEMB     260      POPC     H6Y      HAL2     0.900000E-01   1.00800           0
     29884 MEMB     260      POPC     C37      CTL2    -0.180000       12.0110           0
     29885 MEMB     260      POPC     H7X      HAL2     0.900000E-01   1.00800           0
     29886 MEMB     260      POPC     H7Y      HAL2     0.900000E-01   1.00800           0
     29887 MEMB     260      POPC     C38      CTL2    -0.180000       12.0110           0
     29888 MEMB     260      POPC     H8X      HAL2     0.900000E-01   1.00800           0
     29889 MEMB     260      POPC     H8Y      HAL2     0.900000E-01   1.00800           0
     29890 MEMB     260      POPC     C39      CTL2    -0.180000       12.0110           0
     29891 MEMB     260      POPC     H9X      HAL2     0.900000E-01   1.00800           0
     29892 MEMB     260      POPC     H9Y      HAL2     0.900000E-01   1.00800           0
     29893 MEMB     260      POPC     C310     CTL2    -0.180000       12.0110           0
     29894 MEMB     260      POPC     H10X     HAL2     0.900000E-01   1.00800           0
     29895 MEMB     260      POPC     H10Y     HAL2     0.900000E-01   1.00800           0
     29896 MEMB     260      POPC     C311     CTL2    -0.180000       12.0110           0
     29897 MEMB     260      POPC     H11X     HAL2     0.900000E-01   1.00800           0
     29898 MEMB     260      POPC     H11Y     HAL2     0.900000E-01   1.00800           0
     29899 MEMB     260      POPC     C312     CTL2    -0.180000       12.0110           0
     29900 MEMB     260      POPC     H12X     HAL2     0.900000E-01   1.00800           0
     29901 MEMB     260      POPC     H12Y     HAL2     0.900000E-01   1.00800           0
     29902 MEMB     260      POPC     C313     CTL2    -0.180000       12.0110           0
     29903 MEMB     260      POPC     H13X     HAL2     0.900000E-01   1.00800           0
     29904 MEMB     260      POPC     H13Y     HAL2     0.900000E-01   1.00800           0
     29905 MEMB     260      POPC     C314     CTL2    -0.180000       12.0110           0
     29906 MEMB     260      POPC     H14X     HAL2     0.900000E-01   1.00800           0
     29907 MEMB     260      POPC     H14Y     HAL2     0.900000E-01   1.00800           0
     29908 MEMB     260      POPC     C315     CTL2    -0.180000       12.0110           0
     29909 MEMB     260      POPC     H15X     HAL2     0.900000E-01   1.00800           0
     29910 MEMB     260      POPC     H15Y     HAL2     0.900000E-01   1.00800           0
     29911 MEMB     260      POPC     C316     CTL3    -0.270000       12.0110           0
     29912 MEMB     260      POPC     H16X     HAL3     0.900000E-01   1.00800           0
     29913 MEMB     260      POPC     H16Y     HAL3     0.900000E-01   1.00800           0
     29914 MEMB     260      POPC     H16Z     HAL3     0.900000E-01   1.00800           0
     29915 MEMB     261      POPC     N        NTL     -0.600000       14.0070           0
     29916 MEMB     261      POPC     C12      CTL2    -0.100000       12.0110           0
     29917 MEMB     261      POPC     H12A     HL       0.250000       1.00800           0
     29918 MEMB     261      POPC     H12B     HL       0.250000       1.00800           0
     29919 MEMB     261      POPC     C13      CTL5    -0.350000       12.0110           0
     29920 MEMB     261      POPC     H13A     HL       0.250000       1.00800           0
     29921 MEMB     261      POPC     H13B     HL       0.250000       1.00800           0
     29922 MEMB     261      POPC     H13C     HL       0.250000       1.00800           0
     29923 MEMB     261      POPC     C14      CTL5    -0.350000       12.0110           0
     29924 MEMB     261      POPC     H14A     HL       0.250000       1.00800           0
     29925 MEMB     261      POPC     H14B     HL       0.250000       1.00800           0
     29926 MEMB     261      POPC     H14C     HL       0.250000       1.00800           0
     29927 MEMB     261      POPC     C15      CTL5    -0.350000       12.0110           0
     29928 MEMB     261      POPC     H15A     HL       0.250000       1.00800           0
     29929 MEMB     261      POPC     H15B     HL       0.250000       1.00800           0
     29930 MEMB     261      POPC     H15C     HL       0.250000       1.00800           0
     29931 MEMB     261      POPC     C11      CTL2    -0.800000E-01   12.0110           0
     29932 MEMB     261      POPC     H11A     HAL2     0.900000E-01   1.00800           0
     29933 MEMB     261      POPC     H11B     HAL2     0.900000E-01   1.00800           0
     29934 MEMB     261      POPC     P        PL        1.50000       30.9740           0
     29935 MEMB     261      POPC     O13      O2L     -0.780000       15.9994           0
     29936 MEMB     261      POPC     O14      O2L     -0.780000       15.9994           0
     29937 MEMB     261      POPC     O12      OSLP    -0.570000       15.9994           0
     29938 MEMB     261      POPC     O11      OSLP    -0.570000       15.9994           0
     29939 MEMB     261      POPC     C1       CTL2    -0.800000E-01   12.0110           0
     29940 MEMB     261      POPC     HA       HAL2     0.900000E-01   1.00800           0
     29941 MEMB     261      POPC     HB       HAL2     0.900000E-01   1.00800           0
     29942 MEMB     261      POPC     C2       CTL1     0.170000       12.0110           0
     29943 MEMB     261      POPC     HS       HAL1     0.900000E-01   1.00800           0
     29944 MEMB     261      POPC     O21      OSL     -0.490000       15.9994           0
     29945 MEMB     261      POPC     C21      CL       0.900000       12.0110           0
     29946 MEMB     261      POPC     O22      OBL     -0.630000       15.9994           0
     29947 MEMB     261      POPC     C22      CTL2    -0.220000       12.0110           0
     29948 MEMB     261      POPC     H2R      HAL2     0.900000E-01   1.00800           0
     29949 MEMB     261      POPC     H2S      HAL2     0.900000E-01   1.00800           0
     29950 MEMB     261      POPC     C3       CTL2     0.800000E-01   12.0110           0
     29951 MEMB     261      POPC     HX       HAL2     0.900000E-01   1.00800           0
     29952 MEMB     261      POPC     HY       HAL2     0.900000E-01   1.00800           0
     29953 MEMB     261      POPC     O31      OSL     -0.490000       15.9994           0
     29954 MEMB     261      POPC     C31      CL       0.900000       12.0110           0
     29955 MEMB     261      POPC     O32      OBL     -0.630000       15.9994           0
     29956 MEMB     261      POPC     C32      CTL2    -0.220000       12.0110           0
     29957 MEMB     261      POPC     H2X      HAL2     0.900000E-01   1.00800           0
     29958 MEMB     261      POPC     H2Y      HAL2     0.900000E-01   1.00800           0
     29959 MEMB     261      POPC     C23      CTL2    -0.180000       12.0110           0
     29960 MEMB     261      POPC     H3R      HAL2     0.900000E-01   1.00800           0
     29961 MEMB     261      POPC     H3S      HAL2     0.900000E-01   1.00800           0
     29962 MEMB     261      POPC     C24      CTL2    -0.180000       12.0110           0
     29963 MEMB     261      POPC     H4R      HAL2     0.900000E-01   1.00800           0
     29964 MEMB     261      POPC     H4S      HAL2     0.900000E-01   1.00800           0
     29965 MEMB     261      POPC     C25      CTL2    -0.180000       12.0110           0
     29966 MEMB     261      POPC     H5R      HAL2     0.900000E-01   1.00800           0
     29967 MEMB     261      POPC     H5S      HAL2     0.900000E-01   1.00800           0
     29968 MEMB     261      POPC     C26      CTL2    -0.180000       12.0110           0
     29969 MEMB     261      POPC     H6R      HAL2     0.900000E-01   1.00800           0
     29970 MEMB     261      POPC     H6S      HAL2     0.900000E-01   1.00800           0
     29971 MEMB     261      POPC     C27      CTL2    -0.180000       12.0110           0
     29972 MEMB     261      POPC     H7R      HAL2     0.900000E-01   1.00800           0
     29973 MEMB     261      POPC     H7S      HAL2     0.900000E-01   1.00800           0
     29974 MEMB     261      POPC     C28      CTL2    -0.180000       12.0110           0
     29975 MEMB     261      POPC     H8R      HAL2     0.900000E-01   1.00800           0
     29976 MEMB     261      POPC     H8S      HAL2     0.900000E-01   1.00800           0
     29977 MEMB     261      POPC     C29      CEL1    -0.150000       12.0110           0
     29978 MEMB     261      POPC     H91      HEL1     0.150000       1.00800           0
     29979 MEMB     261      POPC     C210     CEL1    -0.150000       12.0110           0
     29980 MEMB     261      POPC     H101     HEL1     0.150000       1.00800           0
     29981 MEMB     261      POPC     C211     CTL2    -0.180000       12.0110           0
     29982 MEMB     261      POPC     H11R     HAL2     0.900000E-01   1.00800           0
     29983 MEMB     261      POPC     H11S     HAL2     0.900000E-01   1.00800           0
     29984 MEMB     261      POPC     C212     CTL2    -0.180000       12.0110           0
     29985 MEMB     261      POPC     H12R     HAL2     0.900000E-01   1.00800           0
     29986 MEMB     261      POPC     H12S     HAL2     0.900000E-01   1.00800           0
     29987 MEMB     261      POPC     C213     CTL2    -0.180000       12.0110           0
     29988 MEMB     261      POPC     H13R     HAL2     0.900000E-01   1.00800           0
     29989 MEMB     261      POPC     H13S     HAL2     0.900000E-01   1.00800           0
     29990 MEMB     261      POPC     C214     CTL2    -0.180000       12.0110           0
     29991 MEMB     261      POPC     H14R     HAL2     0.900000E-01   1.00800           0
     29992 MEMB     261      POPC     H14S     HAL2     0.900000E-01   1.00800           0
     29993 MEMB     261      POPC     C215     CTL2    -0.180000       12.0110           0
     29994 MEMB     261      POPC     H15R     HAL2     0.900000E-01   1.00800           0
     29995 MEMB     261      POPC     H15S     HAL2     0.900000E-01   1.00800           0
     29996 MEMB     261      POPC     C216     CTL2    -0.180000       12.0110           0
     29997 MEMB     261      POPC     H16R     HAL2     0.900000E-01   1.00800           0
     29998 MEMB     261      POPC     H16S     HAL2     0.900000E-01   1.00800           0
     29999 MEMB     261      POPC     C217     CTL2    -0.180000       12.0110           0
     30000 MEMB     261      POPC     H17R     HAL2     0.900000E-01   1.00800           0
     30001 MEMB     261      POPC     H17S     HAL2     0.900000E-01   1.00800           0
     30002 MEMB     261      POPC     C218     CTL3    -0.270000       12.0110           0
     30003 MEMB     261      POPC     H18R     HAL3     0.900000E-01   1.00800           0
     30004 MEMB     261      POPC     H18S     HAL3     0.900000E-01   1.00800           0
     30005 MEMB     261      POPC     H18T     HAL3     0.900000E-01   1.00800           0
     30006 MEMB     261      POPC     C33      CTL2    -0.180000       12.0110           0
     30007 MEMB     261      POPC     H3X      HAL2     0.900000E-01   1.00800           0
     30008 MEMB     261      POPC     H3Y      HAL2     0.900000E-01   1.00800           0
     30009 MEMB     261      POPC     C34      CTL2    -0.180000       12.0110           0
     30010 MEMB     261      POPC     H4X      HAL2     0.900000E-01   1.00800           0
     30011 MEMB     261      POPC     H4Y      HAL2     0.900000E-01   1.00800           0
     30012 MEMB     261      POPC     C35      CTL2    -0.180000       12.0110           0
     30013 MEMB     261      POPC     H5X      HAL2     0.900000E-01   1.00800           0
     30014 MEMB     261      POPC     H5Y      HAL2     0.900000E-01   1.00800           0
     30015 MEMB     261      POPC     C36      CTL2    -0.180000       12.0110           0
     30016 MEMB     261      POPC     H6X      HAL2     0.900000E-01   1.00800           0
     30017 MEMB     261      POPC     H6Y      HAL2     0.900000E-01   1.00800           0
     30018 MEMB     261      POPC     C37      CTL2    -0.180000       12.0110           0
     30019 MEMB     261      POPC     H7X      HAL2     0.900000E-01   1.00800           0
     30020 MEMB     261      POPC     H7Y      HAL2     0.900000E-01   1.00800           0
     30021 MEMB     261      POPC     C38      CTL2    -0.180000       12.0110           0
     30022 MEMB     261      POPC     H8X      HAL2     0.900000E-01   1.00800           0
     30023 MEMB     261      POPC     H8Y      HAL2     0.900000E-01   1.00800           0
     30024 MEMB     261      POPC     C39      CTL2    -0.180000       12.0110           0
     30025 MEMB     261      POPC     H9X      HAL2     0.900000E-01   1.00800           0
     30026 MEMB     261      POPC     H9Y      HAL2     0.900000E-01   1.00800           0
     30027 MEMB     261      POPC     C310     CTL2    -0.180000       12.0110           0
     30028 MEMB     261      POPC     H10X     HAL2     0.900000E-01   1.00800           0
     30029 MEMB     261      POPC     H10Y     HAL2     0.900000E-01   1.00800           0
     30030 MEMB     261      POPC     C311     CTL2    -0.180000       12.0110           0
     30031 MEMB     261      POPC     H11X     HAL2     0.900000E-01   1.00800           0
     30032 MEMB     261      POPC     H11Y     HAL2     0.900000E-01   1.00800           0
     30033 MEMB     261      POPC     C312     CTL2    -0.180000       12.0110           0
     30034 MEMB     261      POPC     H12X     HAL2     0.900000E-01   1.00800           0
     30035 MEMB     261      POPC     H12Y     HAL2     0.900000E-01   1.00800           0
     30036 MEMB     261      POPC     C313     CTL2    -0.180000       12.0110           0
     30037 MEMB     261      POPC     H13X     HAL2     0.900000E-01   1.00800           0
     30038 MEMB     261      POPC     H13Y     HAL2     0.900000E-01   1.00800           0
     30039 MEMB     261      POPC     C314     CTL2    -0.180000       12.0110           0
     30040 MEMB     261      POPC     H14X     HAL2     0.900000E-01   1.00800           0
     30041 MEMB     261      POPC     H14Y     HAL2     0.900000E-01   1.00800           0
     30042 MEMB     261      POPC     C315     CTL2    -0.180000       12.0110           0
     30043 MEMB     261      POPC     H15X     HAL2     0.900000E-01   1.00800           0
     30044 MEMB     261      POPC     H15Y     HAL2     0.900000E-01   1.00800           0
     30045 MEMB     261      POPC     C316     CTL3    -0.270000       12.0110           0
     30046 MEMB     261      POPC     H16X     HAL3     0.900000E-01   1.00800           0
     30047 MEMB     261      POPC     H16Y     HAL3     0.900000E-01   1.00800           0
     30048 MEMB     261      POPC     H16Z     HAL3     0.900000E-01   1.00800           0
     30049 MEMB     262      POPC     N        NTL     -0.600000       14.0070           0
     30050 MEMB     262      POPC     C12      CTL2    -0.100000       12.0110           0
     30051 MEMB     262      POPC     H12A     HL       0.250000       1.00800           0
     30052 MEMB     262      POPC     H12B     HL       0.250000       1.00800           0
     30053 MEMB     262      POPC     C13      CTL5    -0.350000       12.0110           0
     30054 MEMB     262      POPC     H13A     HL       0.250000       1.00800           0
     30055 MEMB     262      POPC     H13B     HL       0.250000       1.00800           0
     30056 MEMB     262      POPC     H13C     HL       0.250000       1.00800           0
     30057 MEMB     262      POPC     C14      CTL5    -0.350000       12.0110           0
     30058 MEMB     262      POPC     H14A     HL       0.250000       1.00800           0
     30059 MEMB     262      POPC     H14B     HL       0.250000       1.00800           0
     30060 MEMB     262      POPC     H14C     HL       0.250000       1.00800           0
     30061 MEMB     262      POPC     C15      CTL5    -0.350000       12.0110           0
     30062 MEMB     262      POPC     H15A     HL       0.250000       1.00800           0
     30063 MEMB     262      POPC     H15B     HL       0.250000       1.00800           0
     30064 MEMB     262      POPC     H15C     HL       0.250000       1.00800           0
     30065 MEMB     262      POPC     C11      CTL2    -0.800000E-01   12.0110           0
     30066 MEMB     262      POPC     H11A     HAL2     0.900000E-01   1.00800           0
     30067 MEMB     262      POPC     H11B     HAL2     0.900000E-01   1.00800           0
     30068 MEMB     262      POPC     P        PL        1.50000       30.9740           0
     30069 MEMB     262      POPC     O13      O2L     -0.780000       15.9994           0
     30070 MEMB     262      POPC     O14      O2L     -0.780000       15.9994           0
     30071 MEMB     262      POPC     O12      OSLP    -0.570000       15.9994           0
     30072 MEMB     262      POPC     O11      OSLP    -0.570000       15.9994           0
     30073 MEMB     262      POPC     C1       CTL2    -0.800000E-01   12.0110           0
     30074 MEMB     262      POPC     HA       HAL2     0.900000E-01   1.00800           0
     30075 MEMB     262      POPC     HB       HAL2     0.900000E-01   1.00800           0
     30076 MEMB     262      POPC     C2       CTL1     0.170000       12.0110           0
     30077 MEMB     262      POPC     HS       HAL1     0.900000E-01   1.00800           0
     30078 MEMB     262      POPC     O21      OSL     -0.490000       15.9994           0
     30079 MEMB     262      POPC     C21      CL       0.900000       12.0110           0
     30080 MEMB     262      POPC     O22      OBL     -0.630000       15.9994           0
     30081 MEMB     262      POPC     C22      CTL2    -0.220000       12.0110           0
     30082 MEMB     262      POPC     H2R      HAL2     0.900000E-01   1.00800           0
     30083 MEMB     262      POPC     H2S      HAL2     0.900000E-01   1.00800           0
     30084 MEMB     262      POPC     C3       CTL2     0.800000E-01   12.0110           0
     30085 MEMB     262      POPC     HX       HAL2     0.900000E-01   1.00800           0
     30086 MEMB     262      POPC     HY       HAL2     0.900000E-01   1.00800           0
     30087 MEMB     262      POPC     O31      OSL     -0.490000       15.9994           0
     30088 MEMB     262      POPC     C31      CL       0.900000       12.0110           0
     30089 MEMB     262      POPC     O32      OBL     -0.630000       15.9994           0
     30090 MEMB     262      POPC     C32      CTL2    -0.220000       12.0110           0
     30091 MEMB     262      POPC     H2X      HAL2     0.900000E-01   1.00800           0
     30092 MEMB     262      POPC     H2Y      HAL2     0.900000E-01   1.00800           0
     30093 MEMB     262      POPC     C23      CTL2    -0.180000       12.0110           0
     30094 MEMB     262      POPC     H3R      HAL2     0.900000E-01   1.00800           0
     30095 MEMB     262      POPC     H3S      HAL2     0.900000E-01   1.00800           0
     30096 MEMB     262      POPC     C24      CTL2    -0.180000       12.0110           0
     30097 MEMB     262      POPC     H4R      HAL2     0.900000E-01   1.00800           0
     30098 MEMB     262      POPC     H4S      HAL2     0.900000E-01   1.00800           0
     30099 MEMB     262      POPC     C25      CTL2    -0.180000       12.0110           0
     30100 MEMB     262      POPC     H5R      HAL2     0.900000E-01   1.00800           0
     30101 MEMB     262      POPC     H5S      HAL2     0.900000E-01   1.00800           0
     30102 MEMB     262      POPC     C26      CTL2    -0.180000       12.0110           0
     30103 MEMB     262      POPC     H6R      HAL2     0.900000E-01   1.00800           0
     30104 MEMB     262      POPC     H6S      HAL2     0.900000E-01   1.00800           0
     30105 MEMB     262      POPC     C27      CTL2    -0.180000       12.0110           0
     30106 MEMB     262      POPC     H7R      HAL2     0.900000E-01   1.00800           0
     30107 MEMB     262      POPC     H7S      HAL2     0.900000E-01   1.00800           0
     30108 MEMB     262      POPC     C28      CTL2    -0.180000       12.0110           0
     30109 MEMB     262      POPC     H8R      HAL2     0.900000E-01   1.00800           0
     30110 MEMB     262      POPC     H8S      HAL2     0.900000E-01   1.00800           0
     30111 MEMB     262      POPC     C29      CEL1    -0.150000       12.0110           0
     30112 MEMB     262      POPC     H91      HEL1     0.150000       1.00800           0
     30113 MEMB     262      POPC     C210     CEL1    -0.150000       12.0110           0
     30114 MEMB     262      POPC     H101     HEL1     0.150000       1.00800           0
     30115 MEMB     262      POPC     C211     CTL2    -0.180000       12.0110           0
     30116 MEMB     262      POPC     H11R     HAL2     0.900000E-01   1.00800           0
     30117 MEMB     262      POPC     H11S     HAL2     0.900000E-01   1.00800           0
     30118 MEMB     262      POPC     C212     CTL2    -0.180000       12.0110           0
     30119 MEMB     262      POPC     H12R     HAL2     0.900000E-01   1.00800           0
     30120 MEMB     262      POPC     H12S     HAL2     0.900000E-01   1.00800           0
     30121 MEMB     262      POPC     C213     CTL2    -0.180000       12.0110           0
     30122 MEMB     262      POPC     H13R     HAL2     0.900000E-01   1.00800           0
     30123 MEMB     262      POPC     H13S     HAL2     0.900000E-01   1.00800           0
     30124 MEMB     262      POPC     C214     CTL2    -0.180000       12.0110           0
     30125 MEMB     262      POPC     H14R     HAL2     0.900000E-01   1.00800           0
     30126 MEMB     262      POPC     H14S     HAL2     0.900000E-01   1.00800           0
     30127 MEMB     262      POPC     C215     CTL2    -0.180000       12.0110           0
     30128 MEMB     262      POPC     H15R     HAL2     0.900000E-01   1.00800           0
     30129 MEMB     262      POPC     H15S     HAL2     0.900000E-01   1.00800           0
     30130 MEMB     262      POPC     C216     CTL2    -0.180000       12.0110           0
     30131 MEMB     262      POPC     H16R     HAL2     0.900000E-01   1.00800           0
     30132 MEMB     262      POPC     H16S     HAL2     0.900000E-01   1.00800           0
     30133 MEMB     262      POPC     C217     CTL2    -0.180000       12.0110           0
     30134 MEMB     262      POPC     H17R     HAL2     0.900000E-01   1.00800           0
     30135 MEMB     262      POPC     H17S     HAL2     0.900000E-01   1.00800           0
     30136 MEMB     262      POPC     C218     CTL3    -0.270000       12.0110           0
     30137 MEMB     262      POPC     H18R     HAL3     0.900000E-01   1.00800           0
     30138 MEMB     262      POPC     H18S     HAL3     0.900000E-01   1.00800           0
     30139 MEMB     262      POPC     H18T     HAL3     0.900000E-01   1.00800           0
     30140 MEMB     262      POPC     C33      CTL2    -0.180000       12.0110           0
     30141 MEMB     262      POPC     H3X      HAL2     0.900000E-01   1.00800           0
     30142 MEMB     262      POPC     H3Y      HAL2     0.900000E-01   1.00800           0
     30143 MEMB     262      POPC     C34      CTL2    -0.180000       12.0110           0
     30144 MEMB     262      POPC     H4X      HAL2     0.900000E-01   1.00800           0
     30145 MEMB     262      POPC     H4Y      HAL2     0.900000E-01   1.00800           0
     30146 MEMB     262      POPC     C35      CTL2    -0.180000       12.0110           0
     30147 MEMB     262      POPC     H5X      HAL2     0.900000E-01   1.00800           0
     30148 MEMB     262      POPC     H5Y      HAL2     0.900000E-01   1.00800           0
     30149 MEMB     262      POPC     C36      CTL2    -0.180000       12.0110           0
     30150 MEMB     262      POPC     H6X      HAL2     0.900000E-01   1.00800           0
     30151 MEMB     262      POPC     H6Y      HAL2     0.900000E-01   1.00800           0
     30152 MEMB     262      POPC     C37      CTL2    -0.180000       12.0110           0
     30153 MEMB     262      POPC     H7X      HAL2     0.900000E-01   1.00800           0
     30154 MEMB     262      POPC     H7Y      HAL2     0.900000E-01   1.00800           0
     30155 MEMB     262      POPC     C38      CTL2    -0.180000       12.0110           0
     30156 MEMB     262      POPC     H8X      HAL2     0.900000E-01   1.00800           0
     30157 MEMB     262      POPC     H8Y      HAL2     0.900000E-01   1.00800           0
     30158 MEMB     262      POPC     C39      CTL2    -0.180000       12.0110           0
     30159 MEMB     262      POPC     H9X      HAL2     0.900000E-01   1.00800           0
     30160 MEMB     262      POPC     H9Y      HAL2     0.900000E-01   1.00800           0
     30161 MEMB     262      POPC     C310     CTL2    -0.180000       12.0110           0
     30162 MEMB     262      POPC     H10X     HAL2     0.900000E-01   1.00800           0
     30163 MEMB     262      POPC     H10Y     HAL2     0.900000E-01   1.00800           0
     30164 MEMB     262      POPC     C311     CTL2    -0.180000       12.0110           0
     30165 MEMB     262      POPC     H11X     HAL2     0.900000E-01   1.00800           0
     30166 MEMB     262      POPC     H11Y     HAL2     0.900000E-01   1.00800           0
     30167 MEMB     262      POPC     C312     CTL2    -0.180000       12.0110           0
     30168 MEMB     262      POPC     H12X     HAL2     0.900000E-01   1.00800           0
     30169 MEMB     262      POPC     H12Y     HAL2     0.900000E-01   1.00800           0
     30170 MEMB     262      POPC     C313     CTL2    -0.180000       12.0110           0
     30171 MEMB     262      POPC     H13X     HAL2     0.900000E-01   1.00800           0
     30172 MEMB     262      POPC     H13Y     HAL2     0.900000E-01   1.00800           0
     30173 MEMB     262      POPC     C314     CTL2    -0.180000       12.0110           0
     30174 MEMB     262      POPC     H14X     HAL2     0.900000E-01   1.00800           0
     30175 MEMB     262      POPC     H14Y     HAL2     0.900000E-01   1.00800           0
     30176 MEMB     262      POPC     C315     CTL2    -0.180000       12.0110           0
     30177 MEMB     262      POPC     H15X     HAL2     0.900000E-01   1.00800           0
     30178 MEMB     262      POPC     H15Y     HAL2     0.900000E-01   1.00800           0
     30179 MEMB     262      POPC     C316     CTL3    -0.270000       12.0110           0
     30180 MEMB     262      POPC     H16X     HAL3     0.900000E-01   1.00800           0
     30181 MEMB     262      POPC     H16Y     HAL3     0.900000E-01   1.00800           0
     30182 MEMB     262      POPC     H16Z     HAL3     0.900000E-01   1.00800           0
     30183 MEMB     263      POPC     N        NTL     -0.600000       14.0070           0
     30184 MEMB     263      POPC     C12      CTL2    -0.100000       12.0110           0
     30185 MEMB     263      POPC     H12A     HL       0.250000       1.00800           0
     30186 MEMB     263      POPC     H12B     HL       0.250000       1.00800           0
     30187 MEMB     263      POPC     C13      CTL5    -0.350000       12.0110           0
     30188 MEMB     263      POPC     H13A     HL       0.250000       1.00800           0
     30189 MEMB     263      POPC     H13B     HL       0.250000       1.00800           0
     30190 MEMB     263      POPC     H13C     HL       0.250000       1.00800           0
     30191 MEMB     263      POPC     C14      CTL5    -0.350000       12.0110           0
     30192 MEMB     263      POPC     H14A     HL       0.250000       1.00800           0
     30193 MEMB     263      POPC     H14B     HL       0.250000       1.00800           0
     30194 MEMB     263      POPC     H14C     HL       0.250000       1.00800           0
     30195 MEMB     263      POPC     C15      CTL5    -0.350000       12.0110           0
     30196 MEMB     263      POPC     H15A     HL       0.250000       1.00800           0
     30197 MEMB     263      POPC     H15B     HL       0.250000       1.00800           0
     30198 MEMB     263      POPC     H15C     HL       0.250000       1.00800           0
     30199 MEMB     263      POPC     C11      CTL2    -0.800000E-01   12.0110           0
     30200 MEMB     263      POPC     H11A     HAL2     0.900000E-01   1.00800           0
     30201 MEMB     263      POPC     H11B     HAL2     0.900000E-01   1.00800           0
     30202 MEMB     263      POPC     P        PL        1.50000       30.9740           0
     30203 MEMB     263      POPC     O13      O2L     -0.780000       15.9994           0
     30204 MEMB     263      POPC     O14      O2L     -0.780000       15.9994           0
     30205 MEMB     263      POPC     O12      OSLP    -0.570000       15.9994           0
     30206 MEMB     263      POPC     O11      OSLP    -0.570000       15.9994           0
     30207 MEMB     263      POPC     C1       CTL2    -0.800000E-01   12.0110           0
     30208 MEMB     263      POPC     HA       HAL2     0.900000E-01   1.00800           0
     30209 MEMB     263      POPC     HB       HAL2     0.900000E-01   1.00800           0
     30210 MEMB     263      POPC     C2       CTL1     0.170000       12.0110           0
     30211 MEMB     263      POPC     HS       HAL1     0.900000E-01   1.00800           0
     30212 MEMB     263      POPC     O21      OSL     -0.490000       15.9994           0
     30213 MEMB     263      POPC     C21      CL       0.900000       12.0110           0
     30214 MEMB     263      POPC     O22      OBL     -0.630000       15.9994           0
     30215 MEMB     263      POPC     C22      CTL2    -0.220000       12.0110           0
     30216 MEMB     263      POPC     H2R      HAL2     0.900000E-01   1.00800           0
     30217 MEMB     263      POPC     H2S      HAL2     0.900000E-01   1.00800           0
     30218 MEMB     263      POPC     C3       CTL2     0.800000E-01   12.0110           0
     30219 MEMB     263      POPC     HX       HAL2     0.900000E-01   1.00800           0
     30220 MEMB     263      POPC     HY       HAL2     0.900000E-01   1.00800           0
     30221 MEMB     263      POPC     O31      OSL     -0.490000       15.9994           0
     30222 MEMB     263      POPC     C31      CL       0.900000       12.0110           0
     30223 MEMB     263      POPC     O32      OBL     -0.630000       15.9994           0
     30224 MEMB     263      POPC     C32      CTL2    -0.220000       12.0110           0
     30225 MEMB     263      POPC     H2X      HAL2     0.900000E-01   1.00800           0
     30226 MEMB     263      POPC     H2Y      HAL2     0.900000E-01   1.00800           0
     30227 MEMB     263      POPC     C23      CTL2    -0.180000       12.0110           0
     30228 MEMB     263      POPC     H3R      HAL2     0.900000E-01   1.00800           0
     30229 MEMB     263      POPC     H3S      HAL2     0.900000E-01   1.00800           0
     30230 MEMB     263      POPC     C24      CTL2    -0.180000       12.0110           0
     30231 MEMB     263      POPC     H4R      HAL2     0.900000E-01   1.00800           0
     30232 MEMB     263      POPC     H4S      HAL2     0.900000E-01   1.00800           0
     30233 MEMB     263      POPC     C25      CTL2    -0.180000       12.0110           0
     30234 MEMB     263      POPC     H5R      HAL2     0.900000E-01   1.00800           0
     30235 MEMB     263      POPC     H5S      HAL2     0.900000E-01   1.00800           0
     30236 MEMB     263      POPC     C26      CTL2    -0.180000       12.0110           0
     30237 MEMB     263      POPC     H6R      HAL2     0.900000E-01   1.00800           0
     30238 MEMB     263      POPC     H6S      HAL2     0.900000E-01   1.00800           0
     30239 MEMB     263      POPC     C27      CTL2    -0.180000       12.0110           0
     30240 MEMB     263      POPC     H7R      HAL2     0.900000E-01   1.00800           0
     30241 MEMB     263      POPC     H7S      HAL2     0.900000E-01   1.00800           0
     30242 MEMB     263      POPC     C28      CTL2    -0.180000       12.0110           0
     30243 MEMB     263      POPC     H8R      HAL2     0.900000E-01   1.00800           0
     30244 MEMB     263      POPC     H8S      HAL2     0.900000E-01   1.00800           0
     30245 MEMB     263      POPC     C29      CEL1    -0.150000       12.0110           0
     30246 MEMB     263      POPC     H91      HEL1     0.150000       1.00800           0
     30247 MEMB     263      POPC     C210     CEL1    -0.150000       12.0110           0
     30248 MEMB     263      POPC     H101     HEL1     0.150000       1.00800           0
     30249 MEMB     263      POPC     C211     CTL2    -0.180000       12.0110           0
     30250 MEMB     263      POPC     H11R     HAL2     0.900000E-01   1.00800           0
     30251 MEMB     263      POPC     H11S     HAL2     0.900000E-01   1.00800           0
     30252 MEMB     263      POPC     C212     CTL2    -0.180000       12.0110           0
     30253 MEMB     263      POPC     H12R     HAL2     0.900000E-01   1.00800           0
     30254 MEMB     263      POPC     H12S     HAL2     0.900000E-01   1.00800           0
     30255 MEMB     263      POPC     C213     CTL2    -0.180000       12.0110           0
     30256 MEMB     263      POPC     H13R     HAL2     0.900000E-01   1.00800           0
     30257 MEMB     263      POPC     H13S     HAL2     0.900000E-01   1.00800           0
     30258 MEMB     263      POPC     C214     CTL2    -0.180000       12.0110           0
     30259 MEMB     263      POPC     H14R     HAL2     0.900000E-01   1.00800           0
     30260 MEMB     263      POPC     H14S     HAL2     0.900000E-01   1.00800           0
     30261 MEMB     263      POPC     C215     CTL2    -0.180000       12.0110           0
     30262 MEMB     263      POPC     H15R     HAL2     0.900000E-01   1.00800           0
     30263 MEMB     263      POPC     H15S     HAL2     0.900000E-01   1.00800           0
     30264 MEMB     263      POPC     C216     CTL2    -0.180000       12.0110           0
     30265 MEMB     263      POPC     H16R     HAL2     0.900000E-01   1.00800           0
     30266 MEMB     263      POPC     H16S     HAL2     0.900000E-01   1.00800           0
     30267 MEMB     263      POPC     C217     CTL2    -0.180000       12.0110           0
     30268 MEMB     263      POPC     H17R     HAL2     0.900000E-01   1.00800           0
     30269 MEMB     263      POPC     H17S     HAL2     0.900000E-01   1.00800           0
     30270 MEMB     263      POPC     C218     CTL3    -0.270000       12.0110           0
     30271 MEMB     263      POPC     H18R     HAL3     0.900000E-01   1.00800           0
     30272 MEMB     263      POPC     H18S     HAL3     0.900000E-01   1.00800           0
     30273 MEMB     263      POPC     H18T     HAL3     0.900000E-01   1.00800           0
     30274 MEMB     263      POPC     C33      CTL2    -0.180000       12.0110           0
     30275 MEMB     263      POPC     H3X      HAL2     0.900000E-01   1.00800           0
     30276 MEMB     263      POPC     H3Y      HAL2     0.900000E-01   1.00800           0
     30277 MEMB     263      POPC     C34      CTL2    -0.180000       12.0110           0
     30278 MEMB     263      POPC     H4X      HAL2     0.900000E-01   1.00800           0
     30279 MEMB     263      POPC     H4Y      HAL2     0.900000E-01   1.00800           0
     30280 MEMB     263      POPC     C35      CTL2    -0.180000       12.0110           0
     30281 MEMB     263      POPC     H5X      HAL2     0.900000E-01   1.00800           0
     30282 MEMB     263      POPC     H5Y      HAL2     0.900000E-01   1.00800           0
     30283 MEMB     263      POPC     C36      CTL2    -0.180000       12.0110           0
     30284 MEMB     263      POPC     H6X      HAL2     0.900000E-01   1.00800           0
     30285 MEMB     263      POPC     H6Y      HAL2     0.900000E-01   1.00800           0
     30286 MEMB     263      POPC     C37      CTL2    -0.180000       12.0110           0
     30287 MEMB     263      POPC     H7X      HAL2     0.900000E-01   1.00800           0
     30288 MEMB     263      POPC     H7Y      HAL2     0.900000E-01   1.00800           0
     30289 MEMB     263      POPC     C38      CTL2    -0.180000       12.0110           0
     30290 MEMB     263      POPC     H8X      HAL2     0.900000E-01   1.00800           0
     30291 MEMB     263      POPC     H8Y      HAL2     0.900000E-01   1.00800           0
     30292 MEMB     263      POPC     C39      CTL2    -0.180000       12.0110           0
     30293 MEMB     263      POPC     H9X      HAL2     0.900000E-01   1.00800           0
     30294 MEMB     263      POPC     H9Y      HAL2     0.900000E-01   1.00800           0
     30295 MEMB     263      POPC     C310     CTL2    -0.180000       12.0110           0
     30296 MEMB     263      POPC     H10X     HAL2     0.900000E-01   1.00800           0
     30297 MEMB     263      POPC     H10Y     HAL2     0.900000E-01   1.00800           0
     30298 MEMB     263      POPC     C311     CTL2    -0.180000       12.0110           0
     30299 MEMB     263      POPC     H11X     HAL2     0.900000E-01   1.00800           0
     30300 MEMB     263      POPC     H11Y     HAL2     0.900000E-01   1.00800           0
     30301 MEMB     263      POPC     C312     CTL2    -0.180000       12.0110           0
     30302 MEMB     263      POPC     H12X     HAL2     0.900000E-01   1.00800           0
     30303 MEMB     263      POPC     H12Y     HAL2     0.900000E-01   1.00800           0
     30304 MEMB     263      POPC     C313     CTL2    -0.180000       12.0110           0
     30305 MEMB     263      POPC     H13X     HAL2     0.900000E-01   1.00800           0
     30306 MEMB     263      POPC     H13Y     HAL2     0.900000E-01   1.00800           0
     30307 MEMB     263      POPC     C314     CTL2    -0.180000       12.0110           0
     30308 MEMB     263      POPC     H14X     HAL2     0.900000E-01   1.00800           0
     30309 MEMB     263      POPC     H14Y     HAL2     0.900000E-01   1.00800           0
     30310 MEMB     263      POPC     C315     CTL2    -0.180000       12.0110           0
     30311 MEMB     263      POPC     H15X     HAL2     0.900000E-01   1.00800           0
     30312 MEMB     263      POPC     H15Y     HAL2     0.900000E-01   1.00800           0
     30313 MEMB     263      POPC     C316     CTL3    -0.270000       12.0110           0
     30314 MEMB     263      POPC     H16X     HAL3     0.900000E-01   1.00800           0
     30315 MEMB     263      POPC     H16Y     HAL3     0.900000E-01   1.00800           0
     30316 MEMB     263      POPC     H16Z     HAL3     0.900000E-01   1.00800           0
     30317 MEMB     264      POPC     N        NTL     -0.600000       14.0070           0
     30318 MEMB     264      POPC     C12      CTL2    -0.100000       12.0110           0
     30319 MEMB     264      POPC     H12A     HL       0.250000       1.00800           0
     30320 MEMB     264      POPC     H12B     HL       0.250000       1.00800           0
     30321 MEMB     264      POPC     C13      CTL5    -0.350000       12.0110           0
     30322 MEMB     264      POPC     H13A     HL       0.250000       1.00800           0
     30323 MEMB     264      POPC     H13B     HL       0.250000       1.00800           0
     30324 MEMB     264      POPC     H13C     HL       0.250000       1.00800           0
     30325 MEMB     264      POPC     C14      CTL5    -0.350000       12.0110           0
     30326 MEMB     264      POPC     H14A     HL       0.250000       1.00800           0
     30327 MEMB     264      POPC     H14B     HL       0.250000       1.00800           0
     30328 MEMB     264      POPC     H14C     HL       0.250000       1.00800           0
     30329 MEMB     264      POPC     C15      CTL5    -0.350000       12.0110           0
     30330 MEMB     264      POPC     H15A     HL       0.250000       1.00800           0
     30331 MEMB     264      POPC     H15B     HL       0.250000       1.00800           0
     30332 MEMB     264      POPC     H15C     HL       0.250000       1.00800           0
     30333 MEMB     264      POPC     C11      CTL2    -0.800000E-01   12.0110           0
     30334 MEMB     264      POPC     H11A     HAL2     0.900000E-01   1.00800           0
     30335 MEMB     264      POPC     H11B     HAL2     0.900000E-01   1.00800           0
     30336 MEMB     264      POPC     P        PL        1.50000       30.9740           0
     30337 MEMB     264      POPC     O13      O2L     -0.780000       15.9994           0
     30338 MEMB     264      POPC     O14      O2L     -0.780000       15.9994           0
     30339 MEMB     264      POPC     O12      OSLP    -0.570000       15.9994           0
     30340 MEMB     264      POPC     O11      OSLP    -0.570000       15.9994           0
     30341 MEMB     264      POPC     C1       CTL2    -0.800000E-01   12.0110           0
     30342 MEMB     264      POPC     HA       HAL2     0.900000E-01   1.00800           0
     30343 MEMB     264      POPC     HB       HAL2     0.900000E-01   1.00800           0
     30344 MEMB     264      POPC     C2       CTL1     0.170000       12.0110           0
     30345 MEMB     264      POPC     HS       HAL1     0.900000E-01   1.00800           0
     30346 MEMB     264      POPC     O21      OSL     -0.490000       15.9994           0
     30347 MEMB     264      POPC     C21      CL       0.900000       12.0110           0
     30348 MEMB     264      POPC     O22      OBL     -0.630000       15.9994           0
     30349 MEMB     264      POPC     C22      CTL2    -0.220000       12.0110           0
     30350 MEMB     264      POPC     H2R      HAL2     0.900000E-01   1.00800           0
     30351 MEMB     264      POPC     H2S      HAL2     0.900000E-01   1.00800           0
     30352 MEMB     264      POPC     C3       CTL2     0.800000E-01   12.0110           0
     30353 MEMB     264      POPC     HX       HAL2     0.900000E-01   1.00800           0
     30354 MEMB     264      POPC     HY       HAL2     0.900000E-01   1.00800           0
     30355 MEMB     264      POPC     O31      OSL     -0.490000       15.9994           0
     30356 MEMB     264      POPC     C31      CL       0.900000       12.0110           0
     30357 MEMB     264      POPC     O32      OBL     -0.630000       15.9994           0
     30358 MEMB     264      POPC     C32      CTL2    -0.220000       12.0110           0
     30359 MEMB     264      POPC     H2X      HAL2     0.900000E-01   1.00800           0
     30360 MEMB     264      POPC     H2Y      HAL2     0.900000E-01   1.00800           0
     30361 MEMB     264      POPC     C23      CTL2    -0.180000       12.0110           0
     30362 MEMB     264      POPC     H3R      HAL2     0.900000E-01   1.00800           0
     30363 MEMB     264      POPC     H3S      HAL2     0.900000E-01   1.00800           0
     30364 MEMB     264      POPC     C24      CTL2    -0.180000       12.0110           0
     30365 MEMB     264      POPC     H4R      HAL2     0.900000E-01   1.00800           0
     30366 MEMB     264      POPC     H4S      HAL2     0.900000E-01   1.00800           0
     30367 MEMB     264      POPC     C25      CTL2    -0.180000       12.0110           0
     30368 MEMB     264      POPC     H5R      HAL2     0.900000E-01   1.00800           0
     30369 MEMB     264      POPC     H5S      HAL2     0.900000E-01   1.00800           0
     30370 MEMB     264      POPC     C26      CTL2    -0.180000       12.0110           0
     30371 MEMB     264      POPC     H6R      HAL2     0.900000E-01   1.00800           0
     30372 MEMB     264      POPC     H6S      HAL2     0.900000E-01   1.00800           0
     30373 MEMB     264      POPC     C27      CTL2    -0.180000       12.0110           0
     30374 MEMB     264      POPC     H7R      HAL2     0.900000E-01   1.00800           0
     30375 MEMB     264      POPC     H7S      HAL2     0.900000E-01   1.00800           0
     30376 MEMB     264      POPC     C28      CTL2    -0.180000       12.0110           0
     30377 MEMB     264      POPC     H8R      HAL2     0.900000E-01   1.00800           0
     30378 MEMB     264      POPC     H8S      HAL2     0.900000E-01   1.00800           0
     30379 MEMB     264      POPC     C29      CEL1    -0.150000       12.0110           0
     30380 MEMB     264      POPC     H91      HEL1     0.150000       1.00800           0
     30381 MEMB     264      POPC     C210     CEL1    -0.150000       12.0110           0
     30382 MEMB     264      POPC     H101     HEL1     0.150000       1.00800           0
     30383 MEMB     264      POPC     C211     CTL2    -0.180000       12.0110           0
     30384 MEMB     264      POPC     H11R     HAL2     0.900000E-01   1.00800           0
     30385 MEMB     264      POPC     H11S     HAL2     0.900000E-01   1.00800           0
     30386 MEMB     264      POPC     C212     CTL2    -0.180000       12.0110           0
     30387 MEMB     264      POPC     H12R     HAL2     0.900000E-01   1.00800           0
     30388 MEMB     264      POPC     H12S     HAL2     0.900000E-01   1.00800           0
     30389 MEMB     264      POPC     C213     CTL2    -0.180000       12.0110           0
     30390 MEMB     264      POPC     H13R     HAL2     0.900000E-01   1.00800           0
     30391 MEMB     264      POPC     H13S     HAL2     0.900000E-01   1.00800           0
     30392 MEMB     264      POPC     C214     CTL2    -0.180000       12.0110           0
     30393 MEMB     264      POPC     H14R     HAL2     0.900000E-01   1.00800           0
     30394 MEMB     264      POPC     H14S     HAL2     0.900000E-01   1.00800           0
     30395 MEMB     264      POPC     C215     CTL2    -0.180000       12.0110           0
     30396 MEMB     264      POPC     H15R     HAL2     0.900000E-01   1.00800           0
     30397 MEMB     264      POPC     H15S     HAL2     0.900000E-01   1.00800           0
     30398 MEMB     264      POPC     C216     CTL2    -0.180000       12.0110           0
     30399 MEMB     264      POPC     H16R     HAL2     0.900000E-01   1.00800           0
     30400 MEMB     264      POPC     H16S     HAL2     0.900000E-01   1.00800           0
     30401 MEMB     264      POPC     C217     CTL2    -0.180000       12.0110           0
     30402 MEMB     264      POPC     H17R     HAL2     0.900000E-01   1.00800           0
     30403 MEMB     264      POPC     H17S     HAL2     0.900000E-01   1.00800           0
     30404 MEMB     264      POPC     C218     CTL3    -0.270000       12.0110           0
     30405 MEMB     264      POPC     H18R     HAL3     0.900000E-01   1.00800           0
     30406 MEMB     264      POPC     H18S     HAL3     0.900000E-01   1.00800           0
     30407 MEMB     264      POPC     H18T     HAL3     0.900000E-01   1.00800           0
     30408 MEMB     264      POPC     C33      CTL2    -0.180000       12.0110           0
     30409 MEMB     264      POPC     H3X      HAL2     0.900000E-01   1.00800           0
     30410 MEMB     264      POPC     H3Y      HAL2     0.900000E-01   1.00800           0
     30411 MEMB     264      POPC     C34      CTL2    -0.180000       12.0110           0
     30412 MEMB     264      POPC     H4X      HAL2     0.900000E-01   1.00800           0
     30413 MEMB     264      POPC     H4Y      HAL2     0.900000E-01   1.00800           0
     30414 MEMB     264      POPC     C35      CTL2    -0.180000       12.0110           0
     30415 MEMB     264      POPC     H5X      HAL2     0.900000E-01   1.00800           0
     30416 MEMB     264      POPC     H5Y      HAL2     0.900000E-01   1.00800           0
     30417 MEMB     264      POPC     C36      CTL2    -0.180000       12.0110           0
     30418 MEMB     264      POPC     H6X      HAL2     0.900000E-01   1.00800           0
     30419 MEMB     264      POPC     H6Y      HAL2     0.900000E-01   1.00800           0
     30420 MEMB     264      POPC     C37      CTL2    -0.180000       12.0110           0
     30421 MEMB     264      POPC     H7X      HAL2     0.900000E-01   1.00800           0
     30422 MEMB     264      POPC     H7Y      HAL2     0.900000E-01   1.00800           0
     30423 MEMB     264      POPC     C38      CTL2    -0.180000       12.0110           0
     30424 MEMB     264      POPC     H8X      HAL2     0.900000E-01   1.00800           0
     30425 MEMB     264      POPC     H8Y      HAL2     0.900000E-01   1.00800           0
     30426 MEMB     264      POPC     C39      CTL2    -0.180000       12.0110           0
     30427 MEMB     264      POPC     H9X      HAL2     0.900000E-01   1.00800           0
     30428 MEMB     264      POPC     H9Y      HAL2     0.900000E-01   1.00800           0
     30429 MEMB     264      POPC     C310     CTL2    -0.180000       12.0110           0
     30430 MEMB     264      POPC     H10X     HAL2     0.900000E-01   1.00800           0
     30431 MEMB     264      POPC     H10Y     HAL2     0.900000E-01   1.00800           0
     30432 MEMB     264      POPC     C311     CTL2    -0.180000       12.0110           0
     30433 MEMB     264      POPC     H11X     HAL2     0.900000E-01   1.00800           0
     30434 MEMB     264      POPC     H11Y     HAL2     0.900000E-01   1.00800           0
     30435 MEMB     264      POPC     C312     CTL2    -0.180000       12.0110           0
     30436 MEMB     264      POPC     H12X     HAL2     0.900000E-01   1.00800           0
     30437 MEMB     264      POPC     H12Y     HAL2     0.900000E-01   1.00800           0
     30438 MEMB     264      POPC     C313     CTL2    -0.180000       12.0110           0
     30439 MEMB     264      POPC     H13X     HAL2     0.900000E-01   1.00800           0
     30440 MEMB     264      POPC     H13Y     HAL2     0.900000E-01   1.00800           0
     30441 MEMB     264      POPC     C314     CTL2    -0.180000       12.0110           0
     30442 MEMB     264      POPC     H14X     HAL2     0.900000E-01   1.00800           0
     30443 MEMB     264      POPC     H14Y     HAL2     0.900000E-01   1.00800           0
     30444 MEMB     264      POPC     C315     CTL2    -0.180000       12.0110           0
     30445 MEMB     264      POPC     H15X     HAL2     0.900000E-01   1.00800           0
     30446 MEMB     264      POPC     H15Y     HAL2     0.900000E-01   1.00800           0
     30447 MEMB     264      POPC     C316     CTL3    -0.270000       12.0110           0
     30448 MEMB     264      POPC     H16X     HAL3     0.900000E-01   1.00800           0
     30449 MEMB     264      POPC     H16Y     HAL3     0.900000E-01   1.00800           0
     30450 MEMB     264      POPC     H16Z     HAL3     0.900000E-01   1.00800           0
     30451 MEMB     265      POPC     N        NTL     -0.600000       14.0070           0
     30452 MEMB     265      POPC     C12      CTL2    -0.100000       12.0110           0
     30453 MEMB     265      POPC     H12A     HL       0.250000       1.00800           0
     30454 MEMB     265      POPC     H12B     HL       0.250000       1.00800           0
     30455 MEMB     265      POPC     C13      CTL5    -0.350000       12.0110           0
     30456 MEMB     265      POPC     H13A     HL       0.250000       1.00800           0
     30457 MEMB     265      POPC     H13B     HL       0.250000       1.00800           0
     30458 MEMB     265      POPC     H13C     HL       0.250000       1.00800           0
     30459 MEMB     265      POPC     C14      CTL5    -0.350000       12.0110           0
     30460 MEMB     265      POPC     H14A     HL       0.250000       1.00800           0
     30461 MEMB     265      POPC     H14B     HL       0.250000       1.00800           0
     30462 MEMB     265      POPC     H14C     HL       0.250000       1.00800           0
     30463 MEMB     265      POPC     C15      CTL5    -0.350000       12.0110           0
     30464 MEMB     265      POPC     H15A     HL       0.250000       1.00800           0
     30465 MEMB     265      POPC     H15B     HL       0.250000       1.00800           0
     30466 MEMB     265      POPC     H15C     HL       0.250000       1.00800           0
     30467 MEMB     265      POPC     C11      CTL2    -0.800000E-01   12.0110           0
     30468 MEMB     265      POPC     H11A     HAL2     0.900000E-01   1.00800           0
     30469 MEMB     265      POPC     H11B     HAL2     0.900000E-01   1.00800           0
     30470 MEMB     265      POPC     P        PL        1.50000       30.9740           0
     30471 MEMB     265      POPC     O13      O2L     -0.780000       15.9994           0
     30472 MEMB     265      POPC     O14      O2L     -0.780000       15.9994           0
     30473 MEMB     265      POPC     O12      OSLP    -0.570000       15.9994           0
     30474 MEMB     265      POPC     O11      OSLP    -0.570000       15.9994           0
     30475 MEMB     265      POPC     C1       CTL2    -0.800000E-01   12.0110           0
     30476 MEMB     265      POPC     HA       HAL2     0.900000E-01   1.00800           0
     30477 MEMB     265      POPC     HB       HAL2     0.900000E-01   1.00800           0
     30478 MEMB     265      POPC     C2       CTL1     0.170000       12.0110           0
     30479 MEMB     265      POPC     HS       HAL1     0.900000E-01   1.00800           0
     30480 MEMB     265      POPC     O21      OSL     -0.490000       15.9994           0
     30481 MEMB     265      POPC     C21      CL       0.900000       12.0110           0
     30482 MEMB     265      POPC     O22      OBL     -0.630000       15.9994           0
     30483 MEMB     265      POPC     C22      CTL2    -0.220000       12.0110           0
     30484 MEMB     265      POPC     H2R      HAL2     0.900000E-01   1.00800           0
     30485 MEMB     265      POPC     H2S      HAL2     0.900000E-01   1.00800           0
     30486 MEMB     265      POPC     C3       CTL2     0.800000E-01   12.0110           0
     30487 MEMB     265      POPC     HX       HAL2     0.900000E-01   1.00800           0
     30488 MEMB     265      POPC     HY       HAL2     0.900000E-01   1.00800           0
     30489 MEMB     265      POPC     O31      OSL     -0.490000       15.9994           0
     30490 MEMB     265      POPC     C31      CL       0.900000       12.0110           0
     30491 MEMB     265      POPC     O32      OBL     -0.630000       15.9994           0
     30492 MEMB     265      POPC     C32      CTL2    -0.220000       12.0110           0
     30493 MEMB     265      POPC     H2X      HAL2     0.900000E-01   1.00800           0
     30494 MEMB     265      POPC     H2Y      HAL2     0.900000E-01   1.00800           0
     30495 MEMB     265      POPC     C23      CTL2    -0.180000       12.0110           0
     30496 MEMB     265      POPC     H3R      HAL2     0.900000E-01   1.00800           0
     30497 MEMB     265      POPC     H3S      HAL2     0.900000E-01   1.00800           0
     30498 MEMB     265      POPC     C24      CTL2    -0.180000       12.0110           0
     30499 MEMB     265      POPC     H4R      HAL2     0.900000E-01   1.00800           0
     30500 MEMB     265      POPC     H4S      HAL2     0.900000E-01   1.00800           0
     30501 MEMB     265      POPC     C25      CTL2    -0.180000       12.0110           0
     30502 MEMB     265      POPC     H5R      HAL2     0.900000E-01   1.00800           0
     30503 MEMB     265      POPC     H5S      HAL2     0.900000E-01   1.00800           0
     30504 MEMB     265      POPC     C26      CTL2    -0.180000       12.0110           0
     30505 MEMB     265      POPC     H6R      HAL2     0.900000E-01   1.00800           0
     30506 MEMB     265      POPC     H6S      HAL2     0.900000E-01   1.00800           0
     30507 MEMB     265      POPC     C27      CTL2    -0.180000       12.0110           0
     30508 MEMB     265      POPC     H7R      HAL2     0.900000E-01   1.00800           0
     30509 MEMB     265      POPC     H7S      HAL2     0.900000E-01   1.00800           0
     30510 MEMB     265      POPC     C28      CTL2    -0.180000       12.0110           0
     30511 MEMB     265      POPC     H8R      HAL2     0.900000E-01   1.00800           0
     30512 MEMB     265      POPC     H8S      HAL2     0.900000E-01   1.00800           0
     30513 MEMB     265      POPC     C29      CEL1    -0.150000       12.0110           0
     30514 MEMB     265      POPC     H91      HEL1     0.150000       1.00800           0
     30515 MEMB     265      POPC     C210     CEL1    -0.150000       12.0110           0
     30516 MEMB     265      POPC     H101     HEL1     0.150000       1.00800           0
     30517 MEMB     265      POPC     C211     CTL2    -0.180000       12.0110           0
     30518 MEMB     265      POPC     H11R     HAL2     0.900000E-01   1.00800           0
     30519 MEMB     265      POPC     H11S     HAL2     0.900000E-01   1.00800           0
     30520 MEMB     265      POPC     C212     CTL2    -0.180000       12.0110           0
     30521 MEMB     265      POPC     H12R     HAL2     0.900000E-01   1.00800           0
     30522 MEMB     265      POPC     H12S     HAL2     0.900000E-01   1.00800           0
     30523 MEMB     265      POPC     C213     CTL2    -0.180000       12.0110           0
     30524 MEMB     265      POPC     H13R     HAL2     0.900000E-01   1.00800           0
     30525 MEMB     265      POPC     H13S     HAL2     0.900000E-01   1.00800           0
     30526 MEMB     265      POPC     C214     CTL2    -0.180000       12.0110           0
     30527 MEMB     265      POPC     H14R     HAL2     0.900000E-01   1.00800           0
     30528 MEMB     265      POPC     H14S     HAL2     0.900000E-01   1.00800           0
     30529 MEMB     265      POPC     C215     CTL2    -0.180000       12.0110           0
     30530 MEMB     265      POPC     H15R     HAL2     0.900000E-01   1.00800           0
     30531 MEMB     265      POPC     H15S     HAL2     0.900000E-01   1.00800           0
     30532 MEMB     265      POPC     C216     CTL2    -0.180000       12.0110           0
     30533 MEMB     265      POPC     H16R     HAL2     0.900000E-01   1.00800           0
     30534 MEMB     265      POPC     H16S     HAL2     0.900000E-01   1.00800           0
     30535 MEMB     265      POPC     C217     CTL2    -0.180000       12.0110           0
     30536 MEMB     265      POPC     H17R     HAL2     0.900000E-01   1.00800           0
     30537 MEMB     265      POPC     H17S     HAL2     0.900000E-01   1.00800           0
     30538 MEMB     265      POPC     C218     CTL3    -0.270000       12.0110           0
     30539 MEMB     265      POPC     H18R     HAL3     0.900000E-01   1.00800           0
     30540 MEMB     265      POPC     H18S     HAL3     0.900000E-01   1.00800           0
     30541 MEMB     265      POPC     H18T     HAL3     0.900000E-01   1.00800           0
     30542 MEMB     265      POPC     C33      CTL2    -0.180000       12.0110           0
     30543 MEMB     265      POPC     H3X      HAL2     0.900000E-01   1.00800           0
     30544 MEMB     265      POPC     H3Y      HAL2     0.900000E-01   1.00800           0
     30545 MEMB     265      POPC     C34      CTL2    -0.180000       12.0110           0
     30546 MEMB     265      POPC     H4X      HAL2     0.900000E-01   1.00800           0
     30547 MEMB     265      POPC     H4Y      HAL2     0.900000E-01   1.00800           0
     30548 MEMB     265      POPC     C35      CTL2    -0.180000       12.0110           0
     30549 MEMB     265      POPC     H5X      HAL2     0.900000E-01   1.00800           0
     30550 MEMB     265      POPC     H5Y      HAL2     0.900000E-01   1.00800           0
     30551 MEMB     265      POPC     C36      CTL2    -0.180000       12.0110           0
     30552 MEMB     265      POPC     H6X      HAL2     0.900000E-01   1.00800           0
     30553 MEMB     265      POPC     H6Y      HAL2     0.900000E-01   1.00800           0
     30554 MEMB     265      POPC     C37      CTL2    -0.180000       12.0110           0
     30555 MEMB     265      POPC     H7X      HAL2     0.900000E-01   1.00800           0
     30556 MEMB     265      POPC     H7Y      HAL2     0.900000E-01   1.00800           0
     30557 MEMB     265      POPC     C38      CTL2    -0.180000       12.0110           0
     30558 MEMB     265      POPC     H8X      HAL2     0.900000E-01   1.00800           0
     30559 MEMB     265      POPC     H8Y      HAL2     0.900000E-01   1.00800           0
     30560 MEMB     265      POPC     C39      CTL2    -0.180000       12.0110           0
     30561 MEMB     265      POPC     H9X      HAL2     0.900000E-01   1.00800           0
     30562 MEMB     265      POPC     H9Y      HAL2     0.900000E-01   1.00800           0
     30563 MEMB     265      POPC     C310     CTL2    -0.180000       12.0110           0
     30564 MEMB     265      POPC     H10X     HAL2     0.900000E-01   1.00800           0
     30565 MEMB     265      POPC     H10Y     HAL2     0.900000E-01   1.00800           0
     30566 MEMB     265      POPC     C311     CTL2    -0.180000       12.0110           0
     30567 MEMB     265      POPC     H11X     HAL2     0.900000E-01   1.00800           0
     30568 MEMB     265      POPC     H11Y     HAL2     0.900000E-01   1.00800           0
     30569 MEMB     265      POPC     C312     CTL2    -0.180000       12.0110           0
     30570 MEMB     265      POPC     H12X     HAL2     0.900000E-01   1.00800           0
     30571 MEMB     265      POPC     H12Y     HAL2     0.900000E-01   1.00800           0
     30572 MEMB     265      POPC     C313     CTL2    -0.180000       12.0110           0
     30573 MEMB     265      POPC     H13X     HAL2     0.900000E-01   1.00800           0
     30574 MEMB     265      POPC     H13Y     HAL2     0.900000E-01   1.00800           0
     30575 MEMB     265      POPC     C314     CTL2    -0.180000       12.0110           0
     30576 MEMB     265      POPC     H14X     HAL2     0.900000E-01   1.00800           0
     30577 MEMB     265      POPC     H14Y     HAL2     0.900000E-01   1.00800           0
     30578 MEMB     265      POPC     C315     CTL2    -0.180000       12.0110           0
     30579 MEMB     265      POPC     H15X     HAL2     0.900000E-01   1.00800           0
     30580 MEMB     265      POPC     H15Y     HAL2     0.900000E-01   1.00800           0
     30581 MEMB     265      POPC     C316     CTL3    -0.270000       12.0110           0
     30582 MEMB     265      POPC     H16X     HAL3     0.900000E-01   1.00800           0
     30583 MEMB     265      POPC     H16Y     HAL3     0.900000E-01   1.00800           0
     30584 MEMB     265      POPC     H16Z     HAL3     0.900000E-01   1.00800           0
     30585 MEMB     266      POPC     N        NTL     -0.600000       14.0070           0
     30586 MEMB     266      POPC     C12      CTL2    -0.100000       12.0110           0
     30587 MEMB     266      POPC     H12A     HL       0.250000       1.00800           0
     30588 MEMB     266      POPC     H12B     HL       0.250000       1.00800           0
     30589 MEMB     266      POPC     C13      CTL5    -0.350000       12.0110           0
     30590 MEMB     266      POPC     H13A     HL       0.250000       1.00800           0
     30591 MEMB     266      POPC     H13B     HL       0.250000       1.00800           0
     30592 MEMB     266      POPC     H13C     HL       0.250000       1.00800           0
     30593 MEMB     266      POPC     C14      CTL5    -0.350000       12.0110           0
     30594 MEMB     266      POPC     H14A     HL       0.250000       1.00800           0
     30595 MEMB     266      POPC     H14B     HL       0.250000       1.00800           0
     30596 MEMB     266      POPC     H14C     HL       0.250000       1.00800           0
     30597 MEMB     266      POPC     C15      CTL5    -0.350000       12.0110           0
     30598 MEMB     266      POPC     H15A     HL       0.250000       1.00800           0
     30599 MEMB     266      POPC     H15B     HL       0.250000       1.00800           0
     30600 MEMB     266      POPC     H15C     HL       0.250000       1.00800           0
     30601 MEMB     266      POPC     C11      CTL2    -0.800000E-01   12.0110           0
     30602 MEMB     266      POPC     H11A     HAL2     0.900000E-01   1.00800           0
     30603 MEMB     266      POPC     H11B     HAL2     0.900000E-01   1.00800           0
     30604 MEMB     266      POPC     P        PL        1.50000       30.9740           0
     30605 MEMB     266      POPC     O13      O2L     -0.780000       15.9994           0
     30606 MEMB     266      POPC     O14      O2L     -0.780000       15.9994           0
     30607 MEMB     266      POPC     O12      OSLP    -0.570000       15.9994           0
     30608 MEMB     266      POPC     O11      OSLP    -0.570000       15.9994           0
     30609 MEMB     266      POPC     C1       CTL2    -0.800000E-01   12.0110           0
     30610 MEMB     266      POPC     HA       HAL2     0.900000E-01   1.00800           0
     30611 MEMB     266      POPC     HB       HAL2     0.900000E-01   1.00800           0
     30612 MEMB     266      POPC     C2       CTL1     0.170000       12.0110           0
     30613 MEMB     266      POPC     HS       HAL1     0.900000E-01   1.00800           0
     30614 MEMB     266      POPC     O21      OSL     -0.490000       15.9994           0
     30615 MEMB     266      POPC     C21      CL       0.900000       12.0110           0
     30616 MEMB     266      POPC     O22      OBL     -0.630000       15.9994           0
     30617 MEMB     266      POPC     C22      CTL2    -0.220000       12.0110           0
     30618 MEMB     266      POPC     H2R      HAL2     0.900000E-01   1.00800           0
     30619 MEMB     266      POPC     H2S      HAL2     0.900000E-01   1.00800           0
     30620 MEMB     266      POPC     C3       CTL2     0.800000E-01   12.0110           0
     30621 MEMB     266      POPC     HX       HAL2     0.900000E-01   1.00800           0
     30622 MEMB     266      POPC     HY       HAL2     0.900000E-01   1.00800           0
     30623 MEMB     266      POPC     O31      OSL     -0.490000       15.9994           0
     30624 MEMB     266      POPC     C31      CL       0.900000       12.0110           0
     30625 MEMB     266      POPC     O32      OBL     -0.630000       15.9994           0
     30626 MEMB     266      POPC     C32      CTL2    -0.220000       12.0110           0
     30627 MEMB     266      POPC     H2X      HAL2     0.900000E-01   1.00800           0
     30628 MEMB     266      POPC     H2Y      HAL2     0.900000E-01   1.00800           0
     30629 MEMB     266      POPC     C23      CTL2    -0.180000       12.0110           0
     30630 MEMB     266      POPC     H3R      HAL2     0.900000E-01   1.00800           0
     30631 MEMB     266      POPC     H3S      HAL2     0.900000E-01   1.00800           0
     30632 MEMB     266      POPC     C24      CTL2    -0.180000       12.0110           0
     30633 MEMB     266      POPC     H4R      HAL2     0.900000E-01   1.00800           0
     30634 MEMB     266      POPC     H4S      HAL2     0.900000E-01   1.00800           0
     30635 MEMB     266      POPC     C25      CTL2    -0.180000       12.0110           0
     30636 MEMB     266      POPC     H5R      HAL2     0.900000E-01   1.00800           0
     30637 MEMB     266      POPC     H5S      HAL2     0.900000E-01   1.00800           0
     30638 MEMB     266      POPC     C26      CTL2    -0.180000       12.0110           0
     30639 MEMB     266      POPC     H6R      HAL2     0.900000E-01   1.00800           0
     30640 MEMB     266      POPC     H6S      HAL2     0.900000E-01   1.00800           0
     30641 MEMB     266      POPC     C27      CTL2    -0.180000       12.0110           0
     30642 MEMB     266      POPC     H7R      HAL2     0.900000E-01   1.00800           0
     30643 MEMB     266      POPC     H7S      HAL2     0.900000E-01   1.00800           0
     30644 MEMB     266      POPC     C28      CTL2    -0.180000       12.0110           0
     30645 MEMB     266      POPC     H8R      HAL2     0.900000E-01   1.00800           0
     30646 MEMB     266      POPC     H8S      HAL2     0.900000E-01   1.00800           0
     30647 MEMB     266      POPC     C29      CEL1    -0.150000       12.0110           0
     30648 MEMB     266      POPC     H91      HEL1     0.150000       1.00800           0
     30649 MEMB     266      POPC     C210     CEL1    -0.150000       12.0110           0
     30650 MEMB     266      POPC     H101     HEL1     0.150000       1.00800           0
     30651 MEMB     266      POPC     C211     CTL2    -0.180000       12.0110           0
     30652 MEMB     266      POPC     H11R     HAL2     0.900000E-01   1.00800           0
     30653 MEMB     266      POPC     H11S     HAL2     0.900000E-01   1.00800           0
     30654 MEMB     266      POPC     C212     CTL2    -0.180000       12.0110           0
     30655 MEMB     266      POPC     H12R     HAL2     0.900000E-01   1.00800           0
     30656 MEMB     266      POPC     H12S     HAL2     0.900000E-01   1.00800           0
     30657 MEMB     266      POPC     C213     CTL2    -0.180000       12.0110           0
     30658 MEMB     266      POPC     H13R     HAL2     0.900000E-01   1.00800           0
     30659 MEMB     266      POPC     H13S     HAL2     0.900000E-01   1.00800           0
     30660 MEMB     266      POPC     C214     CTL2    -0.180000       12.0110           0
     30661 MEMB     266      POPC     H14R     HAL2     0.900000E-01   1.00800           0
     30662 MEMB     266      POPC     H14S     HAL2     0.900000E-01   1.00800           0
     30663 MEMB     266      POPC     C215     CTL2    -0.180000       12.0110           0
     30664 MEMB     266      POPC     H15R     HAL2     0.900000E-01   1.00800           0
     30665 MEMB     266      POPC     H15S     HAL2     0.900000E-01   1.00800           0
     30666 MEMB     266      POPC     C216     CTL2    -0.180000       12.0110           0
     30667 MEMB     266      POPC     H16R     HAL2     0.900000E-01   1.00800           0
     30668 MEMB     266      POPC     H16S     HAL2     0.900000E-01   1.00800           0
     30669 MEMB     266      POPC     C217     CTL2    -0.180000       12.0110           0
     30670 MEMB     266      POPC     H17R     HAL2     0.900000E-01   1.00800           0
     30671 MEMB     266      POPC     H17S     HAL2     0.900000E-01   1.00800           0
     30672 MEMB     266      POPC     C218     CTL3    -0.270000       12.0110           0
     30673 MEMB     266      POPC     H18R     HAL3     0.900000E-01   1.00800           0
     30674 MEMB     266      POPC     H18S     HAL3     0.900000E-01   1.00800           0
     30675 MEMB     266      POPC     H18T     HAL3     0.900000E-01   1.00800           0
     30676 MEMB     266      POPC     C33      CTL2    -0.180000       12.0110           0
     30677 MEMB     266      POPC     H3X      HAL2     0.900000E-01   1.00800           0
     30678 MEMB     266      POPC     H3Y      HAL2     0.900000E-01   1.00800           0
     30679 MEMB     266      POPC     C34      CTL2    -0.180000       12.0110           0
     30680 MEMB     266      POPC     H4X      HAL2     0.900000E-01   1.00800           0
     30681 MEMB     266      POPC     H4Y      HAL2     0.900000E-01   1.00800           0
     30682 MEMB     266      POPC     C35      CTL2    -0.180000       12.0110           0
     30683 MEMB     266      POPC     H5X      HAL2     0.900000E-01   1.00800           0
     30684 MEMB     266      POPC     H5Y      HAL2     0.900000E-01   1.00800           0
     30685 MEMB     266      POPC     C36      CTL2    -0.180000       12.0110           0
     30686 MEMB     266      POPC     H6X      HAL2     0.900000E-01   1.00800           0
     30687 MEMB     266      POPC     H6Y      HAL2     0.900000E-01   1.00800           0
     30688 MEMB     266      POPC     C37      CTL2    -0.180000       12.0110           0
     30689 MEMB     266      POPC     H7X      HAL2     0.900000E-01   1.00800           0
     30690 MEMB     266      POPC     H7Y      HAL2     0.900000E-01   1.00800           0
     30691 MEMB     266      POPC     C38      CTL2    -0.180000       12.0110           0
     30692 MEMB     266      POPC     H8X      HAL2     0.900000E-01   1.00800           0
     30693 MEMB     266      POPC     H8Y      HAL2     0.900000E-01   1.00800           0
     30694 MEMB     266      POPC     C39      CTL2    -0.180000       12.0110           0
     30695 MEMB     266      POPC     H9X      HAL2     0.900000E-01   1.00800           0
     30696 MEMB     266      POPC     H9Y      HAL2     0.900000E-01   1.00800           0
     30697 MEMB     266      POPC     C310     CTL2    -0.180000       12.0110           0
     30698 MEMB     266      POPC     H10X     HAL2     0.900000E-01   1.00800           0
     30699 MEMB     266      POPC     H10Y     HAL2     0.900000E-01   1.00800           0
     30700 MEMB     266      POPC     C311     CTL2    -0.180000       12.0110           0
     30701 MEMB     266      POPC     H11X     HAL2     0.900000E-01   1.00800           0
     30702 MEMB     266      POPC     H11Y     HAL2     0.900000E-01   1.00800           0
     30703 MEMB     266      POPC     C312     CTL2    -0.180000       12.0110           0
     30704 MEMB     266      POPC     H12X     HAL2     0.900000E-01   1.00800           0
     30705 MEMB     266      POPC     H12Y     HAL2     0.900000E-01   1.00800           0
     30706 MEMB     266      POPC     C313     CTL2    -0.180000       12.0110           0
     30707 MEMB     266      POPC     H13X     HAL2     0.900000E-01   1.00800           0
     30708 MEMB     266      POPC     H13Y     HAL2     0.900000E-01   1.00800           0
     30709 MEMB     266      POPC     C314     CTL2    -0.180000       12.0110           0
     30710 MEMB     266      POPC     H14X     HAL2     0.900000E-01   1.00800           0
     30711 MEMB     266      POPC     H14Y     HAL2     0.900000E-01   1.00800           0
     30712 MEMB     266      POPC     C315     CTL2    -0.180000       12.0110           0
     30713 MEMB     266      POPC     H15X     HAL2     0.900000E-01   1.00800           0
     30714 MEMB     266      POPC     H15Y     HAL2     0.900000E-01   1.00800           0
     30715 MEMB     266      POPC     C316     CTL3    -0.270000       12.0110           0
     30716 MEMB     266      POPC     H16X     HAL3     0.900000E-01   1.00800           0
     30717 MEMB     266      POPC     H16Y     HAL3     0.900000E-01   1.00800           0
     30718 MEMB     266      POPC     H16Z     HAL3     0.900000E-01   1.00800           0
     30719 MEMB     267      POPC     N        NTL     -0.600000       14.0070           0
     30720 MEMB     267      POPC     C12      CTL2    -0.100000       12.0110           0
     30721 MEMB     267      POPC     H12A     HL       0.250000       1.00800           0
     30722 MEMB     267      POPC     H12B     HL       0.250000       1.00800           0
     30723 MEMB     267      POPC     C13      CTL5    -0.350000       12.0110           0
     30724 MEMB     267      POPC     H13A     HL       0.250000       1.00800           0
     30725 MEMB     267      POPC     H13B     HL       0.250000       1.00800           0
     30726 MEMB     267      POPC     H13C     HL       0.250000       1.00800           0
     30727 MEMB     267      POPC     C14      CTL5    -0.350000       12.0110           0
     30728 MEMB     267      POPC     H14A     HL       0.250000       1.00800           0
     30729 MEMB     267      POPC     H14B     HL       0.250000       1.00800           0
     30730 MEMB     267      POPC     H14C     HL       0.250000       1.00800           0
     30731 MEMB     267      POPC     C15      CTL5    -0.350000       12.0110           0
     30732 MEMB     267      POPC     H15A     HL       0.250000       1.00800           0
     30733 MEMB     267      POPC     H15B     HL       0.250000       1.00800           0
     30734 MEMB     267      POPC     H15C     HL       0.250000       1.00800           0
     30735 MEMB     267      POPC     C11      CTL2    -0.800000E-01   12.0110           0
     30736 MEMB     267      POPC     H11A     HAL2     0.900000E-01   1.00800           0
     30737 MEMB     267      POPC     H11B     HAL2     0.900000E-01   1.00800           0
     30738 MEMB     267      POPC     P        PL        1.50000       30.9740           0
     30739 MEMB     267      POPC     O13      O2L     -0.780000       15.9994           0
     30740 MEMB     267      POPC     O14      O2L     -0.780000       15.9994           0
     30741 MEMB     267      POPC     O12      OSLP    -0.570000       15.9994           0
     30742 MEMB     267      POPC     O11      OSLP    -0.570000       15.9994           0
     30743 MEMB     267      POPC     C1       CTL2    -0.800000E-01   12.0110           0
     30744 MEMB     267      POPC     HA       HAL2     0.900000E-01   1.00800           0
     30745 MEMB     267      POPC     HB       HAL2     0.900000E-01   1.00800           0
     30746 MEMB     267      POPC     C2       CTL1     0.170000       12.0110           0
     30747 MEMB     267      POPC     HS       HAL1     0.900000E-01   1.00800           0
     30748 MEMB     267      POPC     O21      OSL     -0.490000       15.9994           0
     30749 MEMB     267      POPC     C21      CL       0.900000       12.0110           0
     30750 MEMB     267      POPC     O22      OBL     -0.630000       15.9994           0
     30751 MEMB     267      POPC     C22      CTL2    -0.220000       12.0110           0
     30752 MEMB     267      POPC     H2R      HAL2     0.900000E-01   1.00800           0
     30753 MEMB     267      POPC     H2S      HAL2     0.900000E-01   1.00800           0
     30754 MEMB     267      POPC     C3       CTL2     0.800000E-01   12.0110           0
     30755 MEMB     267      POPC     HX       HAL2     0.900000E-01   1.00800           0
     30756 MEMB     267      POPC     HY       HAL2     0.900000E-01   1.00800           0
     30757 MEMB     267      POPC     O31      OSL     -0.490000       15.9994           0
     30758 MEMB     267      POPC     C31      CL       0.900000       12.0110           0
     30759 MEMB     267      POPC     O32      OBL     -0.630000       15.9994           0
     30760 MEMB     267      POPC     C32      CTL2    -0.220000       12.0110           0
     30761 MEMB     267      POPC     H2X      HAL2     0.900000E-01   1.00800           0
     30762 MEMB     267      POPC     H2Y      HAL2     0.900000E-01   1.00800           0
     30763 MEMB     267      POPC     C23      CTL2    -0.180000       12.0110           0
     30764 MEMB     267      POPC     H3R      HAL2     0.900000E-01   1.00800           0
     30765 MEMB     267      POPC     H3S      HAL2     0.900000E-01   1.00800           0
     30766 MEMB     267      POPC     C24      CTL2    -0.180000       12.0110           0
     30767 MEMB     267      POPC     H4R      HAL2     0.900000E-01   1.00800           0
     30768 MEMB     267      POPC     H4S      HAL2     0.900000E-01   1.00800           0
     30769 MEMB     267      POPC     C25      CTL2    -0.180000       12.0110           0
     30770 MEMB     267      POPC     H5R      HAL2     0.900000E-01   1.00800           0
     30771 MEMB     267      POPC     H5S      HAL2     0.900000E-01   1.00800           0
     30772 MEMB     267      POPC     C26      CTL2    -0.180000       12.0110           0
     30773 MEMB     267      POPC     H6R      HAL2     0.900000E-01   1.00800           0
     30774 MEMB     267      POPC     H6S      HAL2     0.900000E-01   1.00800           0
     30775 MEMB     267      POPC     C27      CTL2    -0.180000       12.0110           0
     30776 MEMB     267      POPC     H7R      HAL2     0.900000E-01   1.00800           0
     30777 MEMB     267      POPC     H7S      HAL2     0.900000E-01   1.00800           0
     30778 MEMB     267      POPC     C28      CTL2    -0.180000       12.0110           0
     30779 MEMB     267      POPC     H8R      HAL2     0.900000E-01   1.00800           0
     30780 MEMB     267      POPC     H8S      HAL2     0.900000E-01   1.00800           0
     30781 MEMB     267      POPC     C29      CEL1    -0.150000       12.0110           0
     30782 MEMB     267      POPC     H91      HEL1     0.150000       1.00800           0
     30783 MEMB     267      POPC     C210     CEL1    -0.150000       12.0110           0
     30784 MEMB     267      POPC     H101     HEL1     0.150000       1.00800           0
     30785 MEMB     267      POPC     C211     CTL2    -0.180000       12.0110           0
     30786 MEMB     267      POPC     H11R     HAL2     0.900000E-01   1.00800           0
     30787 MEMB     267      POPC     H11S     HAL2     0.900000E-01   1.00800           0
     30788 MEMB     267      POPC     C212     CTL2    -0.180000       12.0110           0
     30789 MEMB     267      POPC     H12R     HAL2     0.900000E-01   1.00800           0
     30790 MEMB     267      POPC     H12S     HAL2     0.900000E-01   1.00800           0
     30791 MEMB     267      POPC     C213     CTL2    -0.180000       12.0110           0
     30792 MEMB     267      POPC     H13R     HAL2     0.900000E-01   1.00800           0
     30793 MEMB     267      POPC     H13S     HAL2     0.900000E-01   1.00800           0
     30794 MEMB     267      POPC     C214     CTL2    -0.180000       12.0110           0
     30795 MEMB     267      POPC     H14R     HAL2     0.900000E-01   1.00800           0
     30796 MEMB     267      POPC     H14S     HAL2     0.900000E-01   1.00800           0
     30797 MEMB     267      POPC     C215     CTL2    -0.180000       12.0110           0
     30798 MEMB     267      POPC     H15R     HAL2     0.900000E-01   1.00800           0
     30799 MEMB     267      POPC     H15S     HAL2     0.900000E-01   1.00800           0
     30800 MEMB     267      POPC     C216     CTL2    -0.180000       12.0110           0
     30801 MEMB     267      POPC     H16R     HAL2     0.900000E-01   1.00800           0
     30802 MEMB     267      POPC     H16S     HAL2     0.900000E-01   1.00800           0
     30803 MEMB     267      POPC     C217     CTL2    -0.180000       12.0110           0
     30804 MEMB     267      POPC     H17R     HAL2     0.900000E-01   1.00800           0
     30805 MEMB     267      POPC     H17S     HAL2     0.900000E-01   1.00800           0
     30806 MEMB     267      POPC     C218     CTL3    -0.270000       12.0110           0
     30807 MEMB     267      POPC     H18R     HAL3     0.900000E-01   1.00800           0
     30808 MEMB     267      POPC     H18S     HAL3     0.900000E-01   1.00800           0
     30809 MEMB     267      POPC     H18T     HAL3     0.900000E-01   1.00800           0
     30810 MEMB     267      POPC     C33      CTL2    -0.180000       12.0110           0
     30811 MEMB     267      POPC     H3X      HAL2     0.900000E-01   1.00800           0
     30812 MEMB     267      POPC     H3Y      HAL2     0.900000E-01   1.00800           0
     30813 MEMB     267      POPC     C34      CTL2    -0.180000       12.0110           0
     30814 MEMB     267      POPC     H4X      HAL2     0.900000E-01   1.00800           0
     30815 MEMB     267      POPC     H4Y      HAL2     0.900000E-01   1.00800           0
     30816 MEMB     267      POPC     C35      CTL2    -0.180000       12.0110           0
     30817 MEMB     267      POPC     H5X      HAL2     0.900000E-01   1.00800           0
     30818 MEMB     267      POPC     H5Y      HAL2     0.900000E-01   1.00800           0
     30819 MEMB     267      POPC     C36      CTL2    -0.180000       12.0110           0
     30820 MEMB     267      POPC     H6X      HAL2     0.900000E-01   1.00800           0
     30821 MEMB     267      POPC     H6Y      HAL2     0.900000E-01   1.00800           0
     30822 MEMB     267      POPC     C37      CTL2    -0.180000       12.0110           0
     30823 MEMB     267      POPC     H7X      HAL2     0.900000E-01   1.00800           0
     30824 MEMB     267      POPC     H7Y      HAL2     0.900000E-01   1.00800           0
     30825 MEMB     267      POPC     C38      CTL2    -0.180000       12.0110           0
     30826 MEMB     267      POPC     H8X      HAL2     0.900000E-01   1.00800           0
     30827 MEMB     267      POPC     H8Y      HAL2     0.900000E-01   1.00800           0
     30828 MEMB     267      POPC     C39      CTL2    -0.180000       12.0110           0
     30829 MEMB     267      POPC     H9X      HAL2     0.900000E-01   1.00800           0
     30830 MEMB     267      POPC     H9Y      HAL2     0.900000E-01   1.00800           0
     30831 MEMB     267      POPC     C310     CTL2    -0.180000       12.0110           0
     30832 MEMB     267      POPC     H10X     HAL2     0.900000E-01   1.00800           0
     30833 MEMB     267      POPC     H10Y     HAL2     0.900000E-01   1.00800           0
     30834 MEMB     267      POPC     C311     CTL2    -0.180000       12.0110           0
     30835 MEMB     267      POPC     H11X     HAL2     0.900000E-01   1.00800           0
     30836 MEMB     267      POPC     H11Y     HAL2     0.900000E-01   1.00800           0
     30837 MEMB     267      POPC     C312     CTL2    -0.180000       12.0110           0
     30838 MEMB     267      POPC     H12X     HAL2     0.900000E-01   1.00800           0
     30839 MEMB     267      POPC     H12Y     HAL2     0.900000E-01   1.00800           0
     30840 MEMB     267      POPC     C313     CTL2    -0.180000       12.0110           0
     30841 MEMB     267      POPC     H13X     HAL2     0.900000E-01   1.00800           0
     30842 MEMB     267      POPC     H13Y     HAL2     0.900000E-01   1.00800           0
     30843 MEMB     267      POPC     C314     CTL2    -0.180000       12.0110           0
     30844 MEMB     267      POPC     H14X     HAL2     0.900000E-01   1.00800           0
     30845 MEMB     267      POPC     H14Y     HAL2     0.900000E-01   1.00800           0
     30846 MEMB     267      POPC     C315     CTL2    -0.180000       12.0110           0
     30847 MEMB     267      POPC     H15X     HAL2     0.900000E-01   1.00800           0
     30848 MEMB     267      POPC     H15Y     HAL2     0.900000E-01   1.00800           0
     30849 MEMB     267      POPC     C316     CTL3    -0.270000       12.0110           0
     30850 MEMB     267      POPC     H16X     HAL3     0.900000E-01   1.00800           0
     30851 MEMB     267      POPC     H16Y     HAL3     0.900000E-01   1.00800           0
     30852 MEMB     267      POPC     H16Z     HAL3     0.900000E-01   1.00800           0
     30853 MEMB     268      POPC     N        NTL     -0.600000       14.0070           0
     30854 MEMB     268      POPC     C12      CTL2    -0.100000       12.0110           0
     30855 MEMB     268      POPC     H12A     HL       0.250000       1.00800           0
     30856 MEMB     268      POPC     H12B     HL       0.250000       1.00800           0
     30857 MEMB     268      POPC     C13      CTL5    -0.350000       12.0110           0
     30858 MEMB     268      POPC     H13A     HL       0.250000       1.00800           0
     30859 MEMB     268      POPC     H13B     HL       0.250000       1.00800           0
     30860 MEMB     268      POPC     H13C     HL       0.250000       1.00800           0
     30861 MEMB     268      POPC     C14      CTL5    -0.350000       12.0110           0
     30862 MEMB     268      POPC     H14A     HL       0.250000       1.00800           0
     30863 MEMB     268      POPC     H14B     HL       0.250000       1.00800           0
     30864 MEMB     268      POPC     H14C     HL       0.250000       1.00800           0
     30865 MEMB     268      POPC     C15      CTL5    -0.350000       12.0110           0
     30866 MEMB     268      POPC     H15A     HL       0.250000       1.00800           0
     30867 MEMB     268      POPC     H15B     HL       0.250000       1.00800           0
     30868 MEMB     268      POPC     H15C     HL       0.250000       1.00800           0
     30869 MEMB     268      POPC     C11      CTL2    -0.800000E-01   12.0110           0
     30870 MEMB     268      POPC     H11A     HAL2     0.900000E-01   1.00800           0
     30871 MEMB     268      POPC     H11B     HAL2     0.900000E-01   1.00800           0
     30872 MEMB     268      POPC     P        PL        1.50000       30.9740           0
     30873 MEMB     268      POPC     O13      O2L     -0.780000       15.9994           0
     30874 MEMB     268      POPC     O14      O2L     -0.780000       15.9994           0
     30875 MEMB     268      POPC     O12      OSLP    -0.570000       15.9994           0
     30876 MEMB     268      POPC     O11      OSLP    -0.570000       15.9994           0
     30877 MEMB     268      POPC     C1       CTL2    -0.800000E-01   12.0110           0
     30878 MEMB     268      POPC     HA       HAL2     0.900000E-01   1.00800           0
     30879 MEMB     268      POPC     HB       HAL2     0.900000E-01   1.00800           0
     30880 MEMB     268      POPC     C2       CTL1     0.170000       12.0110           0
     30881 MEMB     268      POPC     HS       HAL1     0.900000E-01   1.00800           0
     30882 MEMB     268      POPC     O21      OSL     -0.490000       15.9994           0
     30883 MEMB     268      POPC     C21      CL       0.900000       12.0110           0
     30884 MEMB     268      POPC     O22      OBL     -0.630000       15.9994           0
     30885 MEMB     268      POPC     C22      CTL2    -0.220000       12.0110           0
     30886 MEMB     268      POPC     H2R      HAL2     0.900000E-01   1.00800           0
     30887 MEMB     268      POPC     H2S      HAL2     0.900000E-01   1.00800           0
     30888 MEMB     268      POPC     C3       CTL2     0.800000E-01   12.0110           0
     30889 MEMB     268      POPC     HX       HAL2     0.900000E-01   1.00800           0
     30890 MEMB     268      POPC     HY       HAL2     0.900000E-01   1.00800           0
     30891 MEMB     268      POPC     O31      OSL     -0.490000       15.9994           0
     30892 MEMB     268      POPC     C31      CL       0.900000       12.0110           0
     30893 MEMB     268      POPC     O32      OBL     -0.630000       15.9994           0
     30894 MEMB     268      POPC     C32      CTL2    -0.220000       12.0110           0
     30895 MEMB     268      POPC     H2X      HAL2     0.900000E-01   1.00800           0
     30896 MEMB     268      POPC     H2Y      HAL2     0.900000E-01   1.00800           0
     30897 MEMB     268      POPC     C23      CTL2    -0.180000       12.0110           0
     30898 MEMB     268      POPC     H3R      HAL2     0.900000E-01   1.00800           0
     30899 MEMB     268      POPC     H3S      HAL2     0.900000E-01   1.00800           0
     30900 MEMB     268      POPC     C24      CTL2    -0.180000       12.0110           0
     30901 MEMB     268      POPC     H4R      HAL2     0.900000E-01   1.00800           0
     30902 MEMB     268      POPC     H4S      HAL2     0.900000E-01   1.00800           0
     30903 MEMB     268      POPC     C25      CTL2    -0.180000       12.0110           0
     30904 MEMB     268      POPC     H5R      HAL2     0.900000E-01   1.00800           0
     30905 MEMB     268      POPC     H5S      HAL2     0.900000E-01   1.00800           0
     30906 MEMB     268      POPC     C26      CTL2    -0.180000       12.0110           0
     30907 MEMB     268      POPC     H6R      HAL2     0.900000E-01   1.00800           0
     30908 MEMB     268      POPC     H6S      HAL2     0.900000E-01   1.00800           0
     30909 MEMB     268      POPC     C27      CTL2    -0.180000       12.0110           0
     30910 MEMB     268      POPC     H7R      HAL2     0.900000E-01   1.00800           0
     30911 MEMB     268      POPC     H7S      HAL2     0.900000E-01   1.00800           0
     30912 MEMB     268      POPC     C28      CTL2    -0.180000       12.0110           0
     30913 MEMB     268      POPC     H8R      HAL2     0.900000E-01   1.00800           0
     30914 MEMB     268      POPC     H8S      HAL2     0.900000E-01   1.00800           0
     30915 MEMB     268      POPC     C29      CEL1    -0.150000       12.0110           0
     30916 MEMB     268      POPC     H91      HEL1     0.150000       1.00800           0
     30917 MEMB     268      POPC     C210     CEL1    -0.150000       12.0110           0
     30918 MEMB     268      POPC     H101     HEL1     0.150000       1.00800           0
     30919 MEMB     268      POPC     C211     CTL2    -0.180000       12.0110           0
     30920 MEMB     268      POPC     H11R     HAL2     0.900000E-01   1.00800           0
     30921 MEMB     268      POPC     H11S     HAL2     0.900000E-01   1.00800           0
     30922 MEMB     268      POPC     C212     CTL2    -0.180000       12.0110           0
     30923 MEMB     268      POPC     H12R     HAL2     0.900000E-01   1.00800           0
     30924 MEMB     268      POPC     H12S     HAL2     0.900000E-01   1.00800           0
     30925 MEMB     268      POPC     C213     CTL2    -0.180000       12.0110           0
     30926 MEMB     268      POPC     H13R     HAL2     0.900000E-01   1.00800           0
     30927 MEMB     268      POPC     H13S     HAL2     0.900000E-01   1.00800           0
     30928 MEMB     268      POPC     C214     CTL2    -0.180000       12.0110           0
     30929 MEMB     268      POPC     H14R     HAL2     0.900000E-01   1.00800           0
     30930 MEMB     268      POPC     H14S     HAL2     0.900000E-01   1.00800           0
     30931 MEMB     268      POPC     C215     CTL2    -0.180000       12.0110           0
     30932 MEMB     268      POPC     H15R     HAL2     0.900000E-01   1.00800           0
     30933 MEMB     268      POPC     H15S     HAL2     0.900000E-01   1.00800           0
     30934 MEMB     268      POPC     C216     CTL2    -0.180000       12.0110           0
     30935 MEMB     268      POPC     H16R     HAL2     0.900000E-01   1.00800           0
     30936 MEMB     268      POPC     H16S     HAL2     0.900000E-01   1.00800           0
     30937 MEMB     268      POPC     C217     CTL2    -0.180000       12.0110           0
     30938 MEMB     268      POPC     H17R     HAL2     0.900000E-01   1.00800           0
     30939 MEMB     268      POPC     H17S     HAL2     0.900000E-01   1.00800           0
     30940 MEMB     268      POPC     C218     CTL3    -0.270000       12.0110           0
     30941 MEMB     268      POPC     H18R     HAL3     0.900000E-01   1.00800           0
     30942 MEMB     268      POPC     H18S     HAL3     0.900000E-01   1.00800           0
     30943 MEMB     268      POPC     H18T     HAL3     0.900000E-01   1.00800           0
     30944 MEMB     268      POPC     C33      CTL2    -0.180000       12.0110           0
     30945 MEMB     268      POPC     H3X      HAL2     0.900000E-01   1.00800           0
     30946 MEMB     268      POPC     H3Y      HAL2     0.900000E-01   1.00800           0
     30947 MEMB     268      POPC     C34      CTL2    -0.180000       12.0110           0
     30948 MEMB     268      POPC     H4X      HAL2     0.900000E-01   1.00800           0
     30949 MEMB     268      POPC     H4Y      HAL2     0.900000E-01   1.00800           0
     30950 MEMB     268      POPC     C35      CTL2    -0.180000       12.0110           0
     30951 MEMB     268      POPC     H5X      HAL2     0.900000E-01   1.00800           0
     30952 MEMB     268      POPC     H5Y      HAL2     0.900000E-01   1.00800           0
     30953 MEMB     268      POPC     C36      CTL2    -0.180000       12.0110           0
     30954 MEMB     268      POPC     H6X      HAL2     0.900000E-01   1.00800           0
     30955 MEMB     268      POPC     H6Y      HAL2     0.900000E-01   1.00800           0
     30956 MEMB     268      POPC     C37      CTL2    -0.180000       12.0110           0
     30957 MEMB     268      POPC     H7X      HAL2     0.900000E-01   1.00800           0
     30958 MEMB     268      POPC     H7Y      HAL2     0.900000E-01   1.00800           0
     30959 MEMB     268      POPC     C38      CTL2    -0.180000       12.0110           0
     30960 MEMB     268      POPC     H8X      HAL2     0.900000E-01   1.00800           0
     30961 MEMB     268      POPC     H8Y      HAL2     0.900000E-01   1.00800           0
     30962 MEMB     268      POPC     C39      CTL2    -0.180000       12.0110           0
     30963 MEMB     268      POPC     H9X      HAL2     0.900000E-01   1.00800           0
     30964 MEMB     268      POPC     H9Y      HAL2     0.900000E-01   1.00800           0
     30965 MEMB     268      POPC     C310     CTL2    -0.180000       12.0110           0
     30966 MEMB     268      POPC     H10X     HAL2     0.900000E-01   1.00800           0
     30967 MEMB     268      POPC     H10Y     HAL2     0.900000E-01   1.00800           0
     30968 MEMB     268      POPC     C311     CTL2    -0.180000       12.0110           0
     30969 MEMB     268      POPC     H11X     HAL2     0.900000E-01   1.00800           0
     30970 MEMB     268      POPC     H11Y     HAL2     0.900000E-01   1.00800           0
     30971 MEMB     268      POPC     C312     CTL2    -0.180000       12.0110           0
     30972 MEMB     268      POPC     H12X     HAL2     0.900000E-01   1.00800           0
     30973 MEMB     268      POPC     H12Y     HAL2     0.900000E-01   1.00800           0
     30974 MEMB     268      POPC     C313     CTL2    -0.180000       12.0110           0
     30975 MEMB     268      POPC     H13X     HAL2     0.900000E-01   1.00800           0
     30976 MEMB     268      POPC     H13Y     HAL2     0.900000E-01   1.00800           0
     30977 MEMB     268      POPC     C314     CTL2    -0.180000       12.0110           0
     30978 MEMB     268      POPC     H14X     HAL2     0.900000E-01   1.00800           0
     30979 MEMB     268      POPC     H14Y     HAL2     0.900000E-01   1.00800           0
     30980 MEMB     268      POPC     C315     CTL2    -0.180000       12.0110           0
     30981 MEMB     268      POPC     H15X     HAL2     0.900000E-01   1.00800           0
     30982 MEMB     268      POPC     H15Y     HAL2     0.900000E-01   1.00800           0
     30983 MEMB     268      POPC     C316     CTL3    -0.270000       12.0110           0
     30984 MEMB     268      POPC     H16X     HAL3     0.900000E-01   1.00800           0
     30985 MEMB     268      POPC     H16Y     HAL3     0.900000E-01   1.00800           0
     30986 MEMB     268      POPC     H16Z     HAL3     0.900000E-01   1.00800           0
     30987 MEMB     269      POPE     N        NH3L    -0.300000       14.0070           0
     30988 MEMB     269      POPE     HN1      HCL      0.330000       1.00800           0
     30989 MEMB     269      POPE     HN2      HCL      0.330000       1.00800           0
     30990 MEMB     269      POPE     HN3      HCL      0.330000       1.00800           0
     30991 MEMB     269      POPE     C12      CTL2     0.130000       12.0110           0
     30992 MEMB     269      POPE     H12A     HAL2     0.900000E-01   1.00800           0
     30993 MEMB     269      POPE     H12B     HAL2     0.900000E-01   1.00800           0
     30994 MEMB     269      POPE     C11      CTL2    -0.800000E-01   12.0110           0
     30995 MEMB     269      POPE     H11A     HAL2     0.900000E-01   1.00800           0
     30996 MEMB     269      POPE     H11B     HAL2     0.900000E-01   1.00800           0
     30997 MEMB     269      POPE     P        PL        1.50000       30.9740           0
     30998 MEMB     269      POPE     O13      O2L     -0.780000       15.9994           0
     30999 MEMB     269      POPE     O14      O2L     -0.780000       15.9994           0
     31000 MEMB     269      POPE     O11      OSLP    -0.570000       15.9994           0
     31001 MEMB     269      POPE     O12      OSLP    -0.570000       15.9994           0
     31002 MEMB     269      POPE     C1       CTL2    -0.800000E-01   12.0110           0
     31003 MEMB     269      POPE     HA       HAL2     0.900000E-01   1.00800           0
     31004 MEMB     269      POPE     HB       HAL2     0.900000E-01   1.00800           0
     31005 MEMB     269      POPE     C2       CTL1     0.170000       12.0110           0
     31006 MEMB     269      POPE     HS       HAL1     0.900000E-01   1.00800           0
     31007 MEMB     269      POPE     O21      OSL     -0.490000       15.9994           0
     31008 MEMB     269      POPE     C21      CL       0.900000       12.0110           0
     31009 MEMB     269      POPE     O22      OBL     -0.630000       15.9994           0
     31010 MEMB     269      POPE     C22      CTL2    -0.220000       12.0110           0
     31011 MEMB     269      POPE     H2R      HAL2     0.900000E-01   1.00800           0
     31012 MEMB     269      POPE     H2S      HAL2     0.900000E-01   1.00800           0
     31013 MEMB     269      POPE     C3       CTL2     0.800000E-01   12.0110           0
     31014 MEMB     269      POPE     HX       HAL2     0.900000E-01   1.00800           0
     31015 MEMB     269      POPE     HY       HAL2     0.900000E-01   1.00800           0
     31016 MEMB     269      POPE     O31      OSL     -0.490000       15.9994           0
     31017 MEMB     269      POPE     C31      CL       0.900000       12.0110           0
     31018 MEMB     269      POPE     O32      OBL     -0.630000       15.9994           0
     31019 MEMB     269      POPE     C32      CTL2    -0.220000       12.0110           0
     31020 MEMB     269      POPE     H2X      HAL2     0.900000E-01   1.00800           0
     31021 MEMB     269      POPE     H2Y      HAL2     0.900000E-01   1.00800           0
     31022 MEMB     269      POPE     C23      CTL2    -0.180000       12.0110           0
     31023 MEMB     269      POPE     H3R      HAL2     0.900000E-01   1.00800           0
     31024 MEMB     269      POPE     H3S      HAL2     0.900000E-01   1.00800           0
     31025 MEMB     269      POPE     C24      CTL2    -0.180000       12.0110           0
     31026 MEMB     269      POPE     H4R      HAL2     0.900000E-01   1.00800           0
     31027 MEMB     269      POPE     H4S      HAL2     0.900000E-01   1.00800           0
     31028 MEMB     269      POPE     C25      CTL2    -0.180000       12.0110           0
     31029 MEMB     269      POPE     H5R      HAL2     0.900000E-01   1.00800           0
     31030 MEMB     269      POPE     H5S      HAL2     0.900000E-01   1.00800           0
     31031 MEMB     269      POPE     C26      CTL2    -0.180000       12.0110           0
     31032 MEMB     269      POPE     H6R      HAL2     0.900000E-01   1.00800           0
     31033 MEMB     269      POPE     H6S      HAL2     0.900000E-01   1.00800           0
     31034 MEMB     269      POPE     C27      CTL2    -0.180000       12.0110           0
     31035 MEMB     269      POPE     H7R      HAL2     0.900000E-01   1.00800           0
     31036 MEMB     269      POPE     H7S      HAL2     0.900000E-01   1.00800           0
     31037 MEMB     269      POPE     C28      CTL2    -0.180000       12.0110           0
     31038 MEMB     269      POPE     H8R      HAL2     0.900000E-01   1.00800           0
     31039 MEMB     269      POPE     H8S      HAL2     0.900000E-01   1.00800           0
     31040 MEMB     269      POPE     C29      CEL1    -0.150000       12.0110           0
     31041 MEMB     269      POPE     H91      HEL1     0.150000       1.00800           0
     31042 MEMB     269      POPE     C210     CEL1    -0.150000       12.0110           0
     31043 MEMB     269      POPE     H101     HEL1     0.150000       1.00800           0
     31044 MEMB     269      POPE     C211     CTL2    -0.180000       12.0110           0
     31045 MEMB     269      POPE     H11R     HAL2     0.900000E-01   1.00800           0
     31046 MEMB     269      POPE     H11S     HAL2     0.900000E-01   1.00800           0
     31047 MEMB     269      POPE     C212     CTL2    -0.180000       12.0110           0
     31048 MEMB     269      POPE     H12R     HAL2     0.900000E-01   1.00800           0
     31049 MEMB     269      POPE     H12S     HAL2     0.900000E-01   1.00800           0
     31050 MEMB     269      POPE     C213     CTL2    -0.180000       12.0110           0
     31051 MEMB     269      POPE     H13R     HAL2     0.900000E-01   1.00800           0
     31052 MEMB     269      POPE     H13S     HAL2     0.900000E-01   1.00800           0
     31053 MEMB     269      POPE     C214     CTL2    -0.180000       12.0110           0
     31054 MEMB     269      POPE     H14R     HAL2     0.900000E-01   1.00800           0
     31055 MEMB     269      POPE     H14S     HAL2     0.900000E-01   1.00800           0
     31056 MEMB     269      POPE     C215     CTL2    -0.180000       12.0110           0
     31057 MEMB     269      POPE     H15R     HAL2     0.900000E-01   1.00800           0
     31058 MEMB     269      POPE     H15S     HAL2     0.900000E-01   1.00800           0
     31059 MEMB     269      POPE     C216     CTL2    -0.180000       12.0110           0
     31060 MEMB     269      POPE     H16R     HAL2     0.900000E-01   1.00800           0
     31061 MEMB     269      POPE     H16S     HAL2     0.900000E-01   1.00800           0
     31062 MEMB     269      POPE     C217     CTL2    -0.180000       12.0110           0
     31063 MEMB     269      POPE     H17R     HAL2     0.900000E-01   1.00800           0
     31064 MEMB     269      POPE     H17S     HAL2     0.900000E-01   1.00800           0
     31065 MEMB     269      POPE     C218     CTL3    -0.270000       12.0110           0
     31066 MEMB     269      POPE     H18R     HAL3     0.900000E-01   1.00800           0
     31067 MEMB     269      POPE     H18S     HAL3     0.900000E-01   1.00800           0
     31068 MEMB     269      POPE     H18T     HAL3     0.900000E-01   1.00800           0
     31069 MEMB     269      POPE     C33      CTL2    -0.180000       12.0110           0
     31070 MEMB     269      POPE     H3X      HAL2     0.900000E-01   1.00800           0
     31071 MEMB     269      POPE     H3Y      HAL2     0.900000E-01   1.00800           0
     31072 MEMB     269      POPE     C34      CTL2    -0.180000       12.0110           0
     31073 MEMB     269      POPE     H4X      HAL2     0.900000E-01   1.00800           0
     31074 MEMB     269      POPE     H4Y      HAL2     0.900000E-01   1.00800           0
     31075 MEMB     269      POPE     C35      CTL2    -0.180000       12.0110           0
     31076 MEMB     269      POPE     H5X      HAL2     0.900000E-01   1.00800           0
     31077 MEMB     269      POPE     H5Y      HAL2     0.900000E-01   1.00800           0
     31078 MEMB     269      POPE     C36      CTL2    -0.180000       12.0110           0
     31079 MEMB     269      POPE     H6X      HAL2     0.900000E-01   1.00800           0
     31080 MEMB     269      POPE     H6Y      HAL2     0.900000E-01   1.00800           0
     31081 MEMB     269      POPE     C37      CTL2    -0.180000       12.0110           0
     31082 MEMB     269      POPE     H7X      HAL2     0.900000E-01   1.00800           0
     31083 MEMB     269      POPE     H7Y      HAL2     0.900000E-01   1.00800           0
     31084 MEMB     269      POPE     C38      CTL2    -0.180000       12.0110           0
     31085 MEMB     269      POPE     H8X      HAL2     0.900000E-01   1.00800           0
     31086 MEMB     269      POPE     H8Y      HAL2     0.900000E-01   1.00800           0
     31087 MEMB     269      POPE     C39      CTL2    -0.180000       12.0110           0
     31088 MEMB     269      POPE     H9X      HAL2     0.900000E-01   1.00800           0
     31089 MEMB     269      POPE     H9Y      HAL2     0.900000E-01   1.00800           0
     31090 MEMB     269      POPE     C310     CTL2    -0.180000       12.0110           0
     31091 MEMB     269      POPE     H10X     HAL2     0.900000E-01   1.00800           0
     31092 MEMB     269      POPE     H10Y     HAL2     0.900000E-01   1.00800           0
     31093 MEMB     269      POPE     C311     CTL2    -0.180000       12.0110           0
     31094 MEMB     269      POPE     H11X     HAL2     0.900000E-01   1.00800           0
     31095 MEMB     269      POPE     H11Y     HAL2     0.900000E-01   1.00800           0
     31096 MEMB     269      POPE     C312     CTL2    -0.180000       12.0110           0
     31097 MEMB     269      POPE     H12X     HAL2     0.900000E-01   1.00800           0
     31098 MEMB     269      POPE     H12Y     HAL2     0.900000E-01   1.00800           0
     31099 MEMB     269      POPE     C313     CTL2    -0.180000       12.0110           0
     31100 MEMB     269      POPE     H13X     HAL2     0.900000E-01   1.00800           0
     31101 MEMB     269      POPE     H13Y     HAL2     0.900000E-01   1.00800           0
     31102 MEMB     269      POPE     C314     CTL2    -0.180000       12.0110           0
     31103 MEMB     269      POPE     H14X     HAL2     0.900000E-01   1.00800           0
     31104 MEMB     269      POPE     H14Y     HAL2     0.900000E-01   1.00800           0
     31105 MEMB     269      POPE     C315     CTL2    -0.180000       12.0110           0
     31106 MEMB     269      POPE     H15X     HAL2     0.900000E-01   1.00800           0
     31107 MEMB     269      POPE     H15Y     HAL2     0.900000E-01   1.00800           0
     31108 MEMB     269      POPE     C316     CTL3    -0.270000       12.0110           0
     31109 MEMB     269      POPE     H16X     HAL3     0.900000E-01   1.00800           0
     31110 MEMB     269      POPE     H16Y     HAL3     0.900000E-01   1.00800           0
     31111 MEMB     269      POPE     H16Z     HAL3     0.900000E-01   1.00800           0
     31112 MEMB     270      POPE     N        NH3L    -0.300000       14.0070           0
     31113 MEMB     270      POPE     HN1      HCL      0.330000       1.00800           0
     31114 MEMB     270      POPE     HN2      HCL      0.330000       1.00800           0
     31115 MEMB     270      POPE     HN3      HCL      0.330000       1.00800           0
     31116 MEMB     270      POPE     C12      CTL2     0.130000       12.0110           0
     31117 MEMB     270      POPE     H12A     HAL2     0.900000E-01   1.00800           0
     31118 MEMB     270      POPE     H12B     HAL2     0.900000E-01   1.00800           0
     31119 MEMB     270      POPE     C11      CTL2    -0.800000E-01   12.0110           0
     31120 MEMB     270      POPE     H11A     HAL2     0.900000E-01   1.00800           0
     31121 MEMB     270      POPE     H11B     HAL2     0.900000E-01   1.00800           0
     31122 MEMB     270      POPE     P        PL        1.50000       30.9740           0
     31123 MEMB     270      POPE     O13      O2L     -0.780000       15.9994           0
     31124 MEMB     270      POPE     O14      O2L     -0.780000       15.9994           0
     31125 MEMB     270      POPE     O11      OSLP    -0.570000       15.9994           0
     31126 MEMB     270      POPE     O12      OSLP    -0.570000       15.9994           0
     31127 MEMB     270      POPE     C1       CTL2    -0.800000E-01   12.0110           0
     31128 MEMB     270      POPE     HA       HAL2     0.900000E-01   1.00800           0
     31129 MEMB     270      POPE     HB       HAL2     0.900000E-01   1.00800           0
     31130 MEMB     270      POPE     C2       CTL1     0.170000       12.0110           0
     31131 MEMB     270      POPE     HS       HAL1     0.900000E-01   1.00800           0
     31132 MEMB     270      POPE     O21      OSL     -0.490000       15.9994           0
     31133 MEMB     270      POPE     C21      CL       0.900000       12.0110           0
     31134 MEMB     270      POPE     O22      OBL     -0.630000       15.9994           0
     31135 MEMB     270      POPE     C22      CTL2    -0.220000       12.0110           0
     31136 MEMB     270      POPE     H2R      HAL2     0.900000E-01   1.00800           0
     31137 MEMB     270      POPE     H2S      HAL2     0.900000E-01   1.00800           0
     31138 MEMB     270      POPE     C3       CTL2     0.800000E-01   12.0110           0
     31139 MEMB     270      POPE     HX       HAL2     0.900000E-01   1.00800           0
     31140 MEMB     270      POPE     HY       HAL2     0.900000E-01   1.00800           0
     31141 MEMB     270      POPE     O31      OSL     -0.490000       15.9994           0
     31142 MEMB     270      POPE     C31      CL       0.900000       12.0110           0
     31143 MEMB     270      POPE     O32      OBL     -0.630000       15.9994           0
     31144 MEMB     270      POPE     C32      CTL2    -0.220000       12.0110           0
     31145 MEMB     270      POPE     H2X      HAL2     0.900000E-01   1.00800           0
     31146 MEMB     270      POPE     H2Y      HAL2     0.900000E-01   1.00800           0
     31147 MEMB     270      POPE     C23      CTL2    -0.180000       12.0110           0
     31148 MEMB     270      POPE     H3R      HAL2     0.900000E-01   1.00800           0
     31149 MEMB     270      POPE     H3S      HAL2     0.900000E-01   1.00800           0
     31150 MEMB     270      POPE     C24      CTL2    -0.180000       12.0110           0
     31151 MEMB     270      POPE     H4R      HAL2     0.900000E-01   1.00800           0
     31152 MEMB     270      POPE     H4S      HAL2     0.900000E-01   1.00800           0
     31153 MEMB     270      POPE     C25      CTL2    -0.180000       12.0110           0
     31154 MEMB     270      POPE     H5R      HAL2     0.900000E-01   1.00800           0
     31155 MEMB     270      POPE     H5S      HAL2     0.900000E-01   1.00800           0
     31156 MEMB     270      POPE     C26      CTL2    -0.180000       12.0110           0
     31157 MEMB     270      POPE     H6R      HAL2     0.900000E-01   1.00800           0
     31158 MEMB     270      POPE     H6S      HAL2     0.900000E-01   1.00800           0
     31159 MEMB     270      POPE     C27      CTL2    -0.180000       12.0110           0
     31160 MEMB     270      POPE     H7R      HAL2     0.900000E-01   1.00800           0
     31161 MEMB     270      POPE     H7S      HAL2     0.900000E-01   1.00800           0
     31162 MEMB     270      POPE     C28      CTL2    -0.180000       12.0110           0
     31163 MEMB     270      POPE     H8R      HAL2     0.900000E-01   1.00800           0
     31164 MEMB     270      POPE     H8S      HAL2     0.900000E-01   1.00800           0
     31165 MEMB     270      POPE     C29      CEL1    -0.150000       12.0110           0
     31166 MEMB     270      POPE     H91      HEL1     0.150000       1.00800           0
     31167 MEMB     270      POPE     C210     CEL1    -0.150000       12.0110           0
     31168 MEMB     270      POPE     H101     HEL1     0.150000       1.00800           0
     31169 MEMB     270      POPE     C211     CTL2    -0.180000       12.0110           0
     31170 MEMB     270      POPE     H11R     HAL2     0.900000E-01   1.00800           0
     31171 MEMB     270      POPE     H11S     HAL2     0.900000E-01   1.00800           0
     31172 MEMB     270      POPE     C212     CTL2    -0.180000       12.0110           0
     31173 MEMB     270      POPE     H12R     HAL2     0.900000E-01   1.00800           0
     31174 MEMB     270      POPE     H12S     HAL2     0.900000E-01   1.00800           0
     31175 MEMB     270      POPE     C213     CTL2    -0.180000       12.0110           0
     31176 MEMB     270      POPE     H13R     HAL2     0.900000E-01   1.00800           0
     31177 MEMB     270      POPE     H13S     HAL2     0.900000E-01   1.00800           0
     31178 MEMB     270      POPE     C214     CTL2    -0.180000       12.0110           0
     31179 MEMB     270      POPE     H14R     HAL2     0.900000E-01   1.00800           0
     31180 MEMB     270      POPE     H14S     HAL2     0.900000E-01   1.00800           0
     31181 MEMB     270      POPE     C215     CTL2    -0.180000       12.0110           0
     31182 MEMB     270      POPE     H15R     HAL2     0.900000E-01   1.00800           0
     31183 MEMB     270      POPE     H15S     HAL2     0.900000E-01   1.00800           0
     31184 MEMB     270      POPE     C216     CTL2    -0.180000       12.0110           0
     31185 MEMB     270      POPE     H16R     HAL2     0.900000E-01   1.00800           0
     31186 MEMB     270      POPE     H16S     HAL2     0.900000E-01   1.00800           0
     31187 MEMB     270      POPE     C217     CTL2    -0.180000       12.0110           0
     31188 MEMB     270      POPE     H17R     HAL2     0.900000E-01   1.00800           0
     31189 MEMB     270      POPE     H17S     HAL2     0.900000E-01   1.00800           0
     31190 MEMB     270      POPE     C218     CTL3    -0.270000       12.0110           0
     31191 MEMB     270      POPE     H18R     HAL3     0.900000E-01   1.00800           0
     31192 MEMB     270      POPE     H18S     HAL3     0.900000E-01   1.00800           0
     31193 MEMB     270      POPE     H18T     HAL3     0.900000E-01   1.00800           0
     31194 MEMB     270      POPE     C33      CTL2    -0.180000       12.0110           0
     31195 MEMB     270      POPE     H3X      HAL2     0.900000E-01   1.00800           0
     31196 MEMB     270      POPE     H3Y      HAL2     0.900000E-01   1.00800           0
     31197 MEMB     270      POPE     C34      CTL2    -0.180000       12.0110           0
     31198 MEMB     270      POPE     H4X      HAL2     0.900000E-01   1.00800           0
     31199 MEMB     270      POPE     H4Y      HAL2     0.900000E-01   1.00800           0
     31200 MEMB     270      POPE     C35      CTL2    -0.180000       12.0110           0
     31201 MEMB     270      POPE     H5X      HAL2     0.900000E-01   1.00800           0
     31202 MEMB     270      POPE     H5Y      HAL2     0.900000E-01   1.00800           0
     31203 MEMB     270      POPE     C36      CTL2    -0.180000       12.0110           0
     31204 MEMB     270      POPE     H6X      HAL2     0.900000E-01   1.00800           0
     31205 MEMB     270      POPE     H6Y      HAL2     0.900000E-01   1.00800           0
     31206 MEMB     270      POPE     C37      CTL2    -0.180000       12.0110           0
     31207 MEMB     270      POPE     H7X      HAL2     0.900000E-01   1.00800           0
     31208 MEMB     270      POPE     H7Y      HAL2     0.900000E-01   1.00800           0
     31209 MEMB     270      POPE     C38      CTL2    -0.180000       12.0110           0
     31210 MEMB     270      POPE     H8X      HAL2     0.900000E-01   1.00800           0
     31211 MEMB     270      POPE     H8Y      HAL2     0.900000E-01   1.00800           0
     31212 MEMB     270      POPE     C39      CTL2    -0.180000       12.0110           0
     31213 MEMB     270      POPE     H9X      HAL2     0.900000E-01   1.00800           0
     31214 MEMB     270      POPE     H9Y      HAL2     0.900000E-01   1.00800           0
     31215 MEMB     270      POPE     C310     CTL2    -0.180000       12.0110           0
     31216 MEMB     270      POPE     H10X     HAL2     0.900000E-01   1.00800           0
     31217 MEMB     270      POPE     H10Y     HAL2     0.900000E-01   1.00800           0
     31218 MEMB     270      POPE     C311     CTL2    -0.180000       12.0110           0
     31219 MEMB     270      POPE     H11X     HAL2     0.900000E-01   1.00800           0
     31220 MEMB     270      POPE     H11Y     HAL2     0.900000E-01   1.00800           0
     31221 MEMB     270      POPE     C312     CTL2    -0.180000       12.0110           0
     31222 MEMB     270      POPE     H12X     HAL2     0.900000E-01   1.00800           0
     31223 MEMB     270      POPE     H12Y     HAL2     0.900000E-01   1.00800           0
     31224 MEMB     270      POPE     C313     CTL2    -0.180000       12.0110           0
     31225 MEMB     270      POPE     H13X     HAL2     0.900000E-01   1.00800           0
     31226 MEMB     270      POPE     H13Y     HAL2     0.900000E-01   1.00800           0
     31227 MEMB     270      POPE     C314     CTL2    -0.180000       12.0110           0
     31228 MEMB     270      POPE     H14X     HAL2     0.900000E-01   1.00800           0
     31229 MEMB     270      POPE     H14Y     HAL2     0.900000E-01   1.00800           0
     31230 MEMB     270      POPE     C315     CTL2    -0.180000       12.0110           0
     31231 MEMB     270      POPE     H15X     HAL2     0.900000E-01   1.00800           0
     31232 MEMB     270      POPE     H15Y     HAL2     0.900000E-01   1.00800           0
     31233 MEMB     270      POPE     C316     CTL3    -0.270000       12.0110           0
     31234 MEMB     270      POPE     H16X     HAL3     0.900000E-01   1.00800           0
     31235 MEMB     270      POPE     H16Y     HAL3     0.900000E-01   1.00800           0
     31236 MEMB     270      POPE     H16Z     HAL3     0.900000E-01   1.00800           0
     31237 MEMB     271      POPE     N        NH3L    -0.300000       14.0070           0
     31238 MEMB     271      POPE     HN1      HCL      0.330000       1.00800           0
     31239 MEMB     271      POPE     HN2      HCL      0.330000       1.00800           0
     31240 MEMB     271      POPE     HN3      HCL      0.330000       1.00800           0
     31241 MEMB     271      POPE     C12      CTL2     0.130000       12.0110           0
     31242 MEMB     271      POPE     H12A     HAL2     0.900000E-01   1.00800           0
     31243 MEMB     271      POPE     H12B     HAL2     0.900000E-01   1.00800           0
     31244 MEMB     271      POPE     C11      CTL2    -0.800000E-01   12.0110           0
     31245 MEMB     271      POPE     H11A     HAL2     0.900000E-01   1.00800           0
     31246 MEMB     271      POPE     H11B     HAL2     0.900000E-01   1.00800           0
     31247 MEMB     271      POPE     P        PL        1.50000       30.9740           0
     31248 MEMB     271      POPE     O13      O2L     -0.780000       15.9994           0
     31249 MEMB     271      POPE     O14      O2L     -0.780000       15.9994           0
     31250 MEMB     271      POPE     O11      OSLP    -0.570000       15.9994           0
     31251 MEMB     271      POPE     O12      OSLP    -0.570000       15.9994           0
     31252 MEMB     271      POPE     C1       CTL2    -0.800000E-01   12.0110           0
     31253 MEMB     271      POPE     HA       HAL2     0.900000E-01   1.00800           0
     31254 MEMB     271      POPE     HB       HAL2     0.900000E-01   1.00800           0
     31255 MEMB     271      POPE     C2       CTL1     0.170000       12.0110           0
     31256 MEMB     271      POPE     HS       HAL1     0.900000E-01   1.00800           0
     31257 MEMB     271      POPE     O21      OSL     -0.490000       15.9994           0
     31258 MEMB     271      POPE     C21      CL       0.900000       12.0110           0
     31259 MEMB     271      POPE     O22      OBL     -0.630000       15.9994           0
     31260 MEMB     271      POPE     C22      CTL2    -0.220000       12.0110           0
     31261 MEMB     271      POPE     H2R      HAL2     0.900000E-01   1.00800           0
     31262 MEMB     271      POPE     H2S      HAL2     0.900000E-01   1.00800           0
     31263 MEMB     271      POPE     C3       CTL2     0.800000E-01   12.0110           0
     31264 MEMB     271      POPE     HX       HAL2     0.900000E-01   1.00800           0
     31265 MEMB     271      POPE     HY       HAL2     0.900000E-01   1.00800           0
     31266 MEMB     271      POPE     O31      OSL     -0.490000       15.9994           0
     31267 MEMB     271      POPE     C31      CL       0.900000       12.0110           0
     31268 MEMB     271      POPE     O32      OBL     -0.630000       15.9994           0
     31269 MEMB     271      POPE     C32      CTL2    -0.220000       12.0110           0
     31270 MEMB     271      POPE     H2X      HAL2     0.900000E-01   1.00800           0
     31271 MEMB     271      POPE     H2Y      HAL2     0.900000E-01   1.00800           0
     31272 MEMB     271      POPE     C23      CTL2    -0.180000       12.0110           0
     31273 MEMB     271      POPE     H3R      HAL2     0.900000E-01   1.00800           0
     31274 MEMB     271      POPE     H3S      HAL2     0.900000E-01   1.00800           0
     31275 MEMB     271      POPE     C24      CTL2    -0.180000       12.0110           0
     31276 MEMB     271      POPE     H4R      HAL2     0.900000E-01   1.00800           0
     31277 MEMB     271      POPE     H4S      HAL2     0.900000E-01   1.00800           0
     31278 MEMB     271      POPE     C25      CTL2    -0.180000       12.0110           0
     31279 MEMB     271      POPE     H5R      HAL2     0.900000E-01   1.00800           0
     31280 MEMB     271      POPE     H5S      HAL2     0.900000E-01   1.00800           0
     31281 MEMB     271      POPE     C26      CTL2    -0.180000       12.0110           0
     31282 MEMB     271      POPE     H6R      HAL2     0.900000E-01   1.00800           0
     31283 MEMB     271      POPE     H6S      HAL2     0.900000E-01   1.00800           0
     31284 MEMB     271      POPE     C27      CTL2    -0.180000       12.0110           0
     31285 MEMB     271      POPE     H7R      HAL2     0.900000E-01   1.00800           0
     31286 MEMB     271      POPE     H7S      HAL2     0.900000E-01   1.00800           0
     31287 MEMB     271      POPE     C28      CTL2    -0.180000       12.0110           0
     31288 MEMB     271      POPE     H8R      HAL2     0.900000E-01   1.00800           0
     31289 MEMB     271      POPE     H8S      HAL2     0.900000E-01   1.00800           0
     31290 MEMB     271      POPE     C29      CEL1    -0.150000       12.0110           0
     31291 MEMB     271      POPE     H91      HEL1     0.150000       1.00800           0
     31292 MEMB     271      POPE     C210     CEL1    -0.150000       12.0110           0
     31293 MEMB     271      POPE     H101     HEL1     0.150000       1.00800           0
     31294 MEMB     271      POPE     C211     CTL2    -0.180000       12.0110           0
     31295 MEMB     271      POPE     H11R     HAL2     0.900000E-01   1.00800           0
     31296 MEMB     271      POPE     H11S     HAL2     0.900000E-01   1.00800           0
     31297 MEMB     271      POPE     C212     CTL2    -0.180000       12.0110           0
     31298 MEMB     271      POPE     H12R     HAL2     0.900000E-01   1.00800           0
     31299 MEMB     271      POPE     H12S     HAL2     0.900000E-01   1.00800           0
     31300 MEMB     271      POPE     C213     CTL2    -0.180000       12.0110           0
     31301 MEMB     271      POPE     H13R     HAL2     0.900000E-01   1.00800           0
     31302 MEMB     271      POPE     H13S     HAL2     0.900000E-01   1.00800           0
     31303 MEMB     271      POPE     C214     CTL2    -0.180000       12.0110           0
     31304 MEMB     271      POPE     H14R     HAL2     0.900000E-01   1.00800           0
     31305 MEMB     271      POPE     H14S     HAL2     0.900000E-01   1.00800           0
     31306 MEMB     271      POPE     C215     CTL2    -0.180000       12.0110           0
     31307 MEMB     271      POPE     H15R     HAL2     0.900000E-01   1.00800           0
     31308 MEMB     271      POPE     H15S     HAL2     0.900000E-01   1.00800           0
     31309 MEMB     271      POPE     C216     CTL2    -0.180000       12.0110           0
     31310 MEMB     271      POPE     H16R     HAL2     0.900000E-01   1.00800           0
     31311 MEMB     271      POPE     H16S     HAL2     0.900000E-01   1.00800           0
     31312 MEMB     271      POPE     C217     CTL2    -0.180000       12.0110           0
     31313 MEMB     271      POPE     H17R     HAL2     0.900000E-01   1.00800           0
     31314 MEMB     271      POPE     H17S     HAL2     0.900000E-01   1.00800           0
     31315 MEMB     271      POPE     C218     CTL3    -0.270000       12.0110           0
     31316 MEMB     271      POPE     H18R     HAL3     0.900000E-01   1.00800           0
     31317 MEMB     271      POPE     H18S     HAL3     0.900000E-01   1.00800           0
     31318 MEMB     271      POPE     H18T     HAL3     0.900000E-01   1.00800           0
     31319 MEMB     271      POPE     C33      CTL2    -0.180000       12.0110           0
     31320 MEMB     271      POPE     H3X      HAL2     0.900000E-01   1.00800           0
     31321 MEMB     271      POPE     H3Y      HAL2     0.900000E-01   1.00800           0
     31322 MEMB     271      POPE     C34      CTL2    -0.180000       12.0110           0
     31323 MEMB     271      POPE     H4X      HAL2     0.900000E-01   1.00800           0
     31324 MEMB     271      POPE     H4Y      HAL2     0.900000E-01   1.00800           0
     31325 MEMB     271      POPE     C35      CTL2    -0.180000       12.0110           0
     31326 MEMB     271      POPE     H5X      HAL2     0.900000E-01   1.00800           0
     31327 MEMB     271      POPE     H5Y      HAL2     0.900000E-01   1.00800           0
     31328 MEMB     271      POPE     C36      CTL2    -0.180000       12.0110           0
     31329 MEMB     271      POPE     H6X      HAL2     0.900000E-01   1.00800           0
     31330 MEMB     271      POPE     H6Y      HAL2     0.900000E-01   1.00800           0
     31331 MEMB     271      POPE     C37      CTL2    -0.180000       12.0110           0
     31332 MEMB     271      POPE     H7X      HAL2     0.900000E-01   1.00800           0
     31333 MEMB     271      POPE     H7Y      HAL2     0.900000E-01   1.00800           0
     31334 MEMB     271      POPE     C38      CTL2    -0.180000       12.0110           0
     31335 MEMB     271      POPE     H8X      HAL2     0.900000E-01   1.00800           0
     31336 MEMB     271      POPE     H8Y      HAL2     0.900000E-01   1.00800           0
     31337 MEMB     271      POPE     C39      CTL2    -0.180000       12.0110           0
     31338 MEMB     271      POPE     H9X      HAL2     0.900000E-01   1.00800           0
     31339 MEMB     271      POPE     H9Y      HAL2     0.900000E-01   1.00800           0
     31340 MEMB     271      POPE     C310     CTL2    -0.180000       12.0110           0
     31341 MEMB     271      POPE     H10X     HAL2     0.900000E-01   1.00800           0
     31342 MEMB     271      POPE     H10Y     HAL2     0.900000E-01   1.00800           0
     31343 MEMB     271      POPE     C311     CTL2    -0.180000       12.0110           0
     31344 MEMB     271      POPE     H11X     HAL2     0.900000E-01   1.00800           0
     31345 MEMB     271      POPE     H11Y     HAL2     0.900000E-01   1.00800           0
     31346 MEMB     271      POPE     C312     CTL2    -0.180000       12.0110           0
     31347 MEMB     271      POPE     H12X     HAL2     0.900000E-01   1.00800           0
     31348 MEMB     271      POPE     H12Y     HAL2     0.900000E-01   1.00800           0
     31349 MEMB     271      POPE     C313     CTL2    -0.180000       12.0110           0
     31350 MEMB     271      POPE     H13X     HAL2     0.900000E-01   1.00800           0
     31351 MEMB     271      POPE     H13Y     HAL2     0.900000E-01   1.00800           0
     31352 MEMB     271      POPE     C314     CTL2    -0.180000       12.0110           0
     31353 MEMB     271      POPE     H14X     HAL2     0.900000E-01   1.00800           0
     31354 MEMB     271      POPE     H14Y     HAL2     0.900000E-01   1.00800           0
     31355 MEMB     271      POPE     C315     CTL2    -0.180000       12.0110           0
     31356 MEMB     271      POPE     H15X     HAL2     0.900000E-01   1.00800           0
     31357 MEMB     271      POPE     H15Y     HAL2     0.900000E-01   1.00800           0
     31358 MEMB     271      POPE     C316     CTL3    -0.270000       12.0110           0
     31359 MEMB     271      POPE     H16X     HAL3     0.900000E-01   1.00800           0
     31360 MEMB     271      POPE     H16Y     HAL3     0.900000E-01   1.00800           0
     31361 MEMB     271      POPE     H16Z     HAL3     0.900000E-01   1.00800           0
     31362 MEMB     272      POPC     N        NTL     -0.600000       14.0070           0
     31363 MEMB     272      POPC     C12      CTL2    -0.100000       12.0110           0
     31364 MEMB     272      POPC     H12A     HL       0.250000       1.00800           0
     31365 MEMB     272      POPC     H12B     HL       0.250000       1.00800           0
     31366 MEMB     272      POPC     C13      CTL5    -0.350000       12.0110           0
     31367 MEMB     272      POPC     H13A     HL       0.250000       1.00800           0
     31368 MEMB     272      POPC     H13B     HL       0.250000       1.00800           0
     31369 MEMB     272      POPC     H13C     HL       0.250000       1.00800           0
     31370 MEMB     272      POPC     C14      CTL5    -0.350000       12.0110           0
     31371 MEMB     272      POPC     H14A     HL       0.250000       1.00800           0
     31372 MEMB     272      POPC     H14B     HL       0.250000       1.00800           0
     31373 MEMB     272      POPC     H14C     HL       0.250000       1.00800           0
     31374 MEMB     272      POPC     C15      CTL5    -0.350000       12.0110           0
     31375 MEMB     272      POPC     H15A     HL       0.250000       1.00800           0
     31376 MEMB     272      POPC     H15B     HL       0.250000       1.00800           0
     31377 MEMB     272      POPC     H15C     HL       0.250000       1.00800           0
     31378 MEMB     272      POPC     C11      CTL2    -0.800000E-01   12.0110           0
     31379 MEMB     272      POPC     H11A     HAL2     0.900000E-01   1.00800           0
     31380 MEMB     272      POPC     H11B     HAL2     0.900000E-01   1.00800           0
     31381 MEMB     272      POPC     P        PL        1.50000       30.9740           0
     31382 MEMB     272      POPC     O13      O2L     -0.780000       15.9994           0
     31383 MEMB     272      POPC     O14      O2L     -0.780000       15.9994           0
     31384 MEMB     272      POPC     O12      OSLP    -0.570000       15.9994           0
     31385 MEMB     272      POPC     O11      OSLP    -0.570000       15.9994           0
     31386 MEMB     272      POPC     C1       CTL2    -0.800000E-01   12.0110           0
     31387 MEMB     272      POPC     HA       HAL2     0.900000E-01   1.00800           0
     31388 MEMB     272      POPC     HB       HAL2     0.900000E-01   1.00800           0
     31389 MEMB     272      POPC     C2       CTL1     0.170000       12.0110           0
     31390 MEMB     272      POPC     HS       HAL1     0.900000E-01   1.00800           0
     31391 MEMB     272      POPC     O21      OSL     -0.490000       15.9994           0
     31392 MEMB     272      POPC     C21      CL       0.900000       12.0110           0
     31393 MEMB     272      POPC     O22      OBL     -0.630000       15.9994           0
     31394 MEMB     272      POPC     C22      CTL2    -0.220000       12.0110           0
     31395 MEMB     272      POPC     H2R      HAL2     0.900000E-01   1.00800           0
     31396 MEMB     272      POPC     H2S      HAL2     0.900000E-01   1.00800           0
     31397 MEMB     272      POPC     C3       CTL2     0.800000E-01   12.0110           0
     31398 MEMB     272      POPC     HX       HAL2     0.900000E-01   1.00800           0
     31399 MEMB     272      POPC     HY       HAL2     0.900000E-01   1.00800           0
     31400 MEMB     272      POPC     O31      OSL     -0.490000       15.9994           0
     31401 MEMB     272      POPC     C31      CL       0.900000       12.0110           0
     31402 MEMB     272      POPC     O32      OBL     -0.630000       15.9994           0
     31403 MEMB     272      POPC     C32      CTL2    -0.220000       12.0110           0
     31404 MEMB     272      POPC     H2X      HAL2     0.900000E-01   1.00800           0
     31405 MEMB     272      POPC     H2Y      HAL2     0.900000E-01   1.00800           0
     31406 MEMB     272      POPC     C23      CTL2    -0.180000       12.0110           0
     31407 MEMB     272      POPC     H3R      HAL2     0.900000E-01   1.00800           0
     31408 MEMB     272      POPC     H3S      HAL2     0.900000E-01   1.00800           0
     31409 MEMB     272      POPC     C24      CTL2    -0.180000       12.0110           0
     31410 MEMB     272      POPC     H4R      HAL2     0.900000E-01   1.00800           0
     31411 MEMB     272      POPC     H4S      HAL2     0.900000E-01   1.00800           0
     31412 MEMB     272      POPC     C25      CTL2    -0.180000       12.0110           0
     31413 MEMB     272      POPC     H5R      HAL2     0.900000E-01   1.00800           0
     31414 MEMB     272      POPC     H5S      HAL2     0.900000E-01   1.00800           0
     31415 MEMB     272      POPC     C26      CTL2    -0.180000       12.0110           0
     31416 MEMB     272      POPC     H6R      HAL2     0.900000E-01   1.00800           0
     31417 MEMB     272      POPC     H6S      HAL2     0.900000E-01   1.00800           0
     31418 MEMB     272      POPC     C27      CTL2    -0.180000       12.0110           0
     31419 MEMB     272      POPC     H7R      HAL2     0.900000E-01   1.00800           0
     31420 MEMB     272      POPC     H7S      HAL2     0.900000E-01   1.00800           0
     31421 MEMB     272      POPC     C28      CTL2    -0.180000       12.0110           0
     31422 MEMB     272      POPC     H8R      HAL2     0.900000E-01   1.00800           0
     31423 MEMB     272      POPC     H8S      HAL2     0.900000E-01   1.00800           0
     31424 MEMB     272      POPC     C29      CEL1    -0.150000       12.0110           0
     31425 MEMB     272      POPC     H91      HEL1     0.150000       1.00800           0
     31426 MEMB     272      POPC     C210     CEL1    -0.150000       12.0110           0
     31427 MEMB     272      POPC     H101     HEL1     0.150000       1.00800           0
     31428 MEMB     272      POPC     C211     CTL2    -0.180000       12.0110           0
     31429 MEMB     272      POPC     H11R     HAL2     0.900000E-01   1.00800           0
     31430 MEMB     272      POPC     H11S     HAL2     0.900000E-01   1.00800           0
     31431 MEMB     272      POPC     C212     CTL2    -0.180000       12.0110           0
     31432 MEMB     272      POPC     H12R     HAL2     0.900000E-01   1.00800           0
     31433 MEMB     272      POPC     H12S     HAL2     0.900000E-01   1.00800           0
     31434 MEMB     272      POPC     C213     CTL2    -0.180000       12.0110           0
     31435 MEMB     272      POPC     H13R     HAL2     0.900000E-01   1.00800           0
     31436 MEMB     272      POPC     H13S     HAL2     0.900000E-01   1.00800           0
     31437 MEMB     272      POPC     C214     CTL2    -0.180000       12.0110           0
     31438 MEMB     272      POPC     H14R     HAL2     0.900000E-01   1.00800           0
     31439 MEMB     272      POPC     H14S     HAL2     0.900000E-01   1.00800           0
     31440 MEMB     272      POPC     C215     CTL2    -0.180000       12.0110           0
     31441 MEMB     272      POPC     H15R     HAL2     0.900000E-01   1.00800           0
     31442 MEMB     272      POPC     H15S     HAL2     0.900000E-01   1.00800           0
     31443 MEMB     272      POPC     C216     CTL2    -0.180000       12.0110           0
     31444 MEMB     272      POPC     H16R     HAL2     0.900000E-01   1.00800           0
     31445 MEMB     272      POPC     H16S     HAL2     0.900000E-01   1.00800           0
     31446 MEMB     272      POPC     C217     CTL2    -0.180000       12.0110           0
     31447 MEMB     272      POPC     H17R     HAL2     0.900000E-01   1.00800           0
     31448 MEMB     272      POPC     H17S     HAL2     0.900000E-01   1.00800           0
     31449 MEMB     272      POPC     C218     CTL3    -0.270000       12.0110           0
     31450 MEMB     272      POPC     H18R     HAL3     0.900000E-01   1.00800           0
     31451 MEMB     272      POPC     H18S     HAL3     0.900000E-01   1.00800           0
     31452 MEMB     272      POPC     H18T     HAL3     0.900000E-01   1.00800           0
     31453 MEMB     272      POPC     C33      CTL2    -0.180000       12.0110           0
     31454 MEMB     272      POPC     H3X      HAL2     0.900000E-01   1.00800           0
     31455 MEMB     272      POPC     H3Y      HAL2     0.900000E-01   1.00800           0
     31456 MEMB     272      POPC     C34      CTL2    -0.180000       12.0110           0
     31457 MEMB     272      POPC     H4X      HAL2     0.900000E-01   1.00800           0
     31458 MEMB     272      POPC     H4Y      HAL2     0.900000E-01   1.00800           0
     31459 MEMB     272      POPC     C35      CTL2    -0.180000       12.0110           0
     31460 MEMB     272      POPC     H5X      HAL2     0.900000E-01   1.00800           0
     31461 MEMB     272      POPC     H5Y      HAL2     0.900000E-01   1.00800           0
     31462 MEMB     272      POPC     C36      CTL2    -0.180000       12.0110           0
     31463 MEMB     272      POPC     H6X      HAL2     0.900000E-01   1.00800           0
     31464 MEMB     272      POPC     H6Y      HAL2     0.900000E-01   1.00800           0
     31465 MEMB     272      POPC     C37      CTL2    -0.180000       12.0110           0
     31466 MEMB     272      POPC     H7X      HAL2     0.900000E-01   1.00800           0
     31467 MEMB     272      POPC     H7Y      HAL2     0.900000E-01   1.00800           0
     31468 MEMB     272      POPC     C38      CTL2    -0.180000       12.0110           0
     31469 MEMB     272      POPC     H8X      HAL2     0.900000E-01   1.00800           0
     31470 MEMB     272      POPC     H8Y      HAL2     0.900000E-01   1.00800           0
     31471 MEMB     272      POPC     C39      CTL2    -0.180000       12.0110           0
     31472 MEMB     272      POPC     H9X      HAL2     0.900000E-01   1.00800           0
     31473 MEMB     272      POPC     H9Y      HAL2     0.900000E-01   1.00800           0
     31474 MEMB     272      POPC     C310     CTL2    -0.180000       12.0110           0
     31475 MEMB     272      POPC     H10X     HAL2     0.900000E-01   1.00800           0
     31476 MEMB     272      POPC     H10Y     HAL2     0.900000E-01   1.00800           0
     31477 MEMB     272      POPC     C311     CTL2    -0.180000       12.0110           0
     31478 MEMB     272      POPC     H11X     HAL2     0.900000E-01   1.00800           0
     31479 MEMB     272      POPC     H11Y     HAL2     0.900000E-01   1.00800           0
     31480 MEMB     272      POPC     C312     CTL2    -0.180000       12.0110           0
     31481 MEMB     272      POPC     H12X     HAL2     0.900000E-01   1.00800           0
     31482 MEMB     272      POPC     H12Y     HAL2     0.900000E-01   1.00800           0
     31483 MEMB     272      POPC     C313     CTL2    -0.180000       12.0110           0
     31484 MEMB     272      POPC     H13X     HAL2     0.900000E-01   1.00800           0
     31485 MEMB     272      POPC     H13Y     HAL2     0.900000E-01   1.00800           0
     31486 MEMB     272      POPC     C314     CTL2    -0.180000       12.0110           0
     31487 MEMB     272      POPC     H14X     HAL2     0.900000E-01   1.00800           0
     31488 MEMB     272      POPC     H14Y     HAL2     0.900000E-01   1.00800           0
     31489 MEMB     272      POPC     C315     CTL2    -0.180000       12.0110           0
     31490 MEMB     272      POPC     H15X     HAL2     0.900000E-01   1.00800           0
     31491 MEMB     272      POPC     H15Y     HAL2     0.900000E-01   1.00800           0
     31492 MEMB     272      POPC     C316     CTL3    -0.270000       12.0110           0
     31493 MEMB     272      POPC     H16X     HAL3     0.900000E-01   1.00800           0
     31494 MEMB     272      POPC     H16Y     HAL3     0.900000E-01   1.00800           0
     31495 MEMB     272      POPC     H16Z     HAL3     0.900000E-01   1.00800           0
     31496 MEMB     273      POPC     N        NTL     -0.600000       14.0070           0
     31497 MEMB     273      POPC     C12      CTL2    -0.100000       12.0110           0
     31498 MEMB     273      POPC     H12A     HL       0.250000       1.00800           0
     31499 MEMB     273      POPC     H12B     HL       0.250000       1.00800           0
     31500 MEMB     273      POPC     C13      CTL5    -0.350000       12.0110           0
     31501 MEMB     273      POPC     H13A     HL       0.250000       1.00800           0
     31502 MEMB     273      POPC     H13B     HL       0.250000       1.00800           0
     31503 MEMB     273      POPC     H13C     HL       0.250000       1.00800           0
     31504 MEMB     273      POPC     C14      CTL5    -0.350000       12.0110           0
     31505 MEMB     273      POPC     H14A     HL       0.250000       1.00800           0
     31506 MEMB     273      POPC     H14B     HL       0.250000       1.00800           0
     31507 MEMB     273      POPC     H14C     HL       0.250000       1.00800           0
     31508 MEMB     273      POPC     C15      CTL5    -0.350000       12.0110           0
     31509 MEMB     273      POPC     H15A     HL       0.250000       1.00800           0
     31510 MEMB     273      POPC     H15B     HL       0.250000       1.00800           0
     31511 MEMB     273      POPC     H15C     HL       0.250000       1.00800           0
     31512 MEMB     273      POPC     C11      CTL2    -0.800000E-01   12.0110           0
     31513 MEMB     273      POPC     H11A     HAL2     0.900000E-01   1.00800           0
     31514 MEMB     273      POPC     H11B     HAL2     0.900000E-01   1.00800           0
     31515 MEMB     273      POPC     P        PL        1.50000       30.9740           0
     31516 MEMB     273      POPC     O13      O2L     -0.780000       15.9994           0
     31517 MEMB     273      POPC     O14      O2L     -0.780000       15.9994           0
     31518 MEMB     273      POPC     O12      OSLP    -0.570000       15.9994           0
     31519 MEMB     273      POPC     O11      OSLP    -0.570000       15.9994           0
     31520 MEMB     273      POPC     C1       CTL2    -0.800000E-01   12.0110           0
     31521 MEMB     273      POPC     HA       HAL2     0.900000E-01   1.00800           0
     31522 MEMB     273      POPC     HB       HAL2     0.900000E-01   1.00800           0
     31523 MEMB     273      POPC     C2       CTL1     0.170000       12.0110           0
     31524 MEMB     273      POPC     HS       HAL1     0.900000E-01   1.00800           0
     31525 MEMB     273      POPC     O21      OSL     -0.490000       15.9994           0
     31526 MEMB     273      POPC     C21      CL       0.900000       12.0110           0
     31527 MEMB     273      POPC     O22      OBL     -0.630000       15.9994           0
     31528 MEMB     273      POPC     C22      CTL2    -0.220000       12.0110           0
     31529 MEMB     273      POPC     H2R      HAL2     0.900000E-01   1.00800           0
     31530 MEMB     273      POPC     H2S      HAL2     0.900000E-01   1.00800           0
     31531 MEMB     273      POPC     C3       CTL2     0.800000E-01   12.0110           0
     31532 MEMB     273      POPC     HX       HAL2     0.900000E-01   1.00800           0
     31533 MEMB     273      POPC     HY       HAL2     0.900000E-01   1.00800           0
     31534 MEMB     273      POPC     O31      OSL     -0.490000       15.9994           0
     31535 MEMB     273      POPC     C31      CL       0.900000       12.0110           0
     31536 MEMB     273      POPC     O32      OBL     -0.630000       15.9994           0
     31537 MEMB     273      POPC     C32      CTL2    -0.220000       12.0110           0
     31538 MEMB     273      POPC     H2X      HAL2     0.900000E-01   1.00800           0
     31539 MEMB     273      POPC     H2Y      HAL2     0.900000E-01   1.00800           0
     31540 MEMB     273      POPC     C23      CTL2    -0.180000       12.0110           0
     31541 MEMB     273      POPC     H3R      HAL2     0.900000E-01   1.00800           0
     31542 MEMB     273      POPC     H3S      HAL2     0.900000E-01   1.00800           0
     31543 MEMB     273      POPC     C24      CTL2    -0.180000       12.0110           0
     31544 MEMB     273      POPC     H4R      HAL2     0.900000E-01   1.00800           0
     31545 MEMB     273      POPC     H4S      HAL2     0.900000E-01   1.00800           0
     31546 MEMB     273      POPC     C25      CTL2    -0.180000       12.0110           0
     31547 MEMB     273      POPC     H5R      HAL2     0.900000E-01   1.00800           0
     31548 MEMB     273      POPC     H5S      HAL2     0.900000E-01   1.00800           0
     31549 MEMB     273      POPC     C26      CTL2    -0.180000       12.0110           0
     31550 MEMB     273      POPC     H6R      HAL2     0.900000E-01   1.00800           0
     31551 MEMB     273      POPC     H6S      HAL2     0.900000E-01   1.00800           0
     31552 MEMB     273      POPC     C27      CTL2    -0.180000       12.0110           0
     31553 MEMB     273      POPC     H7R      HAL2     0.900000E-01   1.00800           0
     31554 MEMB     273      POPC     H7S      HAL2     0.900000E-01   1.00800           0
     31555 MEMB     273      POPC     C28      CTL2    -0.180000       12.0110           0
     31556 MEMB     273      POPC     H8R      HAL2     0.900000E-01   1.00800           0
     31557 MEMB     273      POPC     H8S      HAL2     0.900000E-01   1.00800           0
     31558 MEMB     273      POPC     C29      CEL1    -0.150000       12.0110           0
     31559 MEMB     273      POPC     H91      HEL1     0.150000       1.00800           0
     31560 MEMB     273      POPC     C210     CEL1    -0.150000       12.0110           0
     31561 MEMB     273      POPC     H101     HEL1     0.150000       1.00800           0
     31562 MEMB     273      POPC     C211     CTL2    -0.180000       12.0110           0
     31563 MEMB     273      POPC     H11R     HAL2     0.900000E-01   1.00800           0
     31564 MEMB     273      POPC     H11S     HAL2     0.900000E-01   1.00800           0
     31565 MEMB     273      POPC     C212     CTL2    -0.180000       12.0110           0
     31566 MEMB     273      POPC     H12R     HAL2     0.900000E-01   1.00800           0
     31567 MEMB     273      POPC     H12S     HAL2     0.900000E-01   1.00800           0
     31568 MEMB     273      POPC     C213     CTL2    -0.180000       12.0110           0
     31569 MEMB     273      POPC     H13R     HAL2     0.900000E-01   1.00800           0
     31570 MEMB     273      POPC     H13S     HAL2     0.900000E-01   1.00800           0
     31571 MEMB     273      POPC     C214     CTL2    -0.180000       12.0110           0
     31572 MEMB     273      POPC     H14R     HAL2     0.900000E-01   1.00800           0
     31573 MEMB     273      POPC     H14S     HAL2     0.900000E-01   1.00800           0
     31574 MEMB     273      POPC     C215     CTL2    -0.180000       12.0110           0
     31575 MEMB     273      POPC     H15R     HAL2     0.900000E-01   1.00800           0
     31576 MEMB     273      POPC     H15S     HAL2     0.900000E-01   1.00800           0
     31577 MEMB     273      POPC     C216     CTL2    -0.180000       12.0110           0
     31578 MEMB     273      POPC     H16R     HAL2     0.900000E-01   1.00800           0
     31579 MEMB     273      POPC     H16S     HAL2     0.900000E-01   1.00800           0
     31580 MEMB     273      POPC     C217     CTL2    -0.180000       12.0110           0
     31581 MEMB     273      POPC     H17R     HAL2     0.900000E-01   1.00800           0
     31582 MEMB     273      POPC     H17S     HAL2     0.900000E-01   1.00800           0
     31583 MEMB     273      POPC     C218     CTL3    -0.270000       12.0110           0
     31584 MEMB     273      POPC     H18R     HAL3     0.900000E-01   1.00800           0
     31585 MEMB     273      POPC     H18S     HAL3     0.900000E-01   1.00800           0
     31586 MEMB     273      POPC     H18T     HAL3     0.900000E-01   1.00800           0
     31587 MEMB     273      POPC     C33      CTL2    -0.180000       12.0110           0
     31588 MEMB     273      POPC     H3X      HAL2     0.900000E-01   1.00800           0
     31589 MEMB     273      POPC     H3Y      HAL2     0.900000E-01   1.00800           0
     31590 MEMB     273      POPC     C34      CTL2    -0.180000       12.0110           0
     31591 MEMB     273      POPC     H4X      HAL2     0.900000E-01   1.00800           0
     31592 MEMB     273      POPC     H4Y      HAL2     0.900000E-01   1.00800           0
     31593 MEMB     273      POPC     C35      CTL2    -0.180000       12.0110           0
     31594 MEMB     273      POPC     H5X      HAL2     0.900000E-01   1.00800           0
     31595 MEMB     273      POPC     H5Y      HAL2     0.900000E-01   1.00800           0
     31596 MEMB     273      POPC     C36      CTL2    -0.180000       12.0110           0
     31597 MEMB     273      POPC     H6X      HAL2     0.900000E-01   1.00800           0
     31598 MEMB     273      POPC     H6Y      HAL2     0.900000E-01   1.00800           0
     31599 MEMB     273      POPC     C37      CTL2    -0.180000       12.0110           0
     31600 MEMB     273      POPC     H7X      HAL2     0.900000E-01   1.00800           0
     31601 MEMB     273      POPC     H7Y      HAL2     0.900000E-01   1.00800           0
     31602 MEMB     273      POPC     C38      CTL2    -0.180000       12.0110           0
     31603 MEMB     273      POPC     H8X      HAL2     0.900000E-01   1.00800           0
     31604 MEMB     273      POPC     H8Y      HAL2     0.900000E-01   1.00800           0
     31605 MEMB     273      POPC     C39      CTL2    -0.180000       12.0110           0
     31606 MEMB     273      POPC     H9X      HAL2     0.900000E-01   1.00800           0
     31607 MEMB     273      POPC     H9Y      HAL2     0.900000E-01   1.00800           0
     31608 MEMB     273      POPC     C310     CTL2    -0.180000       12.0110           0
     31609 MEMB     273      POPC     H10X     HAL2     0.900000E-01   1.00800           0
     31610 MEMB     273      POPC     H10Y     HAL2     0.900000E-01   1.00800           0
     31611 MEMB     273      POPC     C311     CTL2    -0.180000       12.0110           0
     31612 MEMB     273      POPC     H11X     HAL2     0.900000E-01   1.00800           0
     31613 MEMB     273      POPC     H11Y     HAL2     0.900000E-01   1.00800           0
     31614 MEMB     273      POPC     C312     CTL2    -0.180000       12.0110           0
     31615 MEMB     273      POPC     H12X     HAL2     0.900000E-01   1.00800           0
     31616 MEMB     273      POPC     H12Y     HAL2     0.900000E-01   1.00800           0
     31617 MEMB     273      POPC     C313     CTL2    -0.180000       12.0110           0
     31618 MEMB     273      POPC     H13X     HAL2     0.900000E-01   1.00800           0
     31619 MEMB     273      POPC     H13Y     HAL2     0.900000E-01   1.00800           0
     31620 MEMB     273      POPC     C314     CTL2    -0.180000       12.0110           0
     31621 MEMB     273      POPC     H14X     HAL2     0.900000E-01   1.00800           0
     31622 MEMB     273      POPC     H14Y     HAL2     0.900000E-01   1.00800           0
     31623 MEMB     273      POPC     C315     CTL2    -0.180000       12.0110           0
     31624 MEMB     273      POPC     H15X     HAL2     0.900000E-01   1.00800           0
     31625 MEMB     273      POPC     H15Y     HAL2     0.900000E-01   1.00800           0
     31626 MEMB     273      POPC     C316     CTL3    -0.270000       12.0110           0
     31627 MEMB     273      POPC     H16X     HAL3     0.900000E-01   1.00800           0
     31628 MEMB     273      POPC     H16Y     HAL3     0.900000E-01   1.00800           0
     31629 MEMB     273      POPC     H16Z     HAL3     0.900000E-01   1.00800           0
     31630 MEMB     274      POPE     N        NH3L    -0.300000       14.0070           0
     31631 MEMB     274      POPE     HN1      HCL      0.330000       1.00800           0
     31632 MEMB     274      POPE     HN2      HCL      0.330000       1.00800           0
     31633 MEMB     274      POPE     HN3      HCL      0.330000       1.00800           0
     31634 MEMB     274      POPE     C12      CTL2     0.130000       12.0110           0
     31635 MEMB     274      POPE     H12A     HAL2     0.900000E-01   1.00800           0
     31636 MEMB     274      POPE     H12B     HAL2     0.900000E-01   1.00800           0
     31637 MEMB     274      POPE     C11      CTL2    -0.800000E-01   12.0110           0
     31638 MEMB     274      POPE     H11A     HAL2     0.900000E-01   1.00800           0
     31639 MEMB     274      POPE     H11B     HAL2     0.900000E-01   1.00800           0
     31640 MEMB     274      POPE     P        PL        1.50000       30.9740           0
     31641 MEMB     274      POPE     O13      O2L     -0.780000       15.9994           0
     31642 MEMB     274      POPE     O14      O2L     -0.780000       15.9994           0
     31643 MEMB     274      POPE     O11      OSLP    -0.570000       15.9994           0
     31644 MEMB     274      POPE     O12      OSLP    -0.570000       15.9994           0
     31645 MEMB     274      POPE     C1       CTL2    -0.800000E-01   12.0110           0
     31646 MEMB     274      POPE     HA       HAL2     0.900000E-01   1.00800           0
     31647 MEMB     274      POPE     HB       HAL2     0.900000E-01   1.00800           0
     31648 MEMB     274      POPE     C2       CTL1     0.170000       12.0110           0
     31649 MEMB     274      POPE     HS       HAL1     0.900000E-01   1.00800           0
     31650 MEMB     274      POPE     O21      OSL     -0.490000       15.9994           0
     31651 MEMB     274      POPE     C21      CL       0.900000       12.0110           0
     31652 MEMB     274      POPE     O22      OBL     -0.630000       15.9994           0
     31653 MEMB     274      POPE     C22      CTL2    -0.220000       12.0110           0
     31654 MEMB     274      POPE     H2R      HAL2     0.900000E-01   1.00800           0
     31655 MEMB     274      POPE     H2S      HAL2     0.900000E-01   1.00800           0
     31656 MEMB     274      POPE     C3       CTL2     0.800000E-01   12.0110           0
     31657 MEMB     274      POPE     HX       HAL2     0.900000E-01   1.00800           0
     31658 MEMB     274      POPE     HY       HAL2     0.900000E-01   1.00800           0
     31659 MEMB     274      POPE     O31      OSL     -0.490000       15.9994           0
     31660 MEMB     274      POPE     C31      CL       0.900000       12.0110           0
     31661 MEMB     274      POPE     O32      OBL     -0.630000       15.9994           0
     31662 MEMB     274      POPE     C32      CTL2    -0.220000       12.0110           0
     31663 MEMB     274      POPE     H2X      HAL2     0.900000E-01   1.00800           0
     31664 MEMB     274      POPE     H2Y      HAL2     0.900000E-01   1.00800           0
     31665 MEMB     274      POPE     C23      CTL2    -0.180000       12.0110           0
     31666 MEMB     274      POPE     H3R      HAL2     0.900000E-01   1.00800           0
     31667 MEMB     274      POPE     H3S      HAL2     0.900000E-01   1.00800           0
     31668 MEMB     274      POPE     C24      CTL2    -0.180000       12.0110           0
     31669 MEMB     274      POPE     H4R      HAL2     0.900000E-01   1.00800           0
     31670 MEMB     274      POPE     H4S      HAL2     0.900000E-01   1.00800           0
     31671 MEMB     274      POPE     C25      CTL2    -0.180000       12.0110           0
     31672 MEMB     274      POPE     H5R      HAL2     0.900000E-01   1.00800           0
     31673 MEMB     274      POPE     H5S      HAL2     0.900000E-01   1.00800           0
     31674 MEMB     274      POPE     C26      CTL2    -0.180000       12.0110           0
     31675 MEMB     274      POPE     H6R      HAL2     0.900000E-01   1.00800           0
     31676 MEMB     274      POPE     H6S      HAL2     0.900000E-01   1.00800           0
     31677 MEMB     274      POPE     C27      CTL2    -0.180000       12.0110           0
     31678 MEMB     274      POPE     H7R      HAL2     0.900000E-01   1.00800           0
     31679 MEMB     274      POPE     H7S      HAL2     0.900000E-01   1.00800           0
     31680 MEMB     274      POPE     C28      CTL2    -0.180000       12.0110           0
     31681 MEMB     274      POPE     H8R      HAL2     0.900000E-01   1.00800           0
     31682 MEMB     274      POPE     H8S      HAL2     0.900000E-01   1.00800           0
     31683 MEMB     274      POPE     C29      CEL1    -0.150000       12.0110           0
     31684 MEMB     274      POPE     H91      HEL1     0.150000       1.00800           0
     31685 MEMB     274      POPE     C210     CEL1    -0.150000       12.0110           0
     31686 MEMB     274      POPE     H101     HEL1     0.150000       1.00800           0
     31687 MEMB     274      POPE     C211     CTL2    -0.180000       12.0110           0
     31688 MEMB     274      POPE     H11R     HAL2     0.900000E-01   1.00800           0
     31689 MEMB     274      POPE     H11S     HAL2     0.900000E-01   1.00800           0
     31690 MEMB     274      POPE     C212     CTL2    -0.180000       12.0110           0
     31691 MEMB     274      POPE     H12R     HAL2     0.900000E-01   1.00800           0
     31692 MEMB     274      POPE     H12S     HAL2     0.900000E-01   1.00800           0
     31693 MEMB     274      POPE     C213     CTL2    -0.180000       12.0110           0
     31694 MEMB     274      POPE     H13R     HAL2     0.900000E-01   1.00800           0
     31695 MEMB     274      POPE     H13S     HAL2     0.900000E-01   1.00800           0
     31696 MEMB     274      POPE     C214     CTL2    -0.180000       12.0110           0
     31697 MEMB     274      POPE     H14R     HAL2     0.900000E-01   1.00800           0
     31698 MEMB     274      POPE     H14S     HAL2     0.900000E-01   1.00800           0
     31699 MEMB     274      POPE     C215     CTL2    -0.180000       12.0110           0
     31700 MEMB     274      POPE     H15R     HAL2     0.900000E-01   1.00800           0
     31701 MEMB     274      POPE     H15S     HAL2     0.900000E-01   1.00800           0
     31702 MEMB     274      POPE     C216     CTL2    -0.180000       12.0110           0
     31703 MEMB     274      POPE     H16R     HAL2     0.900000E-01   1.00800           0
     31704 MEMB     274      POPE     H16S     HAL2     0.900000E-01   1.00800           0
     31705 MEMB     274      POPE     C217     CTL2    -0.180000       12.0110           0
     31706 MEMB     274      POPE     H17R     HAL2     0.900000E-01   1.00800           0
     31707 MEMB     274      POPE     H17S     HAL2     0.900000E-01   1.00800           0
     31708 MEMB     274      POPE     C218     CTL3    -0.270000       12.0110           0
     31709 MEMB     274      POPE     H18R     HAL3     0.900000E-01   1.00800           0
     31710 MEMB     274      POPE     H18S     HAL3     0.900000E-01   1.00800           0
     31711 MEMB     274      POPE     H18T     HAL3     0.900000E-01   1.00800           0
     31712 MEMB     274      POPE     C33      CTL2    -0.180000       12.0110           0
     31713 MEMB     274      POPE     H3X      HAL2     0.900000E-01   1.00800           0
     31714 MEMB     274      POPE     H3Y      HAL2     0.900000E-01   1.00800           0
     31715 MEMB     274      POPE     C34      CTL2    -0.180000       12.0110           0
     31716 MEMB     274      POPE     H4X      HAL2     0.900000E-01   1.00800           0
     31717 MEMB     274      POPE     H4Y      HAL2     0.900000E-01   1.00800           0
     31718 MEMB     274      POPE     C35      CTL2    -0.180000       12.0110           0
     31719 MEMB     274      POPE     H5X      HAL2     0.900000E-01   1.00800           0
     31720 MEMB     274      POPE     H5Y      HAL2     0.900000E-01   1.00800           0
     31721 MEMB     274      POPE     C36      CTL2    -0.180000       12.0110           0
     31722 MEMB     274      POPE     H6X      HAL2     0.900000E-01   1.00800           0
     31723 MEMB     274      POPE     H6Y      HAL2     0.900000E-01   1.00800           0
     31724 MEMB     274      POPE     C37      CTL2    -0.180000       12.0110           0
     31725 MEMB     274      POPE     H7X      HAL2     0.900000E-01   1.00800           0
     31726 MEMB     274      POPE     H7Y      HAL2     0.900000E-01   1.00800           0
     31727 MEMB     274      POPE     C38      CTL2    -0.180000       12.0110           0
     31728 MEMB     274      POPE     H8X      HAL2     0.900000E-01   1.00800           0
     31729 MEMB     274      POPE     H8Y      HAL2     0.900000E-01   1.00800           0
     31730 MEMB     274      POPE     C39      CTL2    -0.180000       12.0110           0
     31731 MEMB     274      POPE     H9X      HAL2     0.900000E-01   1.00800           0
     31732 MEMB     274      POPE     H9Y      HAL2     0.900000E-01   1.00800           0
     31733 MEMB     274      POPE     C310     CTL2    -0.180000       12.0110           0
     31734 MEMB     274      POPE     H10X     HAL2     0.900000E-01   1.00800           0
     31735 MEMB     274      POPE     H10Y     HAL2     0.900000E-01   1.00800           0
     31736 MEMB     274      POPE     C311     CTL2    -0.180000       12.0110           0
     31737 MEMB     274      POPE     H11X     HAL2     0.900000E-01   1.00800           0
     31738 MEMB     274      POPE     H11Y     HAL2     0.900000E-01   1.00800           0
     31739 MEMB     274      POPE     C312     CTL2    -0.180000       12.0110           0
     31740 MEMB     274      POPE     H12X     HAL2     0.900000E-01   1.00800           0
     31741 MEMB     274      POPE     H12Y     HAL2     0.900000E-01   1.00800           0
     31742 MEMB     274      POPE     C313     CTL2    -0.180000       12.0110           0
     31743 MEMB     274      POPE     H13X     HAL2     0.900000E-01   1.00800           0
     31744 MEMB     274      POPE     H13Y     HAL2     0.900000E-01   1.00800           0
     31745 MEMB     274      POPE     C314     CTL2    -0.180000       12.0110           0
     31746 MEMB     274      POPE     H14X     HAL2     0.900000E-01   1.00800           0
     31747 MEMB     274      POPE     H14Y     HAL2     0.900000E-01   1.00800           0
     31748 MEMB     274      POPE     C315     CTL2    -0.180000       12.0110           0
     31749 MEMB     274      POPE     H15X     HAL2     0.900000E-01   1.00800           0
     31750 MEMB     274      POPE     H15Y     HAL2     0.900000E-01   1.00800           0
     31751 MEMB     274      POPE     C316     CTL3    -0.270000       12.0110           0
     31752 MEMB     274      POPE     H16X     HAL3     0.900000E-01   1.00800           0
     31753 MEMB     274      POPE     H16Y     HAL3     0.900000E-01   1.00800           0
     31754 MEMB     274      POPE     H16Z     HAL3     0.900000E-01   1.00800           0
     31755 MEMB     275      POPC     N        NTL     -0.600000       14.0070           0
     31756 MEMB     275      POPC     C12      CTL2    -0.100000       12.0110           0
     31757 MEMB     275      POPC     H12A     HL       0.250000       1.00800           0
     31758 MEMB     275      POPC     H12B     HL       0.250000       1.00800           0
     31759 MEMB     275      POPC     C13      CTL5    -0.350000       12.0110           0
     31760 MEMB     275      POPC     H13A     HL       0.250000       1.00800           0
     31761 MEMB     275      POPC     H13B     HL       0.250000       1.00800           0
     31762 MEMB     275      POPC     H13C     HL       0.250000       1.00800           0
     31763 MEMB     275      POPC     C14      CTL5    -0.350000       12.0110           0
     31764 MEMB     275      POPC     H14A     HL       0.250000       1.00800           0
     31765 MEMB     275      POPC     H14B     HL       0.250000       1.00800           0
     31766 MEMB     275      POPC     H14C     HL       0.250000       1.00800           0
     31767 MEMB     275      POPC     C15      CTL5    -0.350000       12.0110           0
     31768 MEMB     275      POPC     H15A     HL       0.250000       1.00800           0
     31769 MEMB     275      POPC     H15B     HL       0.250000       1.00800           0
     31770 MEMB     275      POPC     H15C     HL       0.250000       1.00800           0
     31771 MEMB     275      POPC     C11      CTL2    -0.800000E-01   12.0110           0
     31772 MEMB     275      POPC     H11A     HAL2     0.900000E-01   1.00800           0
     31773 MEMB     275      POPC     H11B     HAL2     0.900000E-01   1.00800           0
     31774 MEMB     275      POPC     P        PL        1.50000       30.9740           0
     31775 MEMB     275      POPC     O13      O2L     -0.780000       15.9994           0
     31776 MEMB     275      POPC     O14      O2L     -0.780000       15.9994           0
     31777 MEMB     275      POPC     O12      OSLP    -0.570000       15.9994           0
     31778 MEMB     275      POPC     O11      OSLP    -0.570000       15.9994           0
     31779 MEMB     275      POPC     C1       CTL2    -0.800000E-01   12.0110           0
     31780 MEMB     275      POPC     HA       HAL2     0.900000E-01   1.00800           0
     31781 MEMB     275      POPC     HB       HAL2     0.900000E-01   1.00800           0
     31782 MEMB     275      POPC     C2       CTL1     0.170000       12.0110           0
     31783 MEMB     275      POPC     HS       HAL1     0.900000E-01   1.00800           0
     31784 MEMB     275      POPC     O21      OSL     -0.490000       15.9994           0
     31785 MEMB     275      POPC     C21      CL       0.900000       12.0110           0
     31786 MEMB     275      POPC     O22      OBL     -0.630000       15.9994           0
     31787 MEMB     275      POPC     C22      CTL2    -0.220000       12.0110           0
     31788 MEMB     275      POPC     H2R      HAL2     0.900000E-01   1.00800           0
     31789 MEMB     275      POPC     H2S      HAL2     0.900000E-01   1.00800           0
     31790 MEMB     275      POPC     C3       CTL2     0.800000E-01   12.0110           0
     31791 MEMB     275      POPC     HX       HAL2     0.900000E-01   1.00800           0
     31792 MEMB     275      POPC     HY       HAL2     0.900000E-01   1.00800           0
     31793 MEMB     275      POPC     O31      OSL     -0.490000       15.9994           0
     31794 MEMB     275      POPC     C31      CL       0.900000       12.0110           0
     31795 MEMB     275      POPC     O32      OBL     -0.630000       15.9994           0
     31796 MEMB     275      POPC     C32      CTL2    -0.220000       12.0110           0
     31797 MEMB     275      POPC     H2X      HAL2     0.900000E-01   1.00800           0
     31798 MEMB     275      POPC     H2Y      HAL2     0.900000E-01   1.00800           0
     31799 MEMB     275      POPC     C23      CTL2    -0.180000       12.0110           0
     31800 MEMB     275      POPC     H3R      HAL2     0.900000E-01   1.00800           0
     31801 MEMB     275      POPC     H3S      HAL2     0.900000E-01   1.00800           0
     31802 MEMB     275      POPC     C24      CTL2    -0.180000       12.0110           0
     31803 MEMB     275      POPC     H4R      HAL2     0.900000E-01   1.00800           0
     31804 MEMB     275      POPC     H4S      HAL2     0.900000E-01   1.00800           0
     31805 MEMB     275      POPC     C25      CTL2    -0.180000       12.0110           0
     31806 MEMB     275      POPC     H5R      HAL2     0.900000E-01   1.00800           0
     31807 MEMB     275      POPC     H5S      HAL2     0.900000E-01   1.00800           0
     31808 MEMB     275      POPC     C26      CTL2    -0.180000       12.0110           0
     31809 MEMB     275      POPC     H6R      HAL2     0.900000E-01   1.00800           0
     31810 MEMB     275      POPC     H6S      HAL2     0.900000E-01   1.00800           0
     31811 MEMB     275      POPC     C27      CTL2    -0.180000       12.0110           0
     31812 MEMB     275      POPC     H7R      HAL2     0.900000E-01   1.00800           0
     31813 MEMB     275      POPC     H7S      HAL2     0.900000E-01   1.00800           0
     31814 MEMB     275      POPC     C28      CTL2    -0.180000       12.0110           0
     31815 MEMB     275      POPC     H8R      HAL2     0.900000E-01   1.00800           0
     31816 MEMB     275      POPC     H8S      HAL2     0.900000E-01   1.00800           0
     31817 MEMB     275      POPC     C29      CEL1    -0.150000       12.0110           0
     31818 MEMB     275      POPC     H91      HEL1     0.150000       1.00800           0
     31819 MEMB     275      POPC     C210     CEL1    -0.150000       12.0110           0
     31820 MEMB     275      POPC     H101     HEL1     0.150000       1.00800           0
     31821 MEMB     275      POPC     C211     CTL2    -0.180000       12.0110           0
     31822 MEMB     275      POPC     H11R     HAL2     0.900000E-01   1.00800           0
     31823 MEMB     275      POPC     H11S     HAL2     0.900000E-01   1.00800           0
     31824 MEMB     275      POPC     C212     CTL2    -0.180000       12.0110           0
     31825 MEMB     275      POPC     H12R     HAL2     0.900000E-01   1.00800           0
     31826 MEMB     275      POPC     H12S     HAL2     0.900000E-01   1.00800           0
     31827 MEMB     275      POPC     C213     CTL2    -0.180000       12.0110           0
     31828 MEMB     275      POPC     H13R     HAL2     0.900000E-01   1.00800           0
     31829 MEMB     275      POPC     H13S     HAL2     0.900000E-01   1.00800           0
     31830 MEMB     275      POPC     C214     CTL2    -0.180000       12.0110           0
     31831 MEMB     275      POPC     H14R     HAL2     0.900000E-01   1.00800           0
     31832 MEMB     275      POPC     H14S     HAL2     0.900000E-01   1.00800           0
     31833 MEMB     275      POPC     C215     CTL2    -0.180000       12.0110           0
     31834 MEMB     275      POPC     H15R     HAL2     0.900000E-01   1.00800           0
     31835 MEMB     275      POPC     H15S     HAL2     0.900000E-01   1.00800           0
     31836 MEMB     275      POPC     C216     CTL2    -0.180000       12.0110           0
     31837 MEMB     275      POPC     H16R     HAL2     0.900000E-01   1.00800           0
     31838 MEMB     275      POPC     H16S     HAL2     0.900000E-01   1.00800           0
     31839 MEMB     275      POPC     C217     CTL2    -0.180000       12.0110           0
     31840 MEMB     275      POPC     H17R     HAL2     0.900000E-01   1.00800           0
     31841 MEMB     275      POPC     H17S     HAL2     0.900000E-01   1.00800           0
     31842 MEMB     275      POPC     C218     CTL3    -0.270000       12.0110           0
     31843 MEMB     275      POPC     H18R     HAL3     0.900000E-01   1.00800           0
     31844 MEMB     275      POPC     H18S     HAL3     0.900000E-01   1.00800           0
     31845 MEMB     275      POPC     H18T     HAL3     0.900000E-01   1.00800           0
     31846 MEMB     275      POPC     C33      CTL2    -0.180000       12.0110           0
     31847 MEMB     275      POPC     H3X      HAL2     0.900000E-01   1.00800           0
     31848 MEMB     275      POPC     H3Y      HAL2     0.900000E-01   1.00800           0
     31849 MEMB     275      POPC     C34      CTL2    -0.180000       12.0110           0
     31850 MEMB     275      POPC     H4X      HAL2     0.900000E-01   1.00800           0
     31851 MEMB     275      POPC     H4Y      HAL2     0.900000E-01   1.00800           0
     31852 MEMB     275      POPC     C35      CTL2    -0.180000       12.0110           0
     31853 MEMB     275      POPC     H5X      HAL2     0.900000E-01   1.00800           0
     31854 MEMB     275      POPC     H5Y      HAL2     0.900000E-01   1.00800           0
     31855 MEMB     275      POPC     C36      CTL2    -0.180000       12.0110           0
     31856 MEMB     275      POPC     H6X      HAL2     0.900000E-01   1.00800           0
     31857 MEMB     275      POPC     H6Y      HAL2     0.900000E-01   1.00800           0
     31858 MEMB     275      POPC     C37      CTL2    -0.180000       12.0110           0
     31859 MEMB     275      POPC     H7X      HAL2     0.900000E-01   1.00800           0
     31860 MEMB     275      POPC     H7Y      HAL2     0.900000E-01   1.00800           0
     31861 MEMB     275      POPC     C38      CTL2    -0.180000       12.0110           0
     31862 MEMB     275      POPC     H8X      HAL2     0.900000E-01   1.00800           0
     31863 MEMB     275      POPC     H8Y      HAL2     0.900000E-01   1.00800           0
     31864 MEMB     275      POPC     C39      CTL2    -0.180000       12.0110           0
     31865 MEMB     275      POPC     H9X      HAL2     0.900000E-01   1.00800           0
     31866 MEMB     275      POPC     H9Y      HAL2     0.900000E-01   1.00800           0
     31867 MEMB     275      POPC     C310     CTL2    -0.180000       12.0110           0
     31868 MEMB     275      POPC     H10X     HAL2     0.900000E-01   1.00800           0
     31869 MEMB     275      POPC     H10Y     HAL2     0.900000E-01   1.00800           0
     31870 MEMB     275      POPC     C311     CTL2    -0.180000       12.0110           0
     31871 MEMB     275      POPC     H11X     HAL2     0.900000E-01   1.00800           0
     31872 MEMB     275      POPC     H11Y     HAL2     0.900000E-01   1.00800           0
     31873 MEMB     275      POPC     C312     CTL2    -0.180000       12.0110           0
     31874 MEMB     275      POPC     H12X     HAL2     0.900000E-01   1.00800           0
     31875 MEMB     275      POPC     H12Y     HAL2     0.900000E-01   1.00800           0
     31876 MEMB     275      POPC     C313     CTL2    -0.180000       12.0110           0
     31877 MEMB     275      POPC     H13X     HAL2     0.900000E-01   1.00800           0
     31878 MEMB     275      POPC     H13Y     HAL2     0.900000E-01   1.00800           0
     31879 MEMB     275      POPC     C314     CTL2    -0.180000       12.0110           0
     31880 MEMB     275      POPC     H14X     HAL2     0.900000E-01   1.00800           0
     31881 MEMB     275      POPC     H14Y     HAL2     0.900000E-01   1.00800           0
     31882 MEMB     275      POPC     C315     CTL2    -0.180000       12.0110           0
     31883 MEMB     275      POPC     H15X     HAL2     0.900000E-01   1.00800           0
     31884 MEMB     275      POPC     H15Y     HAL2     0.900000E-01   1.00800           0
     31885 MEMB     275      POPC     C316     CTL3    -0.270000       12.0110           0
     31886 MEMB     275      POPC     H16X     HAL3     0.900000E-01   1.00800           0
     31887 MEMB     275      POPC     H16Y     HAL3     0.900000E-01   1.00800           0
     31888 MEMB     275      POPC     H16Z     HAL3     0.900000E-01   1.00800           0
     31889 MEMB     276      POPC     N        NTL     -0.600000       14.0070           0
     31890 MEMB     276      POPC     C12      CTL2    -0.100000       12.0110           0
     31891 MEMB     276      POPC     H12A     HL       0.250000       1.00800           0
     31892 MEMB     276      POPC     H12B     HL       0.250000       1.00800           0
     31893 MEMB     276      POPC     C13      CTL5    -0.350000       12.0110           0
     31894 MEMB     276      POPC     H13A     HL       0.250000       1.00800           0
     31895 MEMB     276      POPC     H13B     HL       0.250000       1.00800           0
     31896 MEMB     276      POPC     H13C     HL       0.250000       1.00800           0
     31897 MEMB     276      POPC     C14      CTL5    -0.350000       12.0110           0
     31898 MEMB     276      POPC     H14A     HL       0.250000       1.00800           0
     31899 MEMB     276      POPC     H14B     HL       0.250000       1.00800           0
     31900 MEMB     276      POPC     H14C     HL       0.250000       1.00800           0
     31901 MEMB     276      POPC     C15      CTL5    -0.350000       12.0110           0
     31902 MEMB     276      POPC     H15A     HL       0.250000       1.00800           0
     31903 MEMB     276      POPC     H15B     HL       0.250000       1.00800           0
     31904 MEMB     276      POPC     H15C     HL       0.250000       1.00800           0
     31905 MEMB     276      POPC     C11      CTL2    -0.800000E-01   12.0110           0
     31906 MEMB     276      POPC     H11A     HAL2     0.900000E-01   1.00800           0
     31907 MEMB     276      POPC     H11B     HAL2     0.900000E-01   1.00800           0
     31908 MEMB     276      POPC     P        PL        1.50000       30.9740           0
     31909 MEMB     276      POPC     O13      O2L     -0.780000       15.9994           0
     31910 MEMB     276      POPC     O14      O2L     -0.780000       15.9994           0
     31911 MEMB     276      POPC     O12      OSLP    -0.570000       15.9994           0
     31912 MEMB     276      POPC     O11      OSLP    -0.570000       15.9994           0
     31913 MEMB     276      POPC     C1       CTL2    -0.800000E-01   12.0110           0
     31914 MEMB     276      POPC     HA       HAL2     0.900000E-01   1.00800           0
     31915 MEMB     276      POPC     HB       HAL2     0.900000E-01   1.00800           0
     31916 MEMB     276      POPC     C2       CTL1     0.170000       12.0110           0
     31917 MEMB     276      POPC     HS       HAL1     0.900000E-01   1.00800           0
     31918 MEMB     276      POPC     O21      OSL     -0.490000       15.9994           0
     31919 MEMB     276      POPC     C21      CL       0.900000       12.0110           0
     31920 MEMB     276      POPC     O22      OBL     -0.630000       15.9994           0
     31921 MEMB     276      POPC     C22      CTL2    -0.220000       12.0110           0
     31922 MEMB     276      POPC     H2R      HAL2     0.900000E-01   1.00800           0
     31923 MEMB     276      POPC     H2S      HAL2     0.900000E-01   1.00800           0
     31924 MEMB     276      POPC     C3       CTL2     0.800000E-01   12.0110           0
     31925 MEMB     276      POPC     HX       HAL2     0.900000E-01   1.00800           0
     31926 MEMB     276      POPC     HY       HAL2     0.900000E-01   1.00800           0
     31927 MEMB     276      POPC     O31      OSL     -0.490000       15.9994           0
     31928 MEMB     276      POPC     C31      CL       0.900000       12.0110           0
     31929 MEMB     276      POPC     O32      OBL     -0.630000       15.9994           0
     31930 MEMB     276      POPC     C32      CTL2    -0.220000       12.0110           0
     31931 MEMB     276      POPC     H2X      HAL2     0.900000E-01   1.00800           0
     31932 MEMB     276      POPC     H2Y      HAL2     0.900000E-01   1.00800           0
     31933 MEMB     276      POPC     C23      CTL2    -0.180000       12.0110           0
     31934 MEMB     276      POPC     H3R      HAL2     0.900000E-01   1.00800           0
     31935 MEMB     276      POPC     H3S      HAL2     0.900000E-01   1.00800           0
     31936 MEMB     276      POPC     C24      CTL2    -0.180000       12.0110           0
     31937 MEMB     276      POPC     H4R      HAL2     0.900000E-01   1.00800           0
     31938 MEMB     276      POPC     H4S      HAL2     0.900000E-01   1.00800           0
     31939 MEMB     276      POPC     C25      CTL2    -0.180000       12.0110           0
     31940 MEMB     276      POPC     H5R      HAL2     0.900000E-01   1.00800           0
     31941 MEMB     276      POPC     H5S      HAL2     0.900000E-01   1.00800           0
     31942 MEMB     276      POPC     C26      CTL2    -0.180000       12.0110           0
     31943 MEMB     276      POPC     H6R      HAL2     0.900000E-01   1.00800           0
     31944 MEMB     276      POPC     H6S      HAL2     0.900000E-01   1.00800           0
     31945 MEMB     276      POPC     C27      CTL2    -0.180000       12.0110           0
     31946 MEMB     276      POPC     H7R      HAL2     0.900000E-01   1.00800           0
     31947 MEMB     276      POPC     H7S      HAL2     0.900000E-01   1.00800           0
     31948 MEMB     276      POPC     C28      CTL2    -0.180000       12.0110           0
     31949 MEMB     276      POPC     H8R      HAL2     0.900000E-01   1.00800           0
     31950 MEMB     276      POPC     H8S      HAL2     0.900000E-01   1.00800           0
     31951 MEMB     276      POPC     C29      CEL1    -0.150000       12.0110           0
     31952 MEMB     276      POPC     H91      HEL1     0.150000       1.00800           0
     31953 MEMB     276      POPC     C210     CEL1    -0.150000       12.0110           0
     31954 MEMB     276      POPC     H101     HEL1     0.150000       1.00800           0
     31955 MEMB     276      POPC     C211     CTL2    -0.180000       12.0110           0
     31956 MEMB     276      POPC     H11R     HAL2     0.900000E-01   1.00800           0
     31957 MEMB     276      POPC     H11S     HAL2     0.900000E-01   1.00800           0
     31958 MEMB     276      POPC     C212     CTL2    -0.180000       12.0110           0
     31959 MEMB     276      POPC     H12R     HAL2     0.900000E-01   1.00800           0
     31960 MEMB     276      POPC     H12S     HAL2     0.900000E-01   1.00800           0
     31961 MEMB     276      POPC     C213     CTL2    -0.180000       12.0110           0
     31962 MEMB     276      POPC     H13R     HAL2     0.900000E-01   1.00800           0
     31963 MEMB     276      POPC     H13S     HAL2     0.900000E-01   1.00800           0
     31964 MEMB     276      POPC     C214     CTL2    -0.180000       12.0110           0
     31965 MEMB     276      POPC     H14R     HAL2     0.900000E-01   1.00800           0
     31966 MEMB     276      POPC     H14S     HAL2     0.900000E-01   1.00800           0
     31967 MEMB     276      POPC     C215     CTL2    -0.180000       12.0110           0
     31968 MEMB     276      POPC     H15R     HAL2     0.900000E-01   1.00800           0
     31969 MEMB     276      POPC     H15S     HAL2     0.900000E-01   1.00800           0
     31970 MEMB     276      POPC     C216     CTL2    -0.180000       12.0110           0
     31971 MEMB     276      POPC     H16R     HAL2     0.900000E-01   1.00800           0
     31972 MEMB     276      POPC     H16S     HAL2     0.900000E-01   1.00800           0
     31973 MEMB     276      POPC     C217     CTL2    -0.180000       12.0110           0
     31974 MEMB     276      POPC     H17R     HAL2     0.900000E-01   1.00800           0
     31975 MEMB     276      POPC     H17S     HAL2     0.900000E-01   1.00800           0
     31976 MEMB     276      POPC     C218     CTL3    -0.270000       12.0110           0
     31977 MEMB     276      POPC     H18R     HAL3     0.900000E-01   1.00800           0
     31978 MEMB     276      POPC     H18S     HAL3     0.900000E-01   1.00800           0
     31979 MEMB     276      POPC     H18T     HAL3     0.900000E-01   1.00800           0
     31980 MEMB     276      POPC     C33      CTL2    -0.180000       12.0110           0
     31981 MEMB     276      POPC     H3X      HAL2     0.900000E-01   1.00800           0
     31982 MEMB     276      POPC     H3Y      HAL2     0.900000E-01   1.00800           0
     31983 MEMB     276      POPC     C34      CTL2    -0.180000       12.0110           0
     31984 MEMB     276      POPC     H4X      HAL2     0.900000E-01   1.00800           0
     31985 MEMB     276      POPC     H4Y      HAL2     0.900000E-01   1.00800           0
     31986 MEMB     276      POPC     C35      CTL2    -0.180000       12.0110           0
     31987 MEMB     276      POPC     H5X      HAL2     0.900000E-01   1.00800           0
     31988 MEMB     276      POPC     H5Y      HAL2     0.900000E-01   1.00800           0
     31989 MEMB     276      POPC     C36      CTL2    -0.180000       12.0110           0
     31990 MEMB     276      POPC     H6X      HAL2     0.900000E-01   1.00800           0
     31991 MEMB     276      POPC     H6Y      HAL2     0.900000E-01   1.00800           0
     31992 MEMB     276      POPC     C37      CTL2    -0.180000       12.0110           0
     31993 MEMB     276      POPC     H7X      HAL2     0.900000E-01   1.00800           0
     31994 MEMB     276      POPC     H7Y      HAL2     0.900000E-01   1.00800           0
     31995 MEMB     276      POPC     C38      CTL2    -0.180000       12.0110           0
     31996 MEMB     276      POPC     H8X      HAL2     0.900000E-01   1.00800           0
     31997 MEMB     276      POPC     H8Y      HAL2     0.900000E-01   1.00800           0
     31998 MEMB     276      POPC     C39      CTL2    -0.180000       12.0110           0
     31999 MEMB     276      POPC     H9X      HAL2     0.900000E-01   1.00800           0
     32000 MEMB     276      POPC     H9Y      HAL2     0.900000E-01   1.00800           0
     32001 MEMB     276      POPC     C310     CTL2    -0.180000       12.0110           0
     32002 MEMB     276      POPC     H10X     HAL2     0.900000E-01   1.00800           0
     32003 MEMB     276      POPC     H10Y     HAL2     0.900000E-01   1.00800           0
     32004 MEMB     276      POPC     C311     CTL2    -0.180000       12.0110           0
     32005 MEMB     276      POPC     H11X     HAL2     0.900000E-01   1.00800           0
     32006 MEMB     276      POPC     H11Y     HAL2     0.900000E-01   1.00800           0
     32007 MEMB     276      POPC     C312     CTL2    -0.180000       12.0110           0
     32008 MEMB     276      POPC     H12X     HAL2     0.900000E-01   1.00800           0
     32009 MEMB     276      POPC     H12Y     HAL2     0.900000E-01   1.00800           0
     32010 MEMB     276      POPC     C313     CTL2    -0.180000       12.0110           0
     32011 MEMB     276      POPC     H13X     HAL2     0.900000E-01   1.00800           0
     32012 MEMB     276      POPC     H13Y     HAL2     0.900000E-01   1.00800           0
     32013 MEMB     276      POPC     C314     CTL2    -0.180000       12.0110           0
     32014 MEMB     276      POPC     H14X     HAL2     0.900000E-01   1.00800           0
     32015 MEMB     276      POPC     H14Y     HAL2     0.900000E-01   1.00800           0
     32016 MEMB     276      POPC     C315     CTL2    -0.180000       12.0110           0
     32017 MEMB     276      POPC     H15X     HAL2     0.900000E-01   1.00800           0
     32018 MEMB     276      POPC     H15Y     HAL2     0.900000E-01   1.00800           0
     32019 MEMB     276      POPC     C316     CTL3    -0.270000       12.0110           0
     32020 MEMB     276      POPC     H16X     HAL3     0.900000E-01   1.00800           0
     32021 MEMB     276      POPC     H16Y     HAL3     0.900000E-01   1.00800           0
     32022 MEMB     276      POPC     H16Z     HAL3     0.900000E-01   1.00800           0
     32023 MEMB     277      POPE     N        NH3L    -0.300000       14.0070           0
     32024 MEMB     277      POPE     HN1      HCL      0.330000       1.00800           0
     32025 MEMB     277      POPE     HN2      HCL      0.330000       1.00800           0
     32026 MEMB     277      POPE     HN3      HCL      0.330000       1.00800           0
     32027 MEMB     277      POPE     C12      CTL2     0.130000       12.0110           0
     32028 MEMB     277      POPE     H12A     HAL2     0.900000E-01   1.00800           0
     32029 MEMB     277      POPE     H12B     HAL2     0.900000E-01   1.00800           0
     32030 MEMB     277      POPE     C11      CTL2    -0.800000E-01   12.0110           0
     32031 MEMB     277      POPE     H11A     HAL2     0.900000E-01   1.00800           0
     32032 MEMB     277      POPE     H11B     HAL2     0.900000E-01   1.00800           0
     32033 MEMB     277      POPE     P        PL        1.50000       30.9740           0
     32034 MEMB     277      POPE     O13      O2L     -0.780000       15.9994           0
     32035 MEMB     277      POPE     O14      O2L     -0.780000       15.9994           0
     32036 MEMB     277      POPE     O11      OSLP    -0.570000       15.9994           0
     32037 MEMB     277      POPE     O12      OSLP    -0.570000       15.9994           0
     32038 MEMB     277      POPE     C1       CTL2    -0.800000E-01   12.0110           0
     32039 MEMB     277      POPE     HA       HAL2     0.900000E-01   1.00800           0
     32040 MEMB     277      POPE     HB       HAL2     0.900000E-01   1.00800           0
     32041 MEMB     277      POPE     C2       CTL1     0.170000       12.0110           0
     32042 MEMB     277      POPE     HS       HAL1     0.900000E-01   1.00800           0
     32043 MEMB     277      POPE     O21      OSL     -0.490000       15.9994           0
     32044 MEMB     277      POPE     C21      CL       0.900000       12.0110           0
     32045 MEMB     277      POPE     O22      OBL     -0.630000       15.9994           0
     32046 MEMB     277      POPE     C22      CTL2    -0.220000       12.0110           0
     32047 MEMB     277      POPE     H2R      HAL2     0.900000E-01   1.00800           0
     32048 MEMB     277      POPE     H2S      HAL2     0.900000E-01   1.00800           0
     32049 MEMB     277      POPE     C3       CTL2     0.800000E-01   12.0110           0
     32050 MEMB     277      POPE     HX       HAL2     0.900000E-01   1.00800           0
     32051 MEMB     277      POPE     HY       HAL2     0.900000E-01   1.00800           0
     32052 MEMB     277      POPE     O31      OSL     -0.490000       15.9994           0
     32053 MEMB     277      POPE     C31      CL       0.900000       12.0110           0
     32054 MEMB     277      POPE     O32      OBL     -0.630000       15.9994           0
     32055 MEMB     277      POPE     C32      CTL2    -0.220000       12.0110           0
     32056 MEMB     277      POPE     H2X      HAL2     0.900000E-01   1.00800           0
     32057 MEMB     277      POPE     H2Y      HAL2     0.900000E-01   1.00800           0
     32058 MEMB     277      POPE     C23      CTL2    -0.180000       12.0110           0
     32059 MEMB     277      POPE     H3R      HAL2     0.900000E-01   1.00800           0
     32060 MEMB     277      POPE     H3S      HAL2     0.900000E-01   1.00800           0
     32061 MEMB     277      POPE     C24      CTL2    -0.180000       12.0110           0
     32062 MEMB     277      POPE     H4R      HAL2     0.900000E-01   1.00800           0
     32063 MEMB     277      POPE     H4S      HAL2     0.900000E-01   1.00800           0
     32064 MEMB     277      POPE     C25      CTL2    -0.180000       12.0110           0
     32065 MEMB     277      POPE     H5R      HAL2     0.900000E-01   1.00800           0
     32066 MEMB     277      POPE     H5S      HAL2     0.900000E-01   1.00800           0
     32067 MEMB     277      POPE     C26      CTL2    -0.180000       12.0110           0
     32068 MEMB     277      POPE     H6R      HAL2     0.900000E-01   1.00800           0
     32069 MEMB     277      POPE     H6S      HAL2     0.900000E-01   1.00800           0
     32070 MEMB     277      POPE     C27      CTL2    -0.180000       12.0110           0
     32071 MEMB     277      POPE     H7R      HAL2     0.900000E-01   1.00800           0
     32072 MEMB     277      POPE     H7S      HAL2     0.900000E-01   1.00800           0
     32073 MEMB     277      POPE     C28      CTL2    -0.180000       12.0110           0
     32074 MEMB     277      POPE     H8R      HAL2     0.900000E-01   1.00800           0
     32075 MEMB     277      POPE     H8S      HAL2     0.900000E-01   1.00800           0
     32076 MEMB     277      POPE     C29      CEL1    -0.150000       12.0110           0
     32077 MEMB     277      POPE     H91      HEL1     0.150000       1.00800           0
     32078 MEMB     277      POPE     C210     CEL1    -0.150000       12.0110           0
     32079 MEMB     277      POPE     H101     HEL1     0.150000       1.00800           0
     32080 MEMB     277      POPE     C211     CTL2    -0.180000       12.0110           0
     32081 MEMB     277      POPE     H11R     HAL2     0.900000E-01   1.00800           0
     32082 MEMB     277      POPE     H11S     HAL2     0.900000E-01   1.00800           0
     32083 MEMB     277      POPE     C212     CTL2    -0.180000       12.0110           0
     32084 MEMB     277      POPE     H12R     HAL2     0.900000E-01   1.00800           0
     32085 MEMB     277      POPE     H12S     HAL2     0.900000E-01   1.00800           0
     32086 MEMB     277      POPE     C213     CTL2    -0.180000       12.0110           0
     32087 MEMB     277      POPE     H13R     HAL2     0.900000E-01   1.00800           0
     32088 MEMB     277      POPE     H13S     HAL2     0.900000E-01   1.00800           0
     32089 MEMB     277      POPE     C214     CTL2    -0.180000       12.0110           0
     32090 MEMB     277      POPE     H14R     HAL2     0.900000E-01   1.00800           0
     32091 MEMB     277      POPE     H14S     HAL2     0.900000E-01   1.00800           0
     32092 MEMB     277      POPE     C215     CTL2    -0.180000       12.0110           0
     32093 MEMB     277      POPE     H15R     HAL2     0.900000E-01   1.00800           0
     32094 MEMB     277      POPE     H15S     HAL2     0.900000E-01   1.00800           0
     32095 MEMB     277      POPE     C216     CTL2    -0.180000       12.0110           0
     32096 MEMB     277      POPE     H16R     HAL2     0.900000E-01   1.00800           0
     32097 MEMB     277      POPE     H16S     HAL2     0.900000E-01   1.00800           0
     32098 MEMB     277      POPE     C217     CTL2    -0.180000       12.0110           0
     32099 MEMB     277      POPE     H17R     HAL2     0.900000E-01   1.00800           0
     32100 MEMB     277      POPE     H17S     HAL2     0.900000E-01   1.00800           0
     32101 MEMB     277      POPE     C218     CTL3    -0.270000       12.0110           0
     32102 MEMB     277      POPE     H18R     HAL3     0.900000E-01   1.00800           0
     32103 MEMB     277      POPE     H18S     HAL3     0.900000E-01   1.00800           0
     32104 MEMB     277      POPE     H18T     HAL3     0.900000E-01   1.00800           0
     32105 MEMB     277      POPE     C33      CTL2    -0.180000       12.0110           0
     32106 MEMB     277      POPE     H3X      HAL2     0.900000E-01   1.00800           0
     32107 MEMB     277      POPE     H3Y      HAL2     0.900000E-01   1.00800           0
     32108 MEMB     277      POPE     C34      CTL2    -0.180000       12.0110           0
     32109 MEMB     277      POPE     H4X      HAL2     0.900000E-01   1.00800           0
     32110 MEMB     277      POPE     H4Y      HAL2     0.900000E-01   1.00800           0
     32111 MEMB     277      POPE     C35      CTL2    -0.180000       12.0110           0
     32112 MEMB     277      POPE     H5X      HAL2     0.900000E-01   1.00800           0
     32113 MEMB     277      POPE     H5Y      HAL2     0.900000E-01   1.00800           0
     32114 MEMB     277      POPE     C36      CTL2    -0.180000       12.0110           0
     32115 MEMB     277      POPE     H6X      HAL2     0.900000E-01   1.00800           0
     32116 MEMB     277      POPE     H6Y      HAL2     0.900000E-01   1.00800           0
     32117 MEMB     277      POPE     C37      CTL2    -0.180000       12.0110           0
     32118 MEMB     277      POPE     H7X      HAL2     0.900000E-01   1.00800           0
     32119 MEMB     277      POPE     H7Y      HAL2     0.900000E-01   1.00800           0
     32120 MEMB     277      POPE     C38      CTL2    -0.180000       12.0110           0
     32121 MEMB     277      POPE     H8X      HAL2     0.900000E-01   1.00800           0
     32122 MEMB     277      POPE     H8Y      HAL2     0.900000E-01   1.00800           0
     32123 MEMB     277      POPE     C39      CTL2    -0.180000       12.0110           0
     32124 MEMB     277      POPE     H9X      HAL2     0.900000E-01   1.00800           0
     32125 MEMB     277      POPE     H9Y      HAL2     0.900000E-01   1.00800           0
     32126 MEMB     277      POPE     C310     CTL2    -0.180000       12.0110           0
     32127 MEMB     277      POPE     H10X     HAL2     0.900000E-01   1.00800           0
     32128 MEMB     277      POPE     H10Y     HAL2     0.900000E-01   1.00800           0
     32129 MEMB     277      POPE     C311     CTL2    -0.180000       12.0110           0
     32130 MEMB     277      POPE     H11X     HAL2     0.900000E-01   1.00800           0
     32131 MEMB     277      POPE     H11Y     HAL2     0.900000E-01   1.00800           0
     32132 MEMB     277      POPE     C312     CTL2    -0.180000       12.0110           0
     32133 MEMB     277      POPE     H12X     HAL2     0.900000E-01   1.00800           0
     32134 MEMB     277      POPE     H12Y     HAL2     0.900000E-01   1.00800           0
     32135 MEMB     277      POPE     C313     CTL2    -0.180000       12.0110           0
     32136 MEMB     277      POPE     H13X     HAL2     0.900000E-01   1.00800           0
     32137 MEMB     277      POPE     H13Y     HAL2     0.900000E-01   1.00800           0
     32138 MEMB     277      POPE     C314     CTL2    -0.180000       12.0110           0
     32139 MEMB     277      POPE     H14X     HAL2     0.900000E-01   1.00800           0
     32140 MEMB     277      POPE     H14Y     HAL2     0.900000E-01   1.00800           0
     32141 MEMB     277      POPE     C315     CTL2    -0.180000       12.0110           0
     32142 MEMB     277      POPE     H15X     HAL2     0.900000E-01   1.00800           0
     32143 MEMB     277      POPE     H15Y     HAL2     0.900000E-01   1.00800           0
     32144 MEMB     277      POPE     C316     CTL3    -0.270000       12.0110           0
     32145 MEMB     277      POPE     H16X     HAL3     0.900000E-01   1.00800           0
     32146 MEMB     277      POPE     H16Y     HAL3     0.900000E-01   1.00800           0
     32147 MEMB     277      POPE     H16Z     HAL3     0.900000E-01   1.00800           0
     32148 MEMB     278      POPC     N        NTL     -0.600000       14.0070           0
     32149 MEMB     278      POPC     C12      CTL2    -0.100000       12.0110           0
     32150 MEMB     278      POPC     H12A     HL       0.250000       1.00800           0
     32151 MEMB     278      POPC     H12B     HL       0.250000       1.00800           0
     32152 MEMB     278      POPC     C13      CTL5    -0.350000       12.0110           0
     32153 MEMB     278      POPC     H13A     HL       0.250000       1.00800           0
     32154 MEMB     278      POPC     H13B     HL       0.250000       1.00800           0
     32155 MEMB     278      POPC     H13C     HL       0.250000       1.00800           0
     32156 MEMB     278      POPC     C14      CTL5    -0.350000       12.0110           0
     32157 MEMB     278      POPC     H14A     HL       0.250000       1.00800           0
     32158 MEMB     278      POPC     H14B     HL       0.250000       1.00800           0
     32159 MEMB     278      POPC     H14C     HL       0.250000       1.00800           0
     32160 MEMB     278      POPC     C15      CTL5    -0.350000       12.0110           0
     32161 MEMB     278      POPC     H15A     HL       0.250000       1.00800           0
     32162 MEMB     278      POPC     H15B     HL       0.250000       1.00800           0
     32163 MEMB     278      POPC     H15C     HL       0.250000       1.00800           0
     32164 MEMB     278      POPC     C11      CTL2    -0.800000E-01   12.0110           0
     32165 MEMB     278      POPC     H11A     HAL2     0.900000E-01   1.00800           0
     32166 MEMB     278      POPC     H11B     HAL2     0.900000E-01   1.00800           0
     32167 MEMB     278      POPC     P        PL        1.50000       30.9740           0
     32168 MEMB     278      POPC     O13      O2L     -0.780000       15.9994           0
     32169 MEMB     278      POPC     O14      O2L     -0.780000       15.9994           0
     32170 MEMB     278      POPC     O12      OSLP    -0.570000       15.9994           0
     32171 MEMB     278      POPC     O11      OSLP    -0.570000       15.9994           0
     32172 MEMB     278      POPC     C1       CTL2    -0.800000E-01   12.0110           0
     32173 MEMB     278      POPC     HA       HAL2     0.900000E-01   1.00800           0
     32174 MEMB     278      POPC     HB       HAL2     0.900000E-01   1.00800           0
     32175 MEMB     278      POPC     C2       CTL1     0.170000       12.0110           0
     32176 MEMB     278      POPC     HS       HAL1     0.900000E-01   1.00800           0
     32177 MEMB     278      POPC     O21      OSL     -0.490000       15.9994           0
     32178 MEMB     278      POPC     C21      CL       0.900000       12.0110           0
     32179 MEMB     278      POPC     O22      OBL     -0.630000       15.9994           0
     32180 MEMB     278      POPC     C22      CTL2    -0.220000       12.0110           0
     32181 MEMB     278      POPC     H2R      HAL2     0.900000E-01   1.00800           0
     32182 MEMB     278      POPC     H2S      HAL2     0.900000E-01   1.00800           0
     32183 MEMB     278      POPC     C3       CTL2     0.800000E-01   12.0110           0
     32184 MEMB     278      POPC     HX       HAL2     0.900000E-01   1.00800           0
     32185 MEMB     278      POPC     HY       HAL2     0.900000E-01   1.00800           0
     32186 MEMB     278      POPC     O31      OSL     -0.490000       15.9994           0
     32187 MEMB     278      POPC     C31      CL       0.900000       12.0110           0
     32188 MEMB     278      POPC     O32      OBL     -0.630000       15.9994           0
     32189 MEMB     278      POPC     C32      CTL2    -0.220000       12.0110           0
     32190 MEMB     278      POPC     H2X      HAL2     0.900000E-01   1.00800           0
     32191 MEMB     278      POPC     H2Y      HAL2     0.900000E-01   1.00800           0
     32192 MEMB     278      POPC     C23      CTL2    -0.180000       12.0110           0
     32193 MEMB     278      POPC     H3R      HAL2     0.900000E-01   1.00800           0
     32194 MEMB     278      POPC     H3S      HAL2     0.900000E-01   1.00800           0
     32195 MEMB     278      POPC     C24      CTL2    -0.180000       12.0110           0
     32196 MEMB     278      POPC     H4R      HAL2     0.900000E-01   1.00800           0
     32197 MEMB     278      POPC     H4S      HAL2     0.900000E-01   1.00800           0
     32198 MEMB     278      POPC     C25      CTL2    -0.180000       12.0110           0
     32199 MEMB     278      POPC     H5R      HAL2     0.900000E-01   1.00800           0
     32200 MEMB     278      POPC     H5S      HAL2     0.900000E-01   1.00800           0
     32201 MEMB     278      POPC     C26      CTL2    -0.180000       12.0110           0
     32202 MEMB     278      POPC     H6R      HAL2     0.900000E-01   1.00800           0
     32203 MEMB     278      POPC     H6S      HAL2     0.900000E-01   1.00800           0
     32204 MEMB     278      POPC     C27      CTL2    -0.180000       12.0110           0
     32205 MEMB     278      POPC     H7R      HAL2     0.900000E-01   1.00800           0
     32206 MEMB     278      POPC     H7S      HAL2     0.900000E-01   1.00800           0
     32207 MEMB     278      POPC     C28      CTL2    -0.180000       12.0110           0
     32208 MEMB     278      POPC     H8R      HAL2     0.900000E-01   1.00800           0
     32209 MEMB     278      POPC     H8S      HAL2     0.900000E-01   1.00800           0
     32210 MEMB     278      POPC     C29      CEL1    -0.150000       12.0110           0
     32211 MEMB     278      POPC     H91      HEL1     0.150000       1.00800           0
     32212 MEMB     278      POPC     C210     CEL1    -0.150000       12.0110           0
     32213 MEMB     278      POPC     H101     HEL1     0.150000       1.00800           0
     32214 MEMB     278      POPC     C211     CTL2    -0.180000       12.0110           0
     32215 MEMB     278      POPC     H11R     HAL2     0.900000E-01   1.00800           0
     32216 MEMB     278      POPC     H11S     HAL2     0.900000E-01   1.00800           0
     32217 MEMB     278      POPC     C212     CTL2    -0.180000       12.0110           0
     32218 MEMB     278      POPC     H12R     HAL2     0.900000E-01   1.00800           0
     32219 MEMB     278      POPC     H12S     HAL2     0.900000E-01   1.00800           0
     32220 MEMB     278      POPC     C213     CTL2    -0.180000       12.0110           0
     32221 MEMB     278      POPC     H13R     HAL2     0.900000E-01   1.00800           0
     32222 MEMB     278      POPC     H13S     HAL2     0.900000E-01   1.00800           0
     32223 MEMB     278      POPC     C214     CTL2    -0.180000       12.0110           0
     32224 MEMB     278      POPC     H14R     HAL2     0.900000E-01   1.00800           0
     32225 MEMB     278      POPC     H14S     HAL2     0.900000E-01   1.00800           0
     32226 MEMB     278      POPC     C215     CTL2    -0.180000       12.0110           0
     32227 MEMB     278      POPC     H15R     HAL2     0.900000E-01   1.00800           0
     32228 MEMB     278      POPC     H15S     HAL2     0.900000E-01   1.00800           0
     32229 MEMB     278      POPC     C216     CTL2    -0.180000       12.0110           0
     32230 MEMB     278      POPC     H16R     HAL2     0.900000E-01   1.00800           0
     32231 MEMB     278      POPC     H16S     HAL2     0.900000E-01   1.00800           0
     32232 MEMB     278      POPC     C217     CTL2    -0.180000       12.0110           0
     32233 MEMB     278      POPC     H17R     HAL2     0.900000E-01   1.00800           0
     32234 MEMB     278      POPC     H17S     HAL2     0.900000E-01   1.00800           0
     32235 MEMB     278      POPC     C218     CTL3    -0.270000       12.0110           0
     32236 MEMB     278      POPC     H18R     HAL3     0.900000E-01   1.00800           0
     32237 MEMB     278      POPC     H18S     HAL3     0.900000E-01   1.00800           0
     32238 MEMB     278      POPC     H18T     HAL3     0.900000E-01   1.00800           0
     32239 MEMB     278      POPC     C33      CTL2    -0.180000       12.0110           0
     32240 MEMB     278      POPC     H3X      HAL2     0.900000E-01   1.00800           0
     32241 MEMB     278      POPC     H3Y      HAL2     0.900000E-01   1.00800           0
     32242 MEMB     278      POPC     C34      CTL2    -0.180000       12.0110           0
     32243 MEMB     278      POPC     H4X      HAL2     0.900000E-01   1.00800           0
     32244 MEMB     278      POPC     H4Y      HAL2     0.900000E-01   1.00800           0
     32245 MEMB     278      POPC     C35      CTL2    -0.180000       12.0110           0
     32246 MEMB     278      POPC     H5X      HAL2     0.900000E-01   1.00800           0
     32247 MEMB     278      POPC     H5Y      HAL2     0.900000E-01   1.00800           0
     32248 MEMB     278      POPC     C36      CTL2    -0.180000       12.0110           0
     32249 MEMB     278      POPC     H6X      HAL2     0.900000E-01   1.00800           0
     32250 MEMB     278      POPC     H6Y      HAL2     0.900000E-01   1.00800           0
     32251 MEMB     278      POPC     C37      CTL2    -0.180000       12.0110           0
     32252 MEMB     278      POPC     H7X      HAL2     0.900000E-01   1.00800           0
     32253 MEMB     278      POPC     H7Y      HAL2     0.900000E-01   1.00800           0
     32254 MEMB     278      POPC     C38      CTL2    -0.180000       12.0110           0
     32255 MEMB     278      POPC     H8X      HAL2     0.900000E-01   1.00800           0
     32256 MEMB     278      POPC     H8Y      HAL2     0.900000E-01   1.00800           0
     32257 MEMB     278      POPC     C39      CTL2    -0.180000       12.0110           0
     32258 MEMB     278      POPC     H9X      HAL2     0.900000E-01   1.00800           0
     32259 MEMB     278      POPC     H9Y      HAL2     0.900000E-01   1.00800           0
     32260 MEMB     278      POPC     C310     CTL2    -0.180000       12.0110           0
     32261 MEMB     278      POPC     H10X     HAL2     0.900000E-01   1.00800           0
     32262 MEMB     278      POPC     H10Y     HAL2     0.900000E-01   1.00800           0
     32263 MEMB     278      POPC     C311     CTL2    -0.180000       12.0110           0
     32264 MEMB     278      POPC     H11X     HAL2     0.900000E-01   1.00800           0
     32265 MEMB     278      POPC     H11Y     HAL2     0.900000E-01   1.00800           0
     32266 MEMB     278      POPC     C312     CTL2    -0.180000       12.0110           0
     32267 MEMB     278      POPC     H12X     HAL2     0.900000E-01   1.00800           0
     32268 MEMB     278      POPC     H12Y     HAL2     0.900000E-01   1.00800           0
     32269 MEMB     278      POPC     C313     CTL2    -0.180000       12.0110           0
     32270 MEMB     278      POPC     H13X     HAL2     0.900000E-01   1.00800           0
     32271 MEMB     278      POPC     H13Y     HAL2     0.900000E-01   1.00800           0
     32272 MEMB     278      POPC     C314     CTL2    -0.180000       12.0110           0
     32273 MEMB     278      POPC     H14X     HAL2     0.900000E-01   1.00800           0
     32274 MEMB     278      POPC     H14Y     HAL2     0.900000E-01   1.00800           0
     32275 MEMB     278      POPC     C315     CTL2    -0.180000       12.0110           0
     32276 MEMB     278      POPC     H15X     HAL2     0.900000E-01   1.00800           0
     32277 MEMB     278      POPC     H15Y     HAL2     0.900000E-01   1.00800           0
     32278 MEMB     278      POPC     C316     CTL3    -0.270000       12.0110           0
     32279 MEMB     278      POPC     H16X     HAL3     0.900000E-01   1.00800           0
     32280 MEMB     278      POPC     H16Y     HAL3     0.900000E-01   1.00800           0
     32281 MEMB     278      POPC     H16Z     HAL3     0.900000E-01   1.00800           0
     32282 MEMB     279      POPE     N        NH3L    -0.300000       14.0070           0
     32283 MEMB     279      POPE     HN1      HCL      0.330000       1.00800           0
     32284 MEMB     279      POPE     HN2      HCL      0.330000       1.00800           0
     32285 MEMB     279      POPE     HN3      HCL      0.330000       1.00800           0
     32286 MEMB     279      POPE     C12      CTL2     0.130000       12.0110           0
     32287 MEMB     279      POPE     H12A     HAL2     0.900000E-01   1.00800           0
     32288 MEMB     279      POPE     H12B     HAL2     0.900000E-01   1.00800           0
     32289 MEMB     279      POPE     C11      CTL2    -0.800000E-01   12.0110           0
     32290 MEMB     279      POPE     H11A     HAL2     0.900000E-01   1.00800           0
     32291 MEMB     279      POPE     H11B     HAL2     0.900000E-01   1.00800           0
     32292 MEMB     279      POPE     P        PL        1.50000       30.9740           0
     32293 MEMB     279      POPE     O13      O2L     -0.780000       15.9994           0
     32294 MEMB     279      POPE     O14      O2L     -0.780000       15.9994           0
     32295 MEMB     279      POPE     O11      OSLP    -0.570000       15.9994           0
     32296 MEMB     279      POPE     O12      OSLP    -0.570000       15.9994           0
     32297 MEMB     279      POPE     C1       CTL2    -0.800000E-01   12.0110           0
     32298 MEMB     279      POPE     HA       HAL2     0.900000E-01   1.00800           0
     32299 MEMB     279      POPE     HB       HAL2     0.900000E-01   1.00800           0
     32300 MEMB     279      POPE     C2       CTL1     0.170000       12.0110           0
     32301 MEMB     279      POPE     HS       HAL1     0.900000E-01   1.00800           0
     32302 MEMB     279      POPE     O21      OSL     -0.490000       15.9994           0
     32303 MEMB     279      POPE     C21      CL       0.900000       12.0110           0
     32304 MEMB     279      POPE     O22      OBL     -0.630000       15.9994           0
     32305 MEMB     279      POPE     C22      CTL2    -0.220000       12.0110           0
     32306 MEMB     279      POPE     H2R      HAL2     0.900000E-01   1.00800           0
     32307 MEMB     279      POPE     H2S      HAL2     0.900000E-01   1.00800           0
     32308 MEMB     279      POPE     C3       CTL2     0.800000E-01   12.0110           0
     32309 MEMB     279      POPE     HX       HAL2     0.900000E-01   1.00800           0
     32310 MEMB     279      POPE     HY       HAL2     0.900000E-01   1.00800           0
     32311 MEMB     279      POPE     O31      OSL     -0.490000       15.9994           0
     32312 MEMB     279      POPE     C31      CL       0.900000       12.0110           0
     32313 MEMB     279      POPE     O32      OBL     -0.630000       15.9994           0
     32314 MEMB     279      POPE     C32      CTL2    -0.220000       12.0110           0
     32315 MEMB     279      POPE     H2X      HAL2     0.900000E-01   1.00800           0
     32316 MEMB     279      POPE     H2Y      HAL2     0.900000E-01   1.00800           0
     32317 MEMB     279      POPE     C23      CTL2    -0.180000       12.0110           0
     32318 MEMB     279      POPE     H3R      HAL2     0.900000E-01   1.00800           0
     32319 MEMB     279      POPE     H3S      HAL2     0.900000E-01   1.00800           0
     32320 MEMB     279      POPE     C24      CTL2    -0.180000       12.0110           0
     32321 MEMB     279      POPE     H4R      HAL2     0.900000E-01   1.00800           0
     32322 MEMB     279      POPE     H4S      HAL2     0.900000E-01   1.00800           0
     32323 MEMB     279      POPE     C25      CTL2    -0.180000       12.0110           0
     32324 MEMB     279      POPE     H5R      HAL2     0.900000E-01   1.00800           0
     32325 MEMB     279      POPE     H5S      HAL2     0.900000E-01   1.00800           0
     32326 MEMB     279      POPE     C26      CTL2    -0.180000       12.0110           0
     32327 MEMB     279      POPE     H6R      HAL2     0.900000E-01   1.00800           0
     32328 MEMB     279      POPE     H6S      HAL2     0.900000E-01   1.00800           0
     32329 MEMB     279      POPE     C27      CTL2    -0.180000       12.0110           0
     32330 MEMB     279      POPE     H7R      HAL2     0.900000E-01   1.00800           0
     32331 MEMB     279      POPE     H7S      HAL2     0.900000E-01   1.00800           0
     32332 MEMB     279      POPE     C28      CTL2    -0.180000       12.0110           0
     32333 MEMB     279      POPE     H8R      HAL2     0.900000E-01   1.00800           0
     32334 MEMB     279      POPE     H8S      HAL2     0.900000E-01   1.00800           0
     32335 MEMB     279      POPE     C29      CEL1    -0.150000       12.0110           0
     32336 MEMB     279      POPE     H91      HEL1     0.150000       1.00800           0
     32337 MEMB     279      POPE     C210     CEL1    -0.150000       12.0110           0
     32338 MEMB     279      POPE     H101     HEL1     0.150000       1.00800           0
     32339 MEMB     279      POPE     C211     CTL2    -0.180000       12.0110           0
     32340 MEMB     279      POPE     H11R     HAL2     0.900000E-01   1.00800           0
     32341 MEMB     279      POPE     H11S     HAL2     0.900000E-01   1.00800           0
     32342 MEMB     279      POPE     C212     CTL2    -0.180000       12.0110           0
     32343 MEMB     279      POPE     H12R     HAL2     0.900000E-01   1.00800           0
     32344 MEMB     279      POPE     H12S     HAL2     0.900000E-01   1.00800           0
     32345 MEMB     279      POPE     C213     CTL2    -0.180000       12.0110           0
     32346 MEMB     279      POPE     H13R     HAL2     0.900000E-01   1.00800           0
     32347 MEMB     279      POPE     H13S     HAL2     0.900000E-01   1.00800           0
     32348 MEMB     279      POPE     C214     CTL2    -0.180000       12.0110           0
     32349 MEMB     279      POPE     H14R     HAL2     0.900000E-01   1.00800           0
     32350 MEMB     279      POPE     H14S     HAL2     0.900000E-01   1.00800           0
     32351 MEMB     279      POPE     C215     CTL2    -0.180000       12.0110           0
     32352 MEMB     279      POPE     H15R     HAL2     0.900000E-01   1.00800           0
     32353 MEMB     279      POPE     H15S     HAL2     0.900000E-01   1.00800           0
     32354 MEMB     279      POPE     C216     CTL2    -0.180000       12.0110           0
     32355 MEMB     279      POPE     H16R     HAL2     0.900000E-01   1.00800           0
     32356 MEMB     279      POPE     H16S     HAL2     0.900000E-01   1.00800           0
     32357 MEMB     279      POPE     C217     CTL2    -0.180000       12.0110           0
     32358 MEMB     279      POPE     H17R     HAL2     0.900000E-01   1.00800           0
     32359 MEMB     279      POPE     H17S     HAL2     0.900000E-01   1.00800           0
     32360 MEMB     279      POPE     C218     CTL3    -0.270000       12.0110           0
     32361 MEMB     279      POPE     H18R     HAL3     0.900000E-01   1.00800           0
     32362 MEMB     279      POPE     H18S     HAL3     0.900000E-01   1.00800           0
     32363 MEMB     279      POPE     H18T     HAL3     0.900000E-01   1.00800           0
     32364 MEMB     279      POPE     C33      CTL2    -0.180000       12.0110           0
     32365 MEMB     279      POPE     H3X      HAL2     0.900000E-01   1.00800           0
     32366 MEMB     279      POPE     H3Y      HAL2     0.900000E-01   1.00800           0
     32367 MEMB     279      POPE     C34      CTL2    -0.180000       12.0110           0
     32368 MEMB     279      POPE     H4X      HAL2     0.900000E-01   1.00800           0
     32369 MEMB     279      POPE     H4Y      HAL2     0.900000E-01   1.00800           0
     32370 MEMB     279      POPE     C35      CTL2    -0.180000       12.0110           0
     32371 MEMB     279      POPE     H5X      HAL2     0.900000E-01   1.00800           0
     32372 MEMB     279      POPE     H5Y      HAL2     0.900000E-01   1.00800           0
     32373 MEMB     279      POPE     C36      CTL2    -0.180000       12.0110           0
     32374 MEMB     279      POPE     H6X      HAL2     0.900000E-01   1.00800           0
     32375 MEMB     279      POPE     H6Y      HAL2     0.900000E-01   1.00800           0
     32376 MEMB     279      POPE     C37      CTL2    -0.180000       12.0110           0
     32377 MEMB     279      POPE     H7X      HAL2     0.900000E-01   1.00800           0
     32378 MEMB     279      POPE     H7Y      HAL2     0.900000E-01   1.00800           0
     32379 MEMB     279      POPE     C38      CTL2    -0.180000       12.0110           0
     32380 MEMB     279      POPE     H8X      HAL2     0.900000E-01   1.00800           0
     32381 MEMB     279      POPE     H8Y      HAL2     0.900000E-01   1.00800           0
     32382 MEMB     279      POPE     C39      CTL2    -0.180000       12.0110           0
     32383 MEMB     279      POPE     H9X      HAL2     0.900000E-01   1.00800           0
     32384 MEMB     279      POPE     H9Y      HAL2     0.900000E-01   1.00800           0
     32385 MEMB     279      POPE     C310     CTL2    -0.180000       12.0110           0
     32386 MEMB     279      POPE     H10X     HAL2     0.900000E-01   1.00800           0
     32387 MEMB     279      POPE     H10Y     HAL2     0.900000E-01   1.00800           0
     32388 MEMB     279      POPE     C311     CTL2    -0.180000       12.0110           0
     32389 MEMB     279      POPE     H11X     HAL2     0.900000E-01   1.00800           0
     32390 MEMB     279      POPE     H11Y     HAL2     0.900000E-01   1.00800           0
     32391 MEMB     279      POPE     C312     CTL2    -0.180000       12.0110           0
     32392 MEMB     279      POPE     H12X     HAL2     0.900000E-01   1.00800           0
     32393 MEMB     279      POPE     H12Y     HAL2     0.900000E-01   1.00800           0
     32394 MEMB     279      POPE     C313     CTL2    -0.180000       12.0110           0
     32395 MEMB     279      POPE     H13X     HAL2     0.900000E-01   1.00800           0
     32396 MEMB     279      POPE     H13Y     HAL2     0.900000E-01   1.00800           0
     32397 MEMB     279      POPE     C314     CTL2    -0.180000       12.0110           0
     32398 MEMB     279      POPE     H14X     HAL2     0.900000E-01   1.00800           0
     32399 MEMB     279      POPE     H14Y     HAL2     0.900000E-01   1.00800           0
     32400 MEMB     279      POPE     C315     CTL2    -0.180000       12.0110           0
     32401 MEMB     279      POPE     H15X     HAL2     0.900000E-01   1.00800           0
     32402 MEMB     279      POPE     H15Y     HAL2     0.900000E-01   1.00800           0
     32403 MEMB     279      POPE     C316     CTL3    -0.270000       12.0110           0
     32404 MEMB     279      POPE     H16X     HAL3     0.900000E-01   1.00800           0
     32405 MEMB     279      POPE     H16Y     HAL3     0.900000E-01   1.00800           0
     32406 MEMB     279      POPE     H16Z     HAL3     0.900000E-01   1.00800           0
     32407 MEMB     280      POPE     N        NH3L    -0.300000       14.0070           0
     32408 MEMB     280      POPE     HN1      HCL      0.330000       1.00800           0
     32409 MEMB     280      POPE     HN2      HCL      0.330000       1.00800           0
     32410 MEMB     280      POPE     HN3      HCL      0.330000       1.00800           0
     32411 MEMB     280      POPE     C12      CTL2     0.130000       12.0110           0
     32412 MEMB     280      POPE     H12A     HAL2     0.900000E-01   1.00800           0
     32413 MEMB     280      POPE     H12B     HAL2     0.900000E-01   1.00800           0
     32414 MEMB     280      POPE     C11      CTL2    -0.800000E-01   12.0110           0
     32415 MEMB     280      POPE     H11A     HAL2     0.900000E-01   1.00800           0
     32416 MEMB     280      POPE     H11B     HAL2     0.900000E-01   1.00800           0
     32417 MEMB     280      POPE     P        PL        1.50000       30.9740           0
     32418 MEMB     280      POPE     O13      O2L     -0.780000       15.9994           0
     32419 MEMB     280      POPE     O14      O2L     -0.780000       15.9994           0
     32420 MEMB     280      POPE     O11      OSLP    -0.570000       15.9994           0
     32421 MEMB     280      POPE     O12      OSLP    -0.570000       15.9994           0
     32422 MEMB     280      POPE     C1       CTL2    -0.800000E-01   12.0110           0
     32423 MEMB     280      POPE     HA       HAL2     0.900000E-01   1.00800           0
     32424 MEMB     280      POPE     HB       HAL2     0.900000E-01   1.00800           0
     32425 MEMB     280      POPE     C2       CTL1     0.170000       12.0110           0
     32426 MEMB     280      POPE     HS       HAL1     0.900000E-01   1.00800           0
     32427 MEMB     280      POPE     O21      OSL     -0.490000       15.9994           0
     32428 MEMB     280      POPE     C21      CL       0.900000       12.0110           0
     32429 MEMB     280      POPE     O22      OBL     -0.630000       15.9994           0
     32430 MEMB     280      POPE     C22      CTL2    -0.220000       12.0110           0
     32431 MEMB     280      POPE     H2R      HAL2     0.900000E-01   1.00800           0
     32432 MEMB     280      POPE     H2S      HAL2     0.900000E-01   1.00800           0
     32433 MEMB     280      POPE     C3       CTL2     0.800000E-01   12.0110           0
     32434 MEMB     280      POPE     HX       HAL2     0.900000E-01   1.00800           0
     32435 MEMB     280      POPE     HY       HAL2     0.900000E-01   1.00800           0
     32436 MEMB     280      POPE     O31      OSL     -0.490000       15.9994           0
     32437 MEMB     280      POPE     C31      CL       0.900000       12.0110           0
     32438 MEMB     280      POPE     O32      OBL     -0.630000       15.9994           0
     32439 MEMB     280      POPE     C32      CTL2    -0.220000       12.0110           0
     32440 MEMB     280      POPE     H2X      HAL2     0.900000E-01   1.00800           0
     32441 MEMB     280      POPE     H2Y      HAL2     0.900000E-01   1.00800           0
     32442 MEMB     280      POPE     C23      CTL2    -0.180000       12.0110           0
     32443 MEMB     280      POPE     H3R      HAL2     0.900000E-01   1.00800           0
     32444 MEMB     280      POPE     H3S      HAL2     0.900000E-01   1.00800           0
     32445 MEMB     280      POPE     C24      CTL2    -0.180000       12.0110           0
     32446 MEMB     280      POPE     H4R      HAL2     0.900000E-01   1.00800           0
     32447 MEMB     280      POPE     H4S      HAL2     0.900000E-01   1.00800           0
     32448 MEMB     280      POPE     C25      CTL2    -0.180000       12.0110           0
     32449 MEMB     280      POPE     H5R      HAL2     0.900000E-01   1.00800           0
     32450 MEMB     280      POPE     H5S      HAL2     0.900000E-01   1.00800           0
     32451 MEMB     280      POPE     C26      CTL2    -0.180000       12.0110           0
     32452 MEMB     280      POPE     H6R      HAL2     0.900000E-01   1.00800           0
     32453 MEMB     280      POPE     H6S      HAL2     0.900000E-01   1.00800           0
     32454 MEMB     280      POPE     C27      CTL2    -0.180000       12.0110           0
     32455 MEMB     280      POPE     H7R      HAL2     0.900000E-01   1.00800           0
     32456 MEMB     280      POPE     H7S      HAL2     0.900000E-01   1.00800           0
     32457 MEMB     280      POPE     C28      CTL2    -0.180000       12.0110           0
     32458 MEMB     280      POPE     H8R      HAL2     0.900000E-01   1.00800           0
     32459 MEMB     280      POPE     H8S      HAL2     0.900000E-01   1.00800           0
     32460 MEMB     280      POPE     C29      CEL1    -0.150000       12.0110           0
     32461 MEMB     280      POPE     H91      HEL1     0.150000       1.00800           0
     32462 MEMB     280      POPE     C210     CEL1    -0.150000       12.0110           0
     32463 MEMB     280      POPE     H101     HEL1     0.150000       1.00800           0
     32464 MEMB     280      POPE     C211     CTL2    -0.180000       12.0110           0
     32465 MEMB     280      POPE     H11R     HAL2     0.900000E-01   1.00800           0
     32466 MEMB     280      POPE     H11S     HAL2     0.900000E-01   1.00800           0
     32467 MEMB     280      POPE     C212     CTL2    -0.180000       12.0110           0
     32468 MEMB     280      POPE     H12R     HAL2     0.900000E-01   1.00800           0
     32469 MEMB     280      POPE     H12S     HAL2     0.900000E-01   1.00800           0
     32470 MEMB     280      POPE     C213     CTL2    -0.180000       12.0110           0
     32471 MEMB     280      POPE     H13R     HAL2     0.900000E-01   1.00800           0
     32472 MEMB     280      POPE     H13S     HAL2     0.900000E-01   1.00800           0
     32473 MEMB     280      POPE     C214     CTL2    -0.180000       12.0110           0
     32474 MEMB     280      POPE     H14R     HAL2     0.900000E-01   1.00800           0
     32475 MEMB     280      POPE     H14S     HAL2     0.900000E-01   1.00800           0
     32476 MEMB     280      POPE     C215     CTL2    -0.180000       12.0110           0
     32477 MEMB     280      POPE     H15R     HAL2     0.900000E-01   1.00800           0
     32478 MEMB     280      POPE     H15S     HAL2     0.900000E-01   1.00800           0
     32479 MEMB     280      POPE     C216     CTL2    -0.180000       12.0110           0
     32480 MEMB     280      POPE     H16R     HAL2     0.900000E-01   1.00800           0
     32481 MEMB     280      POPE     H16S     HAL2     0.900000E-01   1.00800           0
     32482 MEMB     280      POPE     C217     CTL2    -0.180000       12.0110           0
     32483 MEMB     280      POPE     H17R     HAL2     0.900000E-01   1.00800           0
     32484 MEMB     280      POPE     H17S     HAL2     0.900000E-01   1.00800           0
     32485 MEMB     280      POPE     C218     CTL3    -0.270000       12.0110           0
     32486 MEMB     280      POPE     H18R     HAL3     0.900000E-01   1.00800           0
     32487 MEMB     280      POPE     H18S     HAL3     0.900000E-01   1.00800           0
     32488 MEMB     280      POPE     H18T     HAL3     0.900000E-01   1.00800           0
     32489 MEMB     280      POPE     C33      CTL2    -0.180000       12.0110           0
     32490 MEMB     280      POPE     H3X      HAL2     0.900000E-01   1.00800           0
     32491 MEMB     280      POPE     H3Y      HAL2     0.900000E-01   1.00800           0
     32492 MEMB     280      POPE     C34      CTL2    -0.180000       12.0110           0
     32493 MEMB     280      POPE     H4X      HAL2     0.900000E-01   1.00800           0
     32494 MEMB     280      POPE     H4Y      HAL2     0.900000E-01   1.00800           0
     32495 MEMB     280      POPE     C35      CTL2    -0.180000       12.0110           0
     32496 MEMB     280      POPE     H5X      HAL2     0.900000E-01   1.00800           0
     32497 MEMB     280      POPE     H5Y      HAL2     0.900000E-01   1.00800           0
     32498 MEMB     280      POPE     C36      CTL2    -0.180000       12.0110           0
     32499 MEMB     280      POPE     H6X      HAL2     0.900000E-01   1.00800           0
     32500 MEMB     280      POPE     H6Y      HAL2     0.900000E-01   1.00800           0
     32501 MEMB     280      POPE     C37      CTL2    -0.180000       12.0110           0
     32502 MEMB     280      POPE     H7X      HAL2     0.900000E-01   1.00800           0
     32503 MEMB     280      POPE     H7Y      HAL2     0.900000E-01   1.00800           0
     32504 MEMB     280      POPE     C38      CTL2    -0.180000       12.0110           0
     32505 MEMB     280      POPE     H8X      HAL2     0.900000E-01   1.00800           0
     32506 MEMB     280      POPE     H8Y      HAL2     0.900000E-01   1.00800           0
     32507 MEMB     280      POPE     C39      CTL2    -0.180000       12.0110           0
     32508 MEMB     280      POPE     H9X      HAL2     0.900000E-01   1.00800           0
     32509 MEMB     280      POPE     H9Y      HAL2     0.900000E-01   1.00800           0
     32510 MEMB     280      POPE     C310     CTL2    -0.180000       12.0110           0
     32511 MEMB     280      POPE     H10X     HAL2     0.900000E-01   1.00800           0
     32512 MEMB     280      POPE     H10Y     HAL2     0.900000E-01   1.00800           0
     32513 MEMB     280      POPE     C311     CTL2    -0.180000       12.0110           0
     32514 MEMB     280      POPE     H11X     HAL2     0.900000E-01   1.00800           0
     32515 MEMB     280      POPE     H11Y     HAL2     0.900000E-01   1.00800           0
     32516 MEMB     280      POPE     C312     CTL2    -0.180000       12.0110           0
     32517 MEMB     280      POPE     H12X     HAL2     0.900000E-01   1.00800           0
     32518 MEMB     280      POPE     H12Y     HAL2     0.900000E-01   1.00800           0
     32519 MEMB     280      POPE     C313     CTL2    -0.180000       12.0110           0
     32520 MEMB     280      POPE     H13X     HAL2     0.900000E-01   1.00800           0
     32521 MEMB     280      POPE     H13Y     HAL2     0.900000E-01   1.00800           0
     32522 MEMB     280      POPE     C314     CTL2    -0.180000       12.0110           0
     32523 MEMB     280      POPE     H14X     HAL2     0.900000E-01   1.00800           0
     32524 MEMB     280      POPE     H14Y     HAL2     0.900000E-01   1.00800           0
     32525 MEMB     280      POPE     C315     CTL2    -0.180000       12.0110           0
     32526 MEMB     280      POPE     H15X     HAL2     0.900000E-01   1.00800           0
     32527 MEMB     280      POPE     H15Y     HAL2     0.900000E-01   1.00800           0
     32528 MEMB     280      POPE     C316     CTL3    -0.270000       12.0110           0
     32529 MEMB     280      POPE     H16X     HAL3     0.900000E-01   1.00800           0
     32530 MEMB     280      POPE     H16Y     HAL3     0.900000E-01   1.00800           0
     32531 MEMB     280      POPE     H16Z     HAL3     0.900000E-01   1.00800           0
     32532 MEMB     281      POPE     N        NH3L    -0.300000       14.0070           0
     32533 MEMB     281      POPE     HN1      HCL      0.330000       1.00800           0
     32534 MEMB     281      POPE     HN2      HCL      0.330000       1.00800           0
     32535 MEMB     281      POPE     HN3      HCL      0.330000       1.00800           0
     32536 MEMB     281      POPE     C12      CTL2     0.130000       12.0110           0
     32537 MEMB     281      POPE     H12A     HAL2     0.900000E-01   1.00800           0
     32538 MEMB     281      POPE     H12B     HAL2     0.900000E-01   1.00800           0
     32539 MEMB     281      POPE     C11      CTL2    -0.800000E-01   12.0110           0
     32540 MEMB     281      POPE     H11A     HAL2     0.900000E-01   1.00800           0
     32541 MEMB     281      POPE     H11B     HAL2     0.900000E-01   1.00800           0
     32542 MEMB     281      POPE     P        PL        1.50000       30.9740           0
     32543 MEMB     281      POPE     O13      O2L     -0.780000       15.9994           0
     32544 MEMB     281      POPE     O14      O2L     -0.780000       15.9994           0
     32545 MEMB     281      POPE     O11      OSLP    -0.570000       15.9994           0
     32546 MEMB     281      POPE     O12      OSLP    -0.570000       15.9994           0
     32547 MEMB     281      POPE     C1       CTL2    -0.800000E-01   12.0110           0
     32548 MEMB     281      POPE     HA       HAL2     0.900000E-01   1.00800           0
     32549 MEMB     281      POPE     HB       HAL2     0.900000E-01   1.00800           0
     32550 MEMB     281      POPE     C2       CTL1     0.170000       12.0110           0
     32551 MEMB     281      POPE     HS       HAL1     0.900000E-01   1.00800           0
     32552 MEMB     281      POPE     O21      OSL     -0.490000       15.9994           0
     32553 MEMB     281      POPE     C21      CL       0.900000       12.0110           0
     32554 MEMB     281      POPE     O22      OBL     -0.630000       15.9994           0
     32555 MEMB     281      POPE     C22      CTL2    -0.220000       12.0110           0
     32556 MEMB     281      POPE     H2R      HAL2     0.900000E-01   1.00800           0
     32557 MEMB     281      POPE     H2S      HAL2     0.900000E-01   1.00800           0
     32558 MEMB     281      POPE     C3       CTL2     0.800000E-01   12.0110           0
     32559 MEMB     281      POPE     HX       HAL2     0.900000E-01   1.00800           0
     32560 MEMB     281      POPE     HY       HAL2     0.900000E-01   1.00800           0
     32561 MEMB     281      POPE     O31      OSL     -0.490000       15.9994           0
     32562 MEMB     281      POPE     C31      CL       0.900000       12.0110           0
     32563 MEMB     281      POPE     O32      OBL     -0.630000       15.9994           0
     32564 MEMB     281      POPE     C32      CTL2    -0.220000       12.0110           0
     32565 MEMB     281      POPE     H2X      HAL2     0.900000E-01   1.00800           0
     32566 MEMB     281      POPE     H2Y      HAL2     0.900000E-01   1.00800           0
     32567 MEMB     281      POPE     C23      CTL2    -0.180000       12.0110           0
     32568 MEMB     281      POPE     H3R      HAL2     0.900000E-01   1.00800           0
     32569 MEMB     281      POPE     H3S      HAL2     0.900000E-01   1.00800           0
     32570 MEMB     281      POPE     C24      CTL2    -0.180000       12.0110           0
     32571 MEMB     281      POPE     H4R      HAL2     0.900000E-01   1.00800           0
     32572 MEMB     281      POPE     H4S      HAL2     0.900000E-01   1.00800           0
     32573 MEMB     281      POPE     C25      CTL2    -0.180000       12.0110           0
     32574 MEMB     281      POPE     H5R      HAL2     0.900000E-01   1.00800           0
     32575 MEMB     281      POPE     H5S      HAL2     0.900000E-01   1.00800           0
     32576 MEMB     281      POPE     C26      CTL2    -0.180000       12.0110           0
     32577 MEMB     281      POPE     H6R      HAL2     0.900000E-01   1.00800           0
     32578 MEMB     281      POPE     H6S      HAL2     0.900000E-01   1.00800           0
     32579 MEMB     281      POPE     C27      CTL2    -0.180000       12.0110           0
     32580 MEMB     281      POPE     H7R      HAL2     0.900000E-01   1.00800           0
     32581 MEMB     281      POPE     H7S      HAL2     0.900000E-01   1.00800           0
     32582 MEMB     281      POPE     C28      CTL2    -0.180000       12.0110           0
     32583 MEMB     281      POPE     H8R      HAL2     0.900000E-01   1.00800           0
     32584 MEMB     281      POPE     H8S      HAL2     0.900000E-01   1.00800           0
     32585 MEMB     281      POPE     C29      CEL1    -0.150000       12.0110           0
     32586 MEMB     281      POPE     H91      HEL1     0.150000       1.00800           0
     32587 MEMB     281      POPE     C210     CEL1    -0.150000       12.0110           0
     32588 MEMB     281      POPE     H101     HEL1     0.150000       1.00800           0
     32589 MEMB     281      POPE     C211     CTL2    -0.180000       12.0110           0
     32590 MEMB     281      POPE     H11R     HAL2     0.900000E-01   1.00800           0
     32591 MEMB     281      POPE     H11S     HAL2     0.900000E-01   1.00800           0
     32592 MEMB     281      POPE     C212     CTL2    -0.180000       12.0110           0
     32593 MEMB     281      POPE     H12R     HAL2     0.900000E-01   1.00800           0
     32594 MEMB     281      POPE     H12S     HAL2     0.900000E-01   1.00800           0
     32595 MEMB     281      POPE     C213     CTL2    -0.180000       12.0110           0
     32596 MEMB     281      POPE     H13R     HAL2     0.900000E-01   1.00800           0
     32597 MEMB     281      POPE     H13S     HAL2     0.900000E-01   1.00800           0
     32598 MEMB     281      POPE     C214     CTL2    -0.180000       12.0110           0
     32599 MEMB     281      POPE     H14R     HAL2     0.900000E-01   1.00800           0
     32600 MEMB     281      POPE     H14S     HAL2     0.900000E-01   1.00800           0
     32601 MEMB     281      POPE     C215     CTL2    -0.180000       12.0110           0
     32602 MEMB     281      POPE     H15R     HAL2     0.900000E-01   1.00800           0
     32603 MEMB     281      POPE     H15S     HAL2     0.900000E-01   1.00800           0
     32604 MEMB     281      POPE     C216     CTL2    -0.180000       12.0110           0
     32605 MEMB     281      POPE     H16R     HAL2     0.900000E-01   1.00800           0
     32606 MEMB     281      POPE     H16S     HAL2     0.900000E-01   1.00800           0
     32607 MEMB     281      POPE     C217     CTL2    -0.180000       12.0110           0
     32608 MEMB     281      POPE     H17R     HAL2     0.900000E-01   1.00800           0
     32609 MEMB     281      POPE     H17S     HAL2     0.900000E-01   1.00800           0
     32610 MEMB     281      POPE     C218     CTL3    -0.270000       12.0110           0
     32611 MEMB     281      POPE     H18R     HAL3     0.900000E-01   1.00800           0
     32612 MEMB     281      POPE     H18S     HAL3     0.900000E-01   1.00800           0
     32613 MEMB     281      POPE     H18T     HAL3     0.900000E-01   1.00800           0
     32614 MEMB     281      POPE     C33      CTL2    -0.180000       12.0110           0
     32615 MEMB     281      POPE     H3X      HAL2     0.900000E-01   1.00800           0
     32616 MEMB     281      POPE     H3Y      HAL2     0.900000E-01   1.00800           0
     32617 MEMB     281      POPE     C34      CTL2    -0.180000       12.0110           0
     32618 MEMB     281      POPE     H4X      HAL2     0.900000E-01   1.00800           0
     32619 MEMB     281      POPE     H4Y      HAL2     0.900000E-01   1.00800           0
     32620 MEMB     281      POPE     C35      CTL2    -0.180000       12.0110           0
     32621 MEMB     281      POPE     H5X      HAL2     0.900000E-01   1.00800           0
     32622 MEMB     281      POPE     H5Y      HAL2     0.900000E-01   1.00800           0
     32623 MEMB     281      POPE     C36      CTL2    -0.180000       12.0110           0
     32624 MEMB     281      POPE     H6X      HAL2     0.900000E-01   1.00800           0
     32625 MEMB     281      POPE     H6Y      HAL2     0.900000E-01   1.00800           0
     32626 MEMB     281      POPE     C37      CTL2    -0.180000       12.0110           0
     32627 MEMB     281      POPE     H7X      HAL2     0.900000E-01   1.00800           0
     32628 MEMB     281      POPE     H7Y      HAL2     0.900000E-01   1.00800           0
     32629 MEMB     281      POPE     C38      CTL2    -0.180000       12.0110           0
     32630 MEMB     281      POPE     H8X      HAL2     0.900000E-01   1.00800           0
     32631 MEMB     281      POPE     H8Y      HAL2     0.900000E-01   1.00800           0
     32632 MEMB     281      POPE     C39      CTL2    -0.180000       12.0110           0
     32633 MEMB     281      POPE     H9X      HAL2     0.900000E-01   1.00800           0
     32634 MEMB     281      POPE     H9Y      HAL2     0.900000E-01   1.00800           0
     32635 MEMB     281      POPE     C310     CTL2    -0.180000       12.0110           0
     32636 MEMB     281      POPE     H10X     HAL2     0.900000E-01   1.00800           0
     32637 MEMB     281      POPE     H10Y     HAL2     0.900000E-01   1.00800           0
     32638 MEMB     281      POPE     C311     CTL2    -0.180000       12.0110           0
     32639 MEMB     281      POPE     H11X     HAL2     0.900000E-01   1.00800           0
     32640 MEMB     281      POPE     H11Y     HAL2     0.900000E-01   1.00800           0
     32641 MEMB     281      POPE     C312     CTL2    -0.180000       12.0110           0
     32642 MEMB     281      POPE     H12X     HAL2     0.900000E-01   1.00800           0
     32643 MEMB     281      POPE     H12Y     HAL2     0.900000E-01   1.00800           0
     32644 MEMB     281      POPE     C313     CTL2    -0.180000       12.0110           0
     32645 MEMB     281      POPE     H13X     HAL2     0.900000E-01   1.00800           0
     32646 MEMB     281      POPE     H13Y     HAL2     0.900000E-01   1.00800           0
     32647 MEMB     281      POPE     C314     CTL2    -0.180000       12.0110           0
     32648 MEMB     281      POPE     H14X     HAL2     0.900000E-01   1.00800           0
     32649 MEMB     281      POPE     H14Y     HAL2     0.900000E-01   1.00800           0
     32650 MEMB     281      POPE     C315     CTL2    -0.180000       12.0110           0
     32651 MEMB     281      POPE     H15X     HAL2     0.900000E-01   1.00800           0
     32652 MEMB     281      POPE     H15Y     HAL2     0.900000E-01   1.00800           0
     32653 MEMB     281      POPE     C316     CTL3    -0.270000       12.0110           0
     32654 MEMB     281      POPE     H16X     HAL3     0.900000E-01   1.00800           0
     32655 MEMB     281      POPE     H16Y     HAL3     0.900000E-01   1.00800           0
     32656 MEMB     281      POPE     H16Z     HAL3     0.900000E-01   1.00800           0
     32657 MEMB     282      POPC     N        NTL     -0.600000       14.0070           0
     32658 MEMB     282      POPC     C12      CTL2    -0.100000       12.0110           0
     32659 MEMB     282      POPC     H12A     HL       0.250000       1.00800           0
     32660 MEMB     282      POPC     H12B     HL       0.250000       1.00800           0
     32661 MEMB     282      POPC     C13      CTL5    -0.350000       12.0110           0
     32662 MEMB     282      POPC     H13A     HL       0.250000       1.00800           0
     32663 MEMB     282      POPC     H13B     HL       0.250000       1.00800           0
     32664 MEMB     282      POPC     H13C     HL       0.250000       1.00800           0
     32665 MEMB     282      POPC     C14      CTL5    -0.350000       12.0110           0
     32666 MEMB     282      POPC     H14A     HL       0.250000       1.00800           0
     32667 MEMB     282      POPC     H14B     HL       0.250000       1.00800           0
     32668 MEMB     282      POPC     H14C     HL       0.250000       1.00800           0
     32669 MEMB     282      POPC     C15      CTL5    -0.350000       12.0110           0
     32670 MEMB     282      POPC     H15A     HL       0.250000       1.00800           0
     32671 MEMB     282      POPC     H15B     HL       0.250000       1.00800           0
     32672 MEMB     282      POPC     H15C     HL       0.250000       1.00800           0
     32673 MEMB     282      POPC     C11      CTL2    -0.800000E-01   12.0110           0
     32674 MEMB     282      POPC     H11A     HAL2     0.900000E-01   1.00800           0
     32675 MEMB     282      POPC     H11B     HAL2     0.900000E-01   1.00800           0
     32676 MEMB     282      POPC     P        PL        1.50000       30.9740           0
     32677 MEMB     282      POPC     O13      O2L     -0.780000       15.9994           0
     32678 MEMB     282      POPC     O14      O2L     -0.780000       15.9994           0
     32679 MEMB     282      POPC     O12      OSLP    -0.570000       15.9994           0
     32680 MEMB     282      POPC     O11      OSLP    -0.570000       15.9994           0
     32681 MEMB     282      POPC     C1       CTL2    -0.800000E-01   12.0110           0
     32682 MEMB     282      POPC     HA       HAL2     0.900000E-01   1.00800           0
     32683 MEMB     282      POPC     HB       HAL2     0.900000E-01   1.00800           0
     32684 MEMB     282      POPC     C2       CTL1     0.170000       12.0110           0
     32685 MEMB     282      POPC     HS       HAL1     0.900000E-01   1.00800           0
     32686 MEMB     282      POPC     O21      OSL     -0.490000       15.9994           0
     32687 MEMB     282      POPC     C21      CL       0.900000       12.0110           0
     32688 MEMB     282      POPC     O22      OBL     -0.630000       15.9994           0
     32689 MEMB     282      POPC     C22      CTL2    -0.220000       12.0110           0
     32690 MEMB     282      POPC     H2R      HAL2     0.900000E-01   1.00800           0
     32691 MEMB     282      POPC     H2S      HAL2     0.900000E-01   1.00800           0
     32692 MEMB     282      POPC     C3       CTL2     0.800000E-01   12.0110           0
     32693 MEMB     282      POPC     HX       HAL2     0.900000E-01   1.00800           0
     32694 MEMB     282      POPC     HY       HAL2     0.900000E-01   1.00800           0
     32695 MEMB     282      POPC     O31      OSL     -0.490000       15.9994           0
     32696 MEMB     282      POPC     C31      CL       0.900000       12.0110           0
     32697 MEMB     282      POPC     O32      OBL     -0.630000       15.9994           0
     32698 MEMB     282      POPC     C32      CTL2    -0.220000       12.0110           0
     32699 MEMB     282      POPC     H2X      HAL2     0.900000E-01   1.00800           0
     32700 MEMB     282      POPC     H2Y      HAL2     0.900000E-01   1.00800           0
     32701 MEMB     282      POPC     C23      CTL2    -0.180000       12.0110           0
     32702 MEMB     282      POPC     H3R      HAL2     0.900000E-01   1.00800           0
     32703 MEMB     282      POPC     H3S      HAL2     0.900000E-01   1.00800           0
     32704 MEMB     282      POPC     C24      CTL2    -0.180000       12.0110           0
     32705 MEMB     282      POPC     H4R      HAL2     0.900000E-01   1.00800           0
     32706 MEMB     282      POPC     H4S      HAL2     0.900000E-01   1.00800           0
     32707 MEMB     282      POPC     C25      CTL2    -0.180000       12.0110           0
     32708 MEMB     282      POPC     H5R      HAL2     0.900000E-01   1.00800           0
     32709 MEMB     282      POPC     H5S      HAL2     0.900000E-01   1.00800           0
     32710 MEMB     282      POPC     C26      CTL2    -0.180000       12.0110           0
     32711 MEMB     282      POPC     H6R      HAL2     0.900000E-01   1.00800           0
     32712 MEMB     282      POPC     H6S      HAL2     0.900000E-01   1.00800           0
     32713 MEMB     282      POPC     C27      CTL2    -0.180000       12.0110           0
     32714 MEMB     282      POPC     H7R      HAL2     0.900000E-01   1.00800           0
     32715 MEMB     282      POPC     H7S      HAL2     0.900000E-01   1.00800           0
     32716 MEMB     282      POPC     C28      CTL2    -0.180000       12.0110           0
     32717 MEMB     282      POPC     H8R      HAL2     0.900000E-01   1.00800           0
     32718 MEMB     282      POPC     H8S      HAL2     0.900000E-01   1.00800           0
     32719 MEMB     282      POPC     C29      CEL1    -0.150000       12.0110           0
     32720 MEMB     282      POPC     H91      HEL1     0.150000       1.00800           0
     32721 MEMB     282      POPC     C210     CEL1    -0.150000       12.0110           0
     32722 MEMB     282      POPC     H101     HEL1     0.150000       1.00800           0
     32723 MEMB     282      POPC     C211     CTL2    -0.180000       12.0110           0
     32724 MEMB     282      POPC     H11R     HAL2     0.900000E-01   1.00800           0
     32725 MEMB     282      POPC     H11S     HAL2     0.900000E-01   1.00800           0
     32726 MEMB     282      POPC     C212     CTL2    -0.180000       12.0110           0
     32727 MEMB     282      POPC     H12R     HAL2     0.900000E-01   1.00800           0
     32728 MEMB     282      POPC     H12S     HAL2     0.900000E-01   1.00800           0
     32729 MEMB     282      POPC     C213     CTL2    -0.180000       12.0110           0
     32730 MEMB     282      POPC     H13R     HAL2     0.900000E-01   1.00800           0
     32731 MEMB     282      POPC     H13S     HAL2     0.900000E-01   1.00800           0
     32732 MEMB     282      POPC     C214     CTL2    -0.180000       12.0110           0
     32733 MEMB     282      POPC     H14R     HAL2     0.900000E-01   1.00800           0
     32734 MEMB     282      POPC     H14S     HAL2     0.900000E-01   1.00800           0
     32735 MEMB     282      POPC     C215     CTL2    -0.180000       12.0110           0
     32736 MEMB     282      POPC     H15R     HAL2     0.900000E-01   1.00800           0
     32737 MEMB     282      POPC     H15S     HAL2     0.900000E-01   1.00800           0
     32738 MEMB     282      POPC     C216     CTL2    -0.180000       12.0110           0
     32739 MEMB     282      POPC     H16R     HAL2     0.900000E-01   1.00800           0
     32740 MEMB     282      POPC     H16S     HAL2     0.900000E-01   1.00800           0
     32741 MEMB     282      POPC     C217     CTL2    -0.180000       12.0110           0
     32742 MEMB     282      POPC     H17R     HAL2     0.900000E-01   1.00800           0
     32743 MEMB     282      POPC     H17S     HAL2     0.900000E-01   1.00800           0
     32744 MEMB     282      POPC     C218     CTL3    -0.270000       12.0110           0
     32745 MEMB     282      POPC     H18R     HAL3     0.900000E-01   1.00800           0
     32746 MEMB     282      POPC     H18S     HAL3     0.900000E-01   1.00800           0
     32747 MEMB     282      POPC     H18T     HAL3     0.900000E-01   1.00800           0
     32748 MEMB     282      POPC     C33      CTL2    -0.180000       12.0110           0
     32749 MEMB     282      POPC     H3X      HAL2     0.900000E-01   1.00800           0
     32750 MEMB     282      POPC     H3Y      HAL2     0.900000E-01   1.00800           0
     32751 MEMB     282      POPC     C34      CTL2    -0.180000       12.0110           0
     32752 MEMB     282      POPC     H4X      HAL2     0.900000E-01   1.00800           0
     32753 MEMB     282      POPC     H4Y      HAL2     0.900000E-01   1.00800           0
     32754 MEMB     282      POPC     C35      CTL2    -0.180000       12.0110           0
     32755 MEMB     282      POPC     H5X      HAL2     0.900000E-01   1.00800           0
     32756 MEMB     282      POPC     H5Y      HAL2     0.900000E-01   1.00800           0
     32757 MEMB     282      POPC     C36      CTL2    -0.180000       12.0110           0
     32758 MEMB     282      POPC     H6X      HAL2     0.900000E-01   1.00800           0
     32759 MEMB     282      POPC     H6Y      HAL2     0.900000E-01   1.00800           0
     32760 MEMB     282      POPC     C37      CTL2    -0.180000       12.0110           0
     32761 MEMB     282      POPC     H7X      HAL2     0.900000E-01   1.00800           0
     32762 MEMB     282      POPC     H7Y      HAL2     0.900000E-01   1.00800           0
     32763 MEMB     282      POPC     C38      CTL2    -0.180000       12.0110           0
     32764 MEMB     282      POPC     H8X      HAL2     0.900000E-01   1.00800           0
     32765 MEMB     282      POPC     H8Y      HAL2     0.900000E-01   1.00800           0
     32766 MEMB     282      POPC     C39      CTL2    -0.180000       12.0110           0
     32767 MEMB     282      POPC     H9X      HAL2     0.900000E-01   1.00800           0
     32768 MEMB     282      POPC     H9Y      HAL2     0.900000E-01   1.00800           0
     32769 MEMB     282      POPC     C310     CTL2    -0.180000       12.0110           0
     32770 MEMB     282      POPC     H10X     HAL2     0.900000E-01   1.00800           0
     32771 MEMB     282      POPC     H10Y     HAL2     0.900000E-01   1.00800           0
     32772 MEMB     282      POPC     C311     CTL2    -0.180000       12.0110           0
     32773 MEMB     282      POPC     H11X     HAL2     0.900000E-01   1.00800           0
     32774 MEMB     282      POPC     H11Y     HAL2     0.900000E-01   1.00800           0
     32775 MEMB     282      POPC     C312     CTL2    -0.180000       12.0110           0
     32776 MEMB     282      POPC     H12X     HAL2     0.900000E-01   1.00800           0
     32777 MEMB     282      POPC     H12Y     HAL2     0.900000E-01   1.00800           0
     32778 MEMB     282      POPC     C313     CTL2    -0.180000       12.0110           0
     32779 MEMB     282      POPC     H13X     HAL2     0.900000E-01   1.00800           0
     32780 MEMB     282      POPC     H13Y     HAL2     0.900000E-01   1.00800           0
     32781 MEMB     282      POPC     C314     CTL2    -0.180000       12.0110           0
     32782 MEMB     282      POPC     H14X     HAL2     0.900000E-01   1.00800           0
     32783 MEMB     282      POPC     H14Y     HAL2     0.900000E-01   1.00800           0
     32784 MEMB     282      POPC     C315     CTL2    -0.180000       12.0110           0
     32785 MEMB     282      POPC     H15X     HAL2     0.900000E-01   1.00800           0
     32786 MEMB     282      POPC     H15Y     HAL2     0.900000E-01   1.00800           0
     32787 MEMB     282      POPC     C316     CTL3    -0.270000       12.0110           0
     32788 MEMB     282      POPC     H16X     HAL3     0.900000E-01   1.00800           0
     32789 MEMB     282      POPC     H16Y     HAL3     0.900000E-01   1.00800           0
     32790 MEMB     282      POPC     H16Z     HAL3     0.900000E-01   1.00800           0
     32791 MEMB     283      POPE     N        NH3L    -0.300000       14.0070           0
     32792 MEMB     283      POPE     HN1      HCL      0.330000       1.00800           0
     32793 MEMB     283      POPE     HN2      HCL      0.330000       1.00800           0
     32794 MEMB     283      POPE     HN3      HCL      0.330000       1.00800           0
     32795 MEMB     283      POPE     C12      CTL2     0.130000       12.0110           0
     32796 MEMB     283      POPE     H12A     HAL2     0.900000E-01   1.00800           0
     32797 MEMB     283      POPE     H12B     HAL2     0.900000E-01   1.00800           0
     32798 MEMB     283      POPE     C11      CTL2    -0.800000E-01   12.0110           0
     32799 MEMB     283      POPE     H11A     HAL2     0.900000E-01   1.00800           0
     32800 MEMB     283      POPE     H11B     HAL2     0.900000E-01   1.00800           0
     32801 MEMB     283      POPE     P        PL        1.50000       30.9740           0
     32802 MEMB     283      POPE     O13      O2L     -0.780000       15.9994           0
     32803 MEMB     283      POPE     O14      O2L     -0.780000       15.9994           0
     32804 MEMB     283      POPE     O11      OSLP    -0.570000       15.9994           0
     32805 MEMB     283      POPE     O12      OSLP    -0.570000       15.9994           0
     32806 MEMB     283      POPE     C1       CTL2    -0.800000E-01   12.0110           0
     32807 MEMB     283      POPE     HA       HAL2     0.900000E-01   1.00800           0
     32808 MEMB     283      POPE     HB       HAL2     0.900000E-01   1.00800           0
     32809 MEMB     283      POPE     C2       CTL1     0.170000       12.0110           0
     32810 MEMB     283      POPE     HS       HAL1     0.900000E-01   1.00800           0
     32811 MEMB     283      POPE     O21      OSL     -0.490000       15.9994           0
     32812 MEMB     283      POPE     C21      CL       0.900000       12.0110           0
     32813 MEMB     283      POPE     O22      OBL     -0.630000       15.9994           0
     32814 MEMB     283      POPE     C22      CTL2    -0.220000       12.0110           0
     32815 MEMB     283      POPE     H2R      HAL2     0.900000E-01   1.00800           0
     32816 MEMB     283      POPE     H2S      HAL2     0.900000E-01   1.00800           0
     32817 MEMB     283      POPE     C3       CTL2     0.800000E-01   12.0110           0
     32818 MEMB     283      POPE     HX       HAL2     0.900000E-01   1.00800           0
     32819 MEMB     283      POPE     HY       HAL2     0.900000E-01   1.00800           0
     32820 MEMB     283      POPE     O31      OSL     -0.490000       15.9994           0
     32821 MEMB     283      POPE     C31      CL       0.900000       12.0110           0
     32822 MEMB     283      POPE     O32      OBL     -0.630000       15.9994           0
     32823 MEMB     283      POPE     C32      CTL2    -0.220000       12.0110           0
     32824 MEMB     283      POPE     H2X      HAL2     0.900000E-01   1.00800           0
     32825 MEMB     283      POPE     H2Y      HAL2     0.900000E-01   1.00800           0
     32826 MEMB     283      POPE     C23      CTL2    -0.180000       12.0110           0
     32827 MEMB     283      POPE     H3R      HAL2     0.900000E-01   1.00800           0
     32828 MEMB     283      POPE     H3S      HAL2     0.900000E-01   1.00800           0
     32829 MEMB     283      POPE     C24      CTL2    -0.180000       12.0110           0
     32830 MEMB     283      POPE     H4R      HAL2     0.900000E-01   1.00800           0
     32831 MEMB     283      POPE     H4S      HAL2     0.900000E-01   1.00800           0
     32832 MEMB     283      POPE     C25      CTL2    -0.180000       12.0110           0
     32833 MEMB     283      POPE     H5R      HAL2     0.900000E-01   1.00800           0
     32834 MEMB     283      POPE     H5S      HAL2     0.900000E-01   1.00800           0
     32835 MEMB     283      POPE     C26      CTL2    -0.180000       12.0110           0
     32836 MEMB     283      POPE     H6R      HAL2     0.900000E-01   1.00800           0
     32837 MEMB     283      POPE     H6S      HAL2     0.900000E-01   1.00800           0
     32838 MEMB     283      POPE     C27      CTL2    -0.180000       12.0110           0
     32839 MEMB     283      POPE     H7R      HAL2     0.900000E-01   1.00800           0
     32840 MEMB     283      POPE     H7S      HAL2     0.900000E-01   1.00800           0
     32841 MEMB     283      POPE     C28      CTL2    -0.180000       12.0110           0
     32842 MEMB     283      POPE     H8R      HAL2     0.900000E-01   1.00800           0
     32843 MEMB     283      POPE     H8S      HAL2     0.900000E-01   1.00800           0
     32844 MEMB     283      POPE     C29      CEL1    -0.150000       12.0110           0
     32845 MEMB     283      POPE     H91      HEL1     0.150000       1.00800           0
     32846 MEMB     283      POPE     C210     CEL1    -0.150000       12.0110           0
     32847 MEMB     283      POPE     H101     HEL1     0.150000       1.00800           0
     32848 MEMB     283      POPE     C211     CTL2    -0.180000       12.0110           0
     32849 MEMB     283      POPE     H11R     HAL2     0.900000E-01   1.00800           0
     32850 MEMB     283      POPE     H11S     HAL2     0.900000E-01   1.00800           0
     32851 MEMB     283      POPE     C212     CTL2    -0.180000       12.0110           0
     32852 MEMB     283      POPE     H12R     HAL2     0.900000E-01   1.00800           0
     32853 MEMB     283      POPE     H12S     HAL2     0.900000E-01   1.00800           0
     32854 MEMB     283      POPE     C213     CTL2    -0.180000       12.0110           0
     32855 MEMB     283      POPE     H13R     HAL2     0.900000E-01   1.00800           0
     32856 MEMB     283      POPE     H13S     HAL2     0.900000E-01   1.00800           0
     32857 MEMB     283      POPE     C214     CTL2    -0.180000       12.0110           0
     32858 MEMB     283      POPE     H14R     HAL2     0.900000E-01   1.00800           0
     32859 MEMB     283      POPE     H14S     HAL2     0.900000E-01   1.00800           0
     32860 MEMB     283      POPE     C215     CTL2    -0.180000       12.0110           0
     32861 MEMB     283      POPE     H15R     HAL2     0.900000E-01   1.00800           0
     32862 MEMB     283      POPE     H15S     HAL2     0.900000E-01   1.00800           0
     32863 MEMB     283      POPE     C216     CTL2    -0.180000       12.0110           0
     32864 MEMB     283      POPE     H16R     HAL2     0.900000E-01   1.00800           0
     32865 MEMB     283      POPE     H16S     HAL2     0.900000E-01   1.00800           0
     32866 MEMB     283      POPE     C217     CTL2    -0.180000       12.0110           0
     32867 MEMB     283      POPE     H17R     HAL2     0.900000E-01   1.00800           0
     32868 MEMB     283      POPE     H17S     HAL2     0.900000E-01   1.00800           0
     32869 MEMB     283      POPE     C218     CTL3    -0.270000       12.0110           0
     32870 MEMB     283      POPE     H18R     HAL3     0.900000E-01   1.00800           0
     32871 MEMB     283      POPE     H18S     HAL3     0.900000E-01   1.00800           0
     32872 MEMB     283      POPE     H18T     HAL3     0.900000E-01   1.00800           0
     32873 MEMB     283      POPE     C33      CTL2    -0.180000       12.0110           0
     32874 MEMB     283      POPE     H3X      HAL2     0.900000E-01   1.00800           0
     32875 MEMB     283      POPE     H3Y      HAL2     0.900000E-01   1.00800           0
     32876 MEMB     283      POPE     C34      CTL2    -0.180000       12.0110           0
     32877 MEMB     283      POPE     H4X      HAL2     0.900000E-01   1.00800           0
     32878 MEMB     283      POPE     H4Y      HAL2     0.900000E-01   1.00800           0
     32879 MEMB     283      POPE     C35      CTL2    -0.180000       12.0110           0
     32880 MEMB     283      POPE     H5X      HAL2     0.900000E-01   1.00800           0
     32881 MEMB     283      POPE     H5Y      HAL2     0.900000E-01   1.00800           0
     32882 MEMB     283      POPE     C36      CTL2    -0.180000       12.0110           0
     32883 MEMB     283      POPE     H6X      HAL2     0.900000E-01   1.00800           0
     32884 MEMB     283      POPE     H6Y      HAL2     0.900000E-01   1.00800           0
     32885 MEMB     283      POPE     C37      CTL2    -0.180000       12.0110           0
     32886 MEMB     283      POPE     H7X      HAL2     0.900000E-01   1.00800           0
     32887 MEMB     283      POPE     H7Y      HAL2     0.900000E-01   1.00800           0
     32888 MEMB     283      POPE     C38      CTL2    -0.180000       12.0110           0
     32889 MEMB     283      POPE     H8X      HAL2     0.900000E-01   1.00800           0
     32890 MEMB     283      POPE     H8Y      HAL2     0.900000E-01   1.00800           0
     32891 MEMB     283      POPE     C39      CTL2    -0.180000       12.0110           0
     32892 MEMB     283      POPE     H9X      HAL2     0.900000E-01   1.00800           0
     32893 MEMB     283      POPE     H9Y      HAL2     0.900000E-01   1.00800           0
     32894 MEMB     283      POPE     C310     CTL2    -0.180000       12.0110           0
     32895 MEMB     283      POPE     H10X     HAL2     0.900000E-01   1.00800           0
     32896 MEMB     283      POPE     H10Y     HAL2     0.900000E-01   1.00800           0
     32897 MEMB     283      POPE     C311     CTL2    -0.180000       12.0110           0
     32898 MEMB     283      POPE     H11X     HAL2     0.900000E-01   1.00800           0
     32899 MEMB     283      POPE     H11Y     HAL2     0.900000E-01   1.00800           0
     32900 MEMB     283      POPE     C312     CTL2    -0.180000       12.0110           0
     32901 MEMB     283      POPE     H12X     HAL2     0.900000E-01   1.00800           0
     32902 MEMB     283      POPE     H12Y     HAL2     0.900000E-01   1.00800           0
     32903 MEMB     283      POPE     C313     CTL2    -0.180000       12.0110           0
     32904 MEMB     283      POPE     H13X     HAL2     0.900000E-01   1.00800           0
     32905 MEMB     283      POPE     H13Y     HAL2     0.900000E-01   1.00800           0
     32906 MEMB     283      POPE     C314     CTL2    -0.180000       12.0110           0
     32907 MEMB     283      POPE     H14X     HAL2     0.900000E-01   1.00800           0
     32908 MEMB     283      POPE     H14Y     HAL2     0.900000E-01   1.00800           0
     32909 MEMB     283      POPE     C315     CTL2    -0.180000       12.0110           0
     32910 MEMB     283      POPE     H15X     HAL2     0.900000E-01   1.00800           0
     32911 MEMB     283      POPE     H15Y     HAL2     0.900000E-01   1.00800           0
     32912 MEMB     283      POPE     C316     CTL3    -0.270000       12.0110           0
     32913 MEMB     283      POPE     H16X     HAL3     0.900000E-01   1.00800           0
     32914 MEMB     283      POPE     H16Y     HAL3     0.900000E-01   1.00800           0
     32915 MEMB     283      POPE     H16Z     HAL3     0.900000E-01   1.00800           0
     32916 MEMB     284      POPC     N        NTL     -0.600000       14.0070           0
     32917 MEMB     284      POPC     C12      CTL2    -0.100000       12.0110           0
     32918 MEMB     284      POPC     H12A     HL       0.250000       1.00800           0
     32919 MEMB     284      POPC     H12B     HL       0.250000       1.00800           0
     32920 MEMB     284      POPC     C13      CTL5    -0.350000       12.0110           0
     32921 MEMB     284      POPC     H13A     HL       0.250000       1.00800           0
     32922 MEMB     284      POPC     H13B     HL       0.250000       1.00800           0
     32923 MEMB     284      POPC     H13C     HL       0.250000       1.00800           0
     32924 MEMB     284      POPC     C14      CTL5    -0.350000       12.0110           0
     32925 MEMB     284      POPC     H14A     HL       0.250000       1.00800           0
     32926 MEMB     284      POPC     H14B     HL       0.250000       1.00800           0
     32927 MEMB     284      POPC     H14C     HL       0.250000       1.00800           0
     32928 MEMB     284      POPC     C15      CTL5    -0.350000       12.0110           0
     32929 MEMB     284      POPC     H15A     HL       0.250000       1.00800           0
     32930 MEMB     284      POPC     H15B     HL       0.250000       1.00800           0
     32931 MEMB     284      POPC     H15C     HL       0.250000       1.00800           0
     32932 MEMB     284      POPC     C11      CTL2    -0.800000E-01   12.0110           0
     32933 MEMB     284      POPC     H11A     HAL2     0.900000E-01   1.00800           0
     32934 MEMB     284      POPC     H11B     HAL2     0.900000E-01   1.00800           0
     32935 MEMB     284      POPC     P        PL        1.50000       30.9740           0
     32936 MEMB     284      POPC     O13      O2L     -0.780000       15.9994           0
     32937 MEMB     284      POPC     O14      O2L     -0.780000       15.9994           0
     32938 MEMB     284      POPC     O12      OSLP    -0.570000       15.9994           0
     32939 MEMB     284      POPC     O11      OSLP    -0.570000       15.9994           0
     32940 MEMB     284      POPC     C1       CTL2    -0.800000E-01   12.0110           0
     32941 MEMB     284      POPC     HA       HAL2     0.900000E-01   1.00800           0
     32942 MEMB     284      POPC     HB       HAL2     0.900000E-01   1.00800           0
     32943 MEMB     284      POPC     C2       CTL1     0.170000       12.0110           0
     32944 MEMB     284      POPC     HS       HAL1     0.900000E-01   1.00800           0
     32945 MEMB     284      POPC     O21      OSL     -0.490000       15.9994           0
     32946 MEMB     284      POPC     C21      CL       0.900000       12.0110           0
     32947 MEMB     284      POPC     O22      OBL     -0.630000       15.9994           0
     32948 MEMB     284      POPC     C22      CTL2    -0.220000       12.0110           0
     32949 MEMB     284      POPC     H2R      HAL2     0.900000E-01   1.00800           0
     32950 MEMB     284      POPC     H2S      HAL2     0.900000E-01   1.00800           0
     32951 MEMB     284      POPC     C3       CTL2     0.800000E-01   12.0110           0
     32952 MEMB     284      POPC     HX       HAL2     0.900000E-01   1.00800           0
     32953 MEMB     284      POPC     HY       HAL2     0.900000E-01   1.00800           0
     32954 MEMB     284      POPC     O31      OSL     -0.490000       15.9994           0
     32955 MEMB     284      POPC     C31      CL       0.900000       12.0110           0
     32956 MEMB     284      POPC     O32      OBL     -0.630000       15.9994           0
     32957 MEMB     284      POPC     C32      CTL2    -0.220000       12.0110           0
     32958 MEMB     284      POPC     H2X      HAL2     0.900000E-01   1.00800           0
     32959 MEMB     284      POPC     H2Y      HAL2     0.900000E-01   1.00800           0
     32960 MEMB     284      POPC     C23      CTL2    -0.180000       12.0110           0
     32961 MEMB     284      POPC     H3R      HAL2     0.900000E-01   1.00800           0
     32962 MEMB     284      POPC     H3S      HAL2     0.900000E-01   1.00800           0
     32963 MEMB     284      POPC     C24      CTL2    -0.180000       12.0110           0
     32964 MEMB     284      POPC     H4R      HAL2     0.900000E-01   1.00800           0
     32965 MEMB     284      POPC     H4S      HAL2     0.900000E-01   1.00800           0
     32966 MEMB     284      POPC     C25      CTL2    -0.180000       12.0110           0
     32967 MEMB     284      POPC     H5R      HAL2     0.900000E-01   1.00800           0
     32968 MEMB     284      POPC     H5S      HAL2     0.900000E-01   1.00800           0
     32969 MEMB     284      POPC     C26      CTL2    -0.180000       12.0110           0
     32970 MEMB     284      POPC     H6R      HAL2     0.900000E-01   1.00800           0
     32971 MEMB     284      POPC     H6S      HAL2     0.900000E-01   1.00800           0
     32972 MEMB     284      POPC     C27      CTL2    -0.180000       12.0110           0
     32973 MEMB     284      POPC     H7R      HAL2     0.900000E-01   1.00800           0
     32974 MEMB     284      POPC     H7S      HAL2     0.900000E-01   1.00800           0
     32975 MEMB     284      POPC     C28      CTL2    -0.180000       12.0110           0
     32976 MEMB     284      POPC     H8R      HAL2     0.900000E-01   1.00800           0
     32977 MEMB     284      POPC     H8S      HAL2     0.900000E-01   1.00800           0
     32978 MEMB     284      POPC     C29      CEL1    -0.150000       12.0110           0
     32979 MEMB     284      POPC     H91      HEL1     0.150000       1.00800           0
     32980 MEMB     284      POPC     C210     CEL1    -0.150000       12.0110           0
     32981 MEMB     284      POPC     H101     HEL1     0.150000       1.00800           0
     32982 MEMB     284      POPC     C211     CTL2    -0.180000       12.0110           0
     32983 MEMB     284      POPC     H11R     HAL2     0.900000E-01   1.00800           0
     32984 MEMB     284      POPC     H11S     HAL2     0.900000E-01   1.00800           0
     32985 MEMB     284      POPC     C212     CTL2    -0.180000       12.0110           0
     32986 MEMB     284      POPC     H12R     HAL2     0.900000E-01   1.00800           0
     32987 MEMB     284      POPC     H12S     HAL2     0.900000E-01   1.00800           0
     32988 MEMB     284      POPC     C213     CTL2    -0.180000       12.0110           0
     32989 MEMB     284      POPC     H13R     HAL2     0.900000E-01   1.00800           0
     32990 MEMB     284      POPC     H13S     HAL2     0.900000E-01   1.00800           0
     32991 MEMB     284      POPC     C214     CTL2    -0.180000       12.0110           0
     32992 MEMB     284      POPC     H14R     HAL2     0.900000E-01   1.00800           0
     32993 MEMB     284      POPC     H14S     HAL2     0.900000E-01   1.00800           0
     32994 MEMB     284      POPC     C215     CTL2    -0.180000       12.0110           0
     32995 MEMB     284      POPC     H15R     HAL2     0.900000E-01   1.00800           0
     32996 MEMB     284      POPC     H15S     HAL2     0.900000E-01   1.00800           0
     32997 MEMB     284      POPC     C216     CTL2    -0.180000       12.0110           0
     32998 MEMB     284      POPC     H16R     HAL2     0.900000E-01   1.00800           0
     32999 MEMB     284      POPC     H16S     HAL2     0.900000E-01   1.00800           0
     33000 MEMB     284      POPC     C217     CTL2    -0.180000       12.0110           0
     33001 MEMB     284      POPC     H17R     HAL2     0.900000E-01   1.00800           0
     33002 MEMB     284      POPC     H17S     HAL2     0.900000E-01   1.00800           0
     33003 MEMB     284      POPC     C218     CTL3    -0.270000       12.0110           0
     33004 MEMB     284      POPC     H18R     HAL3     0.900000E-01   1.00800           0
     33005 MEMB     284      POPC     H18S     HAL3     0.900000E-01   1.00800           0
     33006 MEMB     284      POPC     H18T     HAL3     0.900000E-01   1.00800           0
     33007 MEMB     284      POPC     C33      CTL2    -0.180000       12.0110           0
     33008 MEMB     284      POPC     H3X      HAL2     0.900000E-01   1.00800           0
     33009 MEMB     284      POPC     H3Y      HAL2     0.900000E-01   1.00800           0
     33010 MEMB     284      POPC     C34      CTL2    -0.180000       12.0110           0
     33011 MEMB     284      POPC     H4X      HAL2     0.900000E-01   1.00800           0
     33012 MEMB     284      POPC     H4Y      HAL2     0.900000E-01   1.00800           0
     33013 MEMB     284      POPC     C35      CTL2    -0.180000       12.0110           0
     33014 MEMB     284      POPC     H5X      HAL2     0.900000E-01   1.00800           0
     33015 MEMB     284      POPC     H5Y      HAL2     0.900000E-01   1.00800           0
     33016 MEMB     284      POPC     C36      CTL2    -0.180000       12.0110           0
     33017 MEMB     284      POPC     H6X      HAL2     0.900000E-01   1.00800           0
     33018 MEMB     284      POPC     H6Y      HAL2     0.900000E-01   1.00800           0
     33019 MEMB     284      POPC     C37      CTL2    -0.180000       12.0110           0
     33020 MEMB     284      POPC     H7X      HAL2     0.900000E-01   1.00800           0
     33021 MEMB     284      POPC     H7Y      HAL2     0.900000E-01   1.00800           0
     33022 MEMB     284      POPC     C38      CTL2    -0.180000       12.0110           0
     33023 MEMB     284      POPC     H8X      HAL2     0.900000E-01   1.00800           0
     33024 MEMB     284      POPC     H8Y      HAL2     0.900000E-01   1.00800           0
     33025 MEMB     284      POPC     C39      CTL2    -0.180000       12.0110           0
     33026 MEMB     284      POPC     H9X      HAL2     0.900000E-01   1.00800           0
     33027 MEMB     284      POPC     H9Y      HAL2     0.900000E-01   1.00800           0
     33028 MEMB     284      POPC     C310     CTL2    -0.180000       12.0110           0
     33029 MEMB     284      POPC     H10X     HAL2     0.900000E-01   1.00800           0
     33030 MEMB     284      POPC     H10Y     HAL2     0.900000E-01   1.00800           0
     33031 MEMB     284      POPC     C311     CTL2    -0.180000       12.0110           0
     33032 MEMB     284      POPC     H11X     HAL2     0.900000E-01   1.00800           0
     33033 MEMB     284      POPC     H11Y     HAL2     0.900000E-01   1.00800           0
     33034 MEMB     284      POPC     C312     CTL2    -0.180000       12.0110           0
     33035 MEMB     284      POPC     H12X     HAL2     0.900000E-01   1.00800           0
     33036 MEMB     284      POPC     H12Y     HAL2     0.900000E-01   1.00800           0
     33037 MEMB     284      POPC     C313     CTL2    -0.180000       12.0110           0
     33038 MEMB     284      POPC     H13X     HAL2     0.900000E-01   1.00800           0
     33039 MEMB     284      POPC     H13Y     HAL2     0.900000E-01   1.00800           0
     33040 MEMB     284      POPC     C314     CTL2    -0.180000       12.0110           0
     33041 MEMB     284      POPC     H14X     HAL2     0.900000E-01   1.00800           0
     33042 MEMB     284      POPC     H14Y     HAL2     0.900000E-01   1.00800           0
     33043 MEMB     284      POPC     C315     CTL2    -0.180000       12.0110           0
     33044 MEMB     284      POPC     H15X     HAL2     0.900000E-01   1.00800           0
     33045 MEMB     284      POPC     H15Y     HAL2     0.900000E-01   1.00800           0
     33046 MEMB     284      POPC     C316     CTL3    -0.270000       12.0110           0
     33047 MEMB     284      POPC     H16X     HAL3     0.900000E-01   1.00800           0
     33048 MEMB     284      POPC     H16Y     HAL3     0.900000E-01   1.00800           0
     33049 MEMB     284      POPC     H16Z     HAL3     0.900000E-01   1.00800           0
     33050 MEMB     285      POPE     N        NH3L    -0.300000       14.0070           0
     33051 MEMB     285      POPE     HN1      HCL      0.330000       1.00800           0
     33052 MEMB     285      POPE     HN2      HCL      0.330000       1.00800           0
     33053 MEMB     285      POPE     HN3      HCL      0.330000       1.00800           0
     33054 MEMB     285      POPE     C12      CTL2     0.130000       12.0110           0
     33055 MEMB     285      POPE     H12A     HAL2     0.900000E-01   1.00800           0
     33056 MEMB     285      POPE     H12B     HAL2     0.900000E-01   1.00800           0
     33057 MEMB     285      POPE     C11      CTL2    -0.800000E-01   12.0110           0
     33058 MEMB     285      POPE     H11A     HAL2     0.900000E-01   1.00800           0
     33059 MEMB     285      POPE     H11B     HAL2     0.900000E-01   1.00800           0
     33060 MEMB     285      POPE     P        PL        1.50000       30.9740           0
     33061 MEMB     285      POPE     O13      O2L     -0.780000       15.9994           0
     33062 MEMB     285      POPE     O14      O2L     -0.780000       15.9994           0
     33063 MEMB     285      POPE     O11      OSLP    -0.570000       15.9994           0
     33064 MEMB     285      POPE     O12      OSLP    -0.570000       15.9994           0
     33065 MEMB     285      POPE     C1       CTL2    -0.800000E-01   12.0110           0
     33066 MEMB     285      POPE     HA       HAL2     0.900000E-01   1.00800           0
     33067 MEMB     285      POPE     HB       HAL2     0.900000E-01   1.00800           0
     33068 MEMB     285      POPE     C2       CTL1     0.170000       12.0110           0
     33069 MEMB     285      POPE     HS       HAL1     0.900000E-01   1.00800           0
     33070 MEMB     285      POPE     O21      OSL     -0.490000       15.9994           0
     33071 MEMB     285      POPE     C21      CL       0.900000       12.0110           0
     33072 MEMB     285      POPE     O22      OBL     -0.630000       15.9994           0
     33073 MEMB     285      POPE     C22      CTL2    -0.220000       12.0110           0
     33074 MEMB     285      POPE     H2R      HAL2     0.900000E-01   1.00800           0
     33075 MEMB     285      POPE     H2S      HAL2     0.900000E-01   1.00800           0
     33076 MEMB     285      POPE     C3       CTL2     0.800000E-01   12.0110           0
     33077 MEMB     285      POPE     HX       HAL2     0.900000E-01   1.00800           0
     33078 MEMB     285      POPE     HY       HAL2     0.900000E-01   1.00800           0
     33079 MEMB     285      POPE     O31      OSL     -0.490000       15.9994           0
     33080 MEMB     285      POPE     C31      CL       0.900000       12.0110           0
     33081 MEMB     285      POPE     O32      OBL     -0.630000       15.9994           0
     33082 MEMB     285      POPE     C32      CTL2    -0.220000       12.0110           0
     33083 MEMB     285      POPE     H2X      HAL2     0.900000E-01   1.00800           0
     33084 MEMB     285      POPE     H2Y      HAL2     0.900000E-01   1.00800           0
     33085 MEMB     285      POPE     C23      CTL2    -0.180000       12.0110           0
     33086 MEMB     285      POPE     H3R      HAL2     0.900000E-01   1.00800           0
     33087 MEMB     285      POPE     H3S      HAL2     0.900000E-01   1.00800           0
     33088 MEMB     285      POPE     C24      CTL2    -0.180000       12.0110           0
     33089 MEMB     285      POPE     H4R      HAL2     0.900000E-01   1.00800           0
     33090 MEMB     285      POPE     H4S      HAL2     0.900000E-01   1.00800           0
     33091 MEMB     285      POPE     C25      CTL2    -0.180000       12.0110           0
     33092 MEMB     285      POPE     H5R      HAL2     0.900000E-01   1.00800           0
     33093 MEMB     285      POPE     H5S      HAL2     0.900000E-01   1.00800           0
     33094 MEMB     285      POPE     C26      CTL2    -0.180000       12.0110           0
     33095 MEMB     285      POPE     H6R      HAL2     0.900000E-01   1.00800           0
     33096 MEMB     285      POPE     H6S      HAL2     0.900000E-01   1.00800           0
     33097 MEMB     285      POPE     C27      CTL2    -0.180000       12.0110           0
     33098 MEMB     285      POPE     H7R      HAL2     0.900000E-01   1.00800           0
     33099 MEMB     285      POPE     H7S      HAL2     0.900000E-01   1.00800           0
     33100 MEMB     285      POPE     C28      CTL2    -0.180000       12.0110           0
     33101 MEMB     285      POPE     H8R      HAL2     0.900000E-01   1.00800           0
     33102 MEMB     285      POPE     H8S      HAL2     0.900000E-01   1.00800           0
     33103 MEMB     285      POPE     C29      CEL1    -0.150000       12.0110           0
     33104 MEMB     285      POPE     H91      HEL1     0.150000       1.00800           0
     33105 MEMB     285      POPE     C210     CEL1    -0.150000       12.0110           0
     33106 MEMB     285      POPE     H101     HEL1     0.150000       1.00800           0
     33107 MEMB     285      POPE     C211     CTL2    -0.180000       12.0110           0
     33108 MEMB     285      POPE     H11R     HAL2     0.900000E-01   1.00800           0
     33109 MEMB     285      POPE     H11S     HAL2     0.900000E-01   1.00800           0
     33110 MEMB     285      POPE     C212     CTL2    -0.180000       12.0110           0
     33111 MEMB     285      POPE     H12R     HAL2     0.900000E-01   1.00800           0
     33112 MEMB     285      POPE     H12S     HAL2     0.900000E-01   1.00800           0
     33113 MEMB     285      POPE     C213     CTL2    -0.180000       12.0110           0
     33114 MEMB     285      POPE     H13R     HAL2     0.900000E-01   1.00800           0
     33115 MEMB     285      POPE     H13S     HAL2     0.900000E-01   1.00800           0
     33116 MEMB     285      POPE     C214     CTL2    -0.180000       12.0110           0
     33117 MEMB     285      POPE     H14R     HAL2     0.900000E-01   1.00800           0
     33118 MEMB     285      POPE     H14S     HAL2     0.900000E-01   1.00800           0
     33119 MEMB     285      POPE     C215     CTL2    -0.180000       12.0110           0
     33120 MEMB     285      POPE     H15R     HAL2     0.900000E-01   1.00800           0
     33121 MEMB     285      POPE     H15S     HAL2     0.900000E-01   1.00800           0
     33122 MEMB     285      POPE     C216     CTL2    -0.180000       12.0110           0
     33123 MEMB     285      POPE     H16R     HAL2     0.900000E-01   1.00800           0
     33124 MEMB     285      POPE     H16S     HAL2     0.900000E-01   1.00800           0
     33125 MEMB     285      POPE     C217     CTL2    -0.180000       12.0110           0
     33126 MEMB     285      POPE     H17R     HAL2     0.900000E-01   1.00800           0
     33127 MEMB     285      POPE     H17S     HAL2     0.900000E-01   1.00800           0
     33128 MEMB     285      POPE     C218     CTL3    -0.270000       12.0110           0
     33129 MEMB     285      POPE     H18R     HAL3     0.900000E-01   1.00800           0
     33130 MEMB     285      POPE     H18S     HAL3     0.900000E-01   1.00800           0
     33131 MEMB     285      POPE     H18T     HAL3     0.900000E-01   1.00800           0
     33132 MEMB     285      POPE     C33      CTL2    -0.180000       12.0110           0
     33133 MEMB     285      POPE     H3X      HAL2     0.900000E-01   1.00800           0
     33134 MEMB     285      POPE     H3Y      HAL2     0.900000E-01   1.00800           0
     33135 MEMB     285      POPE     C34      CTL2    -0.180000       12.0110           0
     33136 MEMB     285      POPE     H4X      HAL2     0.900000E-01   1.00800           0
     33137 MEMB     285      POPE     H4Y      HAL2     0.900000E-01   1.00800           0
     33138 MEMB     285      POPE     C35      CTL2    -0.180000       12.0110           0
     33139 MEMB     285      POPE     H5X      HAL2     0.900000E-01   1.00800           0
     33140 MEMB     285      POPE     H5Y      HAL2     0.900000E-01   1.00800           0
     33141 MEMB     285      POPE     C36      CTL2    -0.180000       12.0110           0
     33142 MEMB     285      POPE     H6X      HAL2     0.900000E-01   1.00800           0
     33143 MEMB     285      POPE     H6Y      HAL2     0.900000E-01   1.00800           0
     33144 MEMB     285      POPE     C37      CTL2    -0.180000       12.0110           0
     33145 MEMB     285      POPE     H7X      HAL2     0.900000E-01   1.00800           0
     33146 MEMB     285      POPE     H7Y      HAL2     0.900000E-01   1.00800           0
     33147 MEMB     285      POPE     C38      CTL2    -0.180000       12.0110           0
     33148 MEMB     285      POPE     H8X      HAL2     0.900000E-01   1.00800           0
     33149 MEMB     285      POPE     H8Y      HAL2     0.900000E-01   1.00800           0
     33150 MEMB     285      POPE     C39      CTL2    -0.180000       12.0110           0
     33151 MEMB     285      POPE     H9X      HAL2     0.900000E-01   1.00800           0
     33152 MEMB     285      POPE     H9Y      HAL2     0.900000E-01   1.00800           0
     33153 MEMB     285      POPE     C310     CTL2    -0.180000       12.0110           0
     33154 MEMB     285      POPE     H10X     HAL2     0.900000E-01   1.00800           0
     33155 MEMB     285      POPE     H10Y     HAL2     0.900000E-01   1.00800           0
     33156 MEMB     285      POPE     C311     CTL2    -0.180000       12.0110           0
     33157 MEMB     285      POPE     H11X     HAL2     0.900000E-01   1.00800           0
     33158 MEMB     285      POPE     H11Y     HAL2     0.900000E-01   1.00800           0
     33159 MEMB     285      POPE     C312     CTL2    -0.180000       12.0110           0
     33160 MEMB     285      POPE     H12X     HAL2     0.900000E-01   1.00800           0
     33161 MEMB     285      POPE     H12Y     HAL2     0.900000E-01   1.00800           0
     33162 MEMB     285      POPE     C313     CTL2    -0.180000       12.0110           0
     33163 MEMB     285      POPE     H13X     HAL2     0.900000E-01   1.00800           0
     33164 MEMB     285      POPE     H13Y     HAL2     0.900000E-01   1.00800           0
     33165 MEMB     285      POPE     C314     CTL2    -0.180000       12.0110           0
     33166 MEMB     285      POPE     H14X     HAL2     0.900000E-01   1.00800           0
     33167 MEMB     285      POPE     H14Y     HAL2     0.900000E-01   1.00800           0
     33168 MEMB     285      POPE     C315     CTL2    -0.180000       12.0110           0
     33169 MEMB     285      POPE     H15X     HAL2     0.900000E-01   1.00800           0
     33170 MEMB     285      POPE     H15Y     HAL2     0.900000E-01   1.00800           0
     33171 MEMB     285      POPE     C316     CTL3    -0.270000       12.0110           0
     33172 MEMB     285      POPE     H16X     HAL3     0.900000E-01   1.00800           0
     33173 MEMB     285      POPE     H16Y     HAL3     0.900000E-01   1.00800           0
     33174 MEMB     285      POPE     H16Z     HAL3     0.900000E-01   1.00800           0
     33175 MEMB     286      POPC     N        NTL     -0.600000       14.0070           0
     33176 MEMB     286      POPC     C12      CTL2    -0.100000       12.0110           0
     33177 MEMB     286      POPC     H12A     HL       0.250000       1.00800           0
     33178 MEMB     286      POPC     H12B     HL       0.250000       1.00800           0
     33179 MEMB     286      POPC     C13      CTL5    -0.350000       12.0110           0
     33180 MEMB     286      POPC     H13A     HL       0.250000       1.00800           0
     33181 MEMB     286      POPC     H13B     HL       0.250000       1.00800           0
     33182 MEMB     286      POPC     H13C     HL       0.250000       1.00800           0
     33183 MEMB     286      POPC     C14      CTL5    -0.350000       12.0110           0
     33184 MEMB     286      POPC     H14A     HL       0.250000       1.00800           0
     33185 MEMB     286      POPC     H14B     HL       0.250000       1.00800           0
     33186 MEMB     286      POPC     H14C     HL       0.250000       1.00800           0
     33187 MEMB     286      POPC     C15      CTL5    -0.350000       12.0110           0
     33188 MEMB     286      POPC     H15A     HL       0.250000       1.00800           0
     33189 MEMB     286      POPC     H15B     HL       0.250000       1.00800           0
     33190 MEMB     286      POPC     H15C     HL       0.250000       1.00800           0
     33191 MEMB     286      POPC     C11      CTL2    -0.800000E-01   12.0110           0
     33192 MEMB     286      POPC     H11A     HAL2     0.900000E-01   1.00800           0
     33193 MEMB     286      POPC     H11B     HAL2     0.900000E-01   1.00800           0
     33194 MEMB     286      POPC     P        PL        1.50000       30.9740           0
     33195 MEMB     286      POPC     O13      O2L     -0.780000       15.9994           0
     33196 MEMB     286      POPC     O14      O2L     -0.780000       15.9994           0
     33197 MEMB     286      POPC     O12      OSLP    -0.570000       15.9994           0
     33198 MEMB     286      POPC     O11      OSLP    -0.570000       15.9994           0
     33199 MEMB     286      POPC     C1       CTL2    -0.800000E-01   12.0110           0
     33200 MEMB     286      POPC     HA       HAL2     0.900000E-01   1.00800           0
     33201 MEMB     286      POPC     HB       HAL2     0.900000E-01   1.00800           0
     33202 MEMB     286      POPC     C2       CTL1     0.170000       12.0110           0
     33203 MEMB     286      POPC     HS       HAL1     0.900000E-01   1.00800           0
     33204 MEMB     286      POPC     O21      OSL     -0.490000       15.9994           0
     33205 MEMB     286      POPC     C21      CL       0.900000       12.0110           0
     33206 MEMB     286      POPC     O22      OBL     -0.630000       15.9994           0
     33207 MEMB     286      POPC     C22      CTL2    -0.220000       12.0110           0
     33208 MEMB     286      POPC     H2R      HAL2     0.900000E-01   1.00800           0
     33209 MEMB     286      POPC     H2S      HAL2     0.900000E-01   1.00800           0
     33210 MEMB     286      POPC     C3       CTL2     0.800000E-01   12.0110           0
     33211 MEMB     286      POPC     HX       HAL2     0.900000E-01   1.00800           0
     33212 MEMB     286      POPC     HY       HAL2     0.900000E-01   1.00800           0
     33213 MEMB     286      POPC     O31      OSL     -0.490000       15.9994           0
     33214 MEMB     286      POPC     C31      CL       0.900000       12.0110           0
     33215 MEMB     286      POPC     O32      OBL     -0.630000       15.9994           0
     33216 MEMB     286      POPC     C32      CTL2    -0.220000       12.0110           0
     33217 MEMB     286      POPC     H2X      HAL2     0.900000E-01   1.00800           0
     33218 MEMB     286      POPC     H2Y      HAL2     0.900000E-01   1.00800           0
     33219 MEMB     286      POPC     C23      CTL2    -0.180000       12.0110           0
     33220 MEMB     286      POPC     H3R      HAL2     0.900000E-01   1.00800           0
     33221 MEMB     286      POPC     H3S      HAL2     0.900000E-01   1.00800           0
     33222 MEMB     286      POPC     C24      CTL2    -0.180000       12.0110           0
     33223 MEMB     286      POPC     H4R      HAL2     0.900000E-01   1.00800           0
     33224 MEMB     286      POPC     H4S      HAL2     0.900000E-01   1.00800           0
     33225 MEMB     286      POPC     C25      CTL2    -0.180000       12.0110           0
     33226 MEMB     286      POPC     H5R      HAL2     0.900000E-01   1.00800           0
     33227 MEMB     286      POPC     H5S      HAL2     0.900000E-01   1.00800           0
     33228 MEMB     286      POPC     C26      CTL2    -0.180000       12.0110           0
     33229 MEMB     286      POPC     H6R      HAL2     0.900000E-01   1.00800           0
     33230 MEMB     286      POPC     H6S      HAL2     0.900000E-01   1.00800           0
     33231 MEMB     286      POPC     C27      CTL2    -0.180000       12.0110           0
     33232 MEMB     286      POPC     H7R      HAL2     0.900000E-01   1.00800           0
     33233 MEMB     286      POPC     H7S      HAL2     0.900000E-01   1.00800           0
     33234 MEMB     286      POPC     C28      CTL2    -0.180000       12.0110           0
     33235 MEMB     286      POPC     H8R      HAL2     0.900000E-01   1.00800           0
     33236 MEMB     286      POPC     H8S      HAL2     0.900000E-01   1.00800           0
     33237 MEMB     286      POPC     C29      CEL1    -0.150000       12.0110           0
     33238 MEMB     286      POPC     H91      HEL1     0.150000       1.00800           0
     33239 MEMB     286      POPC     C210     CEL1    -0.150000       12.0110           0
     33240 MEMB     286      POPC     H101     HEL1     0.150000       1.00800           0
     33241 MEMB     286      POPC     C211     CTL2    -0.180000       12.0110           0
     33242 MEMB     286      POPC     H11R     HAL2     0.900000E-01   1.00800           0
     33243 MEMB     286      POPC     H11S     HAL2     0.900000E-01   1.00800           0
     33244 MEMB     286      POPC     C212     CTL2    -0.180000       12.0110           0
     33245 MEMB     286      POPC     H12R     HAL2     0.900000E-01   1.00800           0
     33246 MEMB     286      POPC     H12S     HAL2     0.900000E-01   1.00800           0
     33247 MEMB     286      POPC     C213     CTL2    -0.180000       12.0110           0
     33248 MEMB     286      POPC     H13R     HAL2     0.900000E-01   1.00800           0
     33249 MEMB     286      POPC     H13S     HAL2     0.900000E-01   1.00800           0
     33250 MEMB     286      POPC     C214     CTL2    -0.180000       12.0110           0
     33251 MEMB     286      POPC     H14R     HAL2     0.900000E-01   1.00800           0
     33252 MEMB     286      POPC     H14S     HAL2     0.900000E-01   1.00800           0
     33253 MEMB     286      POPC     C215     CTL2    -0.180000       12.0110           0
     33254 MEMB     286      POPC     H15R     HAL2     0.900000E-01   1.00800           0
     33255 MEMB     286      POPC     H15S     HAL2     0.900000E-01   1.00800           0
     33256 MEMB     286      POPC     C216     CTL2    -0.180000       12.0110           0
     33257 MEMB     286      POPC     H16R     HAL2     0.900000E-01   1.00800           0
     33258 MEMB     286      POPC     H16S     HAL2     0.900000E-01   1.00800           0
     33259 MEMB     286      POPC     C217     CTL2    -0.180000       12.0110           0
     33260 MEMB     286      POPC     H17R     HAL2     0.900000E-01   1.00800           0
     33261 MEMB     286      POPC     H17S     HAL2     0.900000E-01   1.00800           0
     33262 MEMB     286      POPC     C218     CTL3    -0.270000       12.0110           0
     33263 MEMB     286      POPC     H18R     HAL3     0.900000E-01   1.00800           0
     33264 MEMB     286      POPC     H18S     HAL3     0.900000E-01   1.00800           0
     33265 MEMB     286      POPC     H18T     HAL3     0.900000E-01   1.00800           0
     33266 MEMB     286      POPC     C33      CTL2    -0.180000       12.0110           0
     33267 MEMB     286      POPC     H3X      HAL2     0.900000E-01   1.00800           0
     33268 MEMB     286      POPC     H3Y      HAL2     0.900000E-01   1.00800           0
     33269 MEMB     286      POPC     C34      CTL2    -0.180000       12.0110           0
     33270 MEMB     286      POPC     H4X      HAL2     0.900000E-01   1.00800           0
     33271 MEMB     286      POPC     H4Y      HAL2     0.900000E-01   1.00800           0
     33272 MEMB     286      POPC     C35      CTL2    -0.180000       12.0110           0
     33273 MEMB     286      POPC     H5X      HAL2     0.900000E-01   1.00800           0
     33274 MEMB     286      POPC     H5Y      HAL2     0.900000E-01   1.00800           0
     33275 MEMB     286      POPC     C36      CTL2    -0.180000       12.0110           0
     33276 MEMB     286      POPC     H6X      HAL2     0.900000E-01   1.00800           0
     33277 MEMB     286      POPC     H6Y      HAL2     0.900000E-01   1.00800           0
     33278 MEMB     286      POPC     C37      CTL2    -0.180000       12.0110           0
     33279 MEMB     286      POPC     H7X      HAL2     0.900000E-01   1.00800           0
     33280 MEMB     286      POPC     H7Y      HAL2     0.900000E-01   1.00800           0
     33281 MEMB     286      POPC     C38      CTL2    -0.180000       12.0110           0
     33282 MEMB     286      POPC     H8X      HAL2     0.900000E-01   1.00800           0
     33283 MEMB     286      POPC     H8Y      HAL2     0.900000E-01   1.00800           0
     33284 MEMB     286      POPC     C39      CTL2    -0.180000       12.0110           0
     33285 MEMB     286      POPC     H9X      HAL2     0.900000E-01   1.00800           0
     33286 MEMB     286      POPC     H9Y      HAL2     0.900000E-01   1.00800           0
     33287 MEMB     286      POPC     C310     CTL2    -0.180000       12.0110           0
     33288 MEMB     286      POPC     H10X     HAL2     0.900000E-01   1.00800           0
     33289 MEMB     286      POPC     H10Y     HAL2     0.900000E-01   1.00800           0
     33290 MEMB     286      POPC     C311     CTL2    -0.180000       12.0110           0
     33291 MEMB     286      POPC     H11X     HAL2     0.900000E-01   1.00800           0
     33292 MEMB     286      POPC     H11Y     HAL2     0.900000E-01   1.00800           0
     33293 MEMB     286      POPC     C312     CTL2    -0.180000       12.0110           0
     33294 MEMB     286      POPC     H12X     HAL2     0.900000E-01   1.00800           0
     33295 MEMB     286      POPC     H12Y     HAL2     0.900000E-01   1.00800           0
     33296 MEMB     286      POPC     C313     CTL2    -0.180000       12.0110           0
     33297 MEMB     286      POPC     H13X     HAL2     0.900000E-01   1.00800           0
     33298 MEMB     286      POPC     H13Y     HAL2     0.900000E-01   1.00800           0
     33299 MEMB     286      POPC     C314     CTL2    -0.180000       12.0110           0
     33300 MEMB     286      POPC     H14X     HAL2     0.900000E-01   1.00800           0
     33301 MEMB     286      POPC     H14Y     HAL2     0.900000E-01   1.00800           0
     33302 MEMB     286      POPC     C315     CTL2    -0.180000       12.0110           0
     33303 MEMB     286      POPC     H15X     HAL2     0.900000E-01   1.00800           0
     33304 MEMB     286      POPC     H15Y     HAL2     0.900000E-01   1.00800           0
     33305 MEMB     286      POPC     C316     CTL3    -0.270000       12.0110           0
     33306 MEMB     286      POPC     H16X     HAL3     0.900000E-01   1.00800           0
     33307 MEMB     286      POPC     H16Y     HAL3     0.900000E-01   1.00800           0
     33308 MEMB     286      POPC     H16Z     HAL3     0.900000E-01   1.00800           0
     33309 MEMB     287      POPE     N        NH3L    -0.300000       14.0070           0
     33310 MEMB     287      POPE     HN1      HCL      0.330000       1.00800           0
     33311 MEMB     287      POPE     HN2      HCL      0.330000       1.00800           0
     33312 MEMB     287      POPE     HN3      HCL      0.330000       1.00800           0
     33313 MEMB     287      POPE     C12      CTL2     0.130000       12.0110           0
     33314 MEMB     287      POPE     H12A     HAL2     0.900000E-01   1.00800           0
     33315 MEMB     287      POPE     H12B     HAL2     0.900000E-01   1.00800           0
     33316 MEMB     287      POPE     C11      CTL2    -0.800000E-01   12.0110           0
     33317 MEMB     287      POPE     H11A     HAL2     0.900000E-01   1.00800           0
     33318 MEMB     287      POPE     H11B     HAL2     0.900000E-01   1.00800           0
     33319 MEMB     287      POPE     P        PL        1.50000       30.9740           0
     33320 MEMB     287      POPE     O13      O2L     -0.780000       15.9994           0
     33321 MEMB     287      POPE     O14      O2L     -0.780000       15.9994           0
     33322 MEMB     287      POPE     O11      OSLP    -0.570000       15.9994           0
     33323 MEMB     287      POPE     O12      OSLP    -0.570000       15.9994           0
     33324 MEMB     287      POPE     C1       CTL2    -0.800000E-01   12.0110           0
     33325 MEMB     287      POPE     HA       HAL2     0.900000E-01   1.00800           0
     33326 MEMB     287      POPE     HB       HAL2     0.900000E-01   1.00800           0
     33327 MEMB     287      POPE     C2       CTL1     0.170000       12.0110           0
     33328 MEMB     287      POPE     HS       HAL1     0.900000E-01   1.00800           0
     33329 MEMB     287      POPE     O21      OSL     -0.490000       15.9994           0
     33330 MEMB     287      POPE     C21      CL       0.900000       12.0110           0
     33331 MEMB     287      POPE     O22      OBL     -0.630000       15.9994           0
     33332 MEMB     287      POPE     C22      CTL2    -0.220000       12.0110           0
     33333 MEMB     287      POPE     H2R      HAL2     0.900000E-01   1.00800           0
     33334 MEMB     287      POPE     H2S      HAL2     0.900000E-01   1.00800           0
     33335 MEMB     287      POPE     C3       CTL2     0.800000E-01   12.0110           0
     33336 MEMB     287      POPE     HX       HAL2     0.900000E-01   1.00800           0
     33337 MEMB     287      POPE     HY       HAL2     0.900000E-01   1.00800           0
     33338 MEMB     287      POPE     O31      OSL     -0.490000       15.9994           0
     33339 MEMB     287      POPE     C31      CL       0.900000       12.0110           0
     33340 MEMB     287      POPE     O32      OBL     -0.630000       15.9994           0
     33341 MEMB     287      POPE     C32      CTL2    -0.220000       12.0110           0
     33342 MEMB     287      POPE     H2X      HAL2     0.900000E-01   1.00800           0
     33343 MEMB     287      POPE     H2Y      HAL2     0.900000E-01   1.00800           0
     33344 MEMB     287      POPE     C23      CTL2    -0.180000       12.0110           0
     33345 MEMB     287      POPE     H3R      HAL2     0.900000E-01   1.00800           0
     33346 MEMB     287      POPE     H3S      HAL2     0.900000E-01   1.00800           0
     33347 MEMB     287      POPE     C24      CTL2    -0.180000       12.0110           0
     33348 MEMB     287      POPE     H4R      HAL2     0.900000E-01   1.00800           0
     33349 MEMB     287      POPE     H4S      HAL2     0.900000E-01   1.00800           0
     33350 MEMB     287      POPE     C25      CTL2    -0.180000       12.0110           0
     33351 MEMB     287      POPE     H5R      HAL2     0.900000E-01   1.00800           0
     33352 MEMB     287      POPE     H5S      HAL2     0.900000E-01   1.00800           0
     33353 MEMB     287      POPE     C26      CTL2    -0.180000       12.0110           0
     33354 MEMB     287      POPE     H6R      HAL2     0.900000E-01   1.00800           0
     33355 MEMB     287      POPE     H6S      HAL2     0.900000E-01   1.00800           0
     33356 MEMB     287      POPE     C27      CTL2    -0.180000       12.0110           0
     33357 MEMB     287      POPE     H7R      HAL2     0.900000E-01   1.00800           0
     33358 MEMB     287      POPE     H7S      HAL2     0.900000E-01   1.00800           0
     33359 MEMB     287      POPE     C28      CTL2    -0.180000       12.0110           0
     33360 MEMB     287      POPE     H8R      HAL2     0.900000E-01   1.00800           0
     33361 MEMB     287      POPE     H8S      HAL2     0.900000E-01   1.00800           0
     33362 MEMB     287      POPE     C29      CEL1    -0.150000       12.0110           0
     33363 MEMB     287      POPE     H91      HEL1     0.150000       1.00800           0
     33364 MEMB     287      POPE     C210     CEL1    -0.150000       12.0110           0
     33365 MEMB     287      POPE     H101     HEL1     0.150000       1.00800           0
     33366 MEMB     287      POPE     C211     CTL2    -0.180000       12.0110           0
     33367 MEMB     287      POPE     H11R     HAL2     0.900000E-01   1.00800           0
     33368 MEMB     287      POPE     H11S     HAL2     0.900000E-01   1.00800           0
     33369 MEMB     287      POPE     C212     CTL2    -0.180000       12.0110           0
     33370 MEMB     287      POPE     H12R     HAL2     0.900000E-01   1.00800           0
     33371 MEMB     287      POPE     H12S     HAL2     0.900000E-01   1.00800           0
     33372 MEMB     287      POPE     C213     CTL2    -0.180000       12.0110           0
     33373 MEMB     287      POPE     H13R     HAL2     0.900000E-01   1.00800           0
     33374 MEMB     287      POPE     H13S     HAL2     0.900000E-01   1.00800           0
     33375 MEMB     287      POPE     C214     CTL2    -0.180000       12.0110           0
     33376 MEMB     287      POPE     H14R     HAL2     0.900000E-01   1.00800           0
     33377 MEMB     287      POPE     H14S     HAL2     0.900000E-01   1.00800           0
     33378 MEMB     287      POPE     C215     CTL2    -0.180000       12.0110           0
     33379 MEMB     287      POPE     H15R     HAL2     0.900000E-01   1.00800           0
     33380 MEMB     287      POPE     H15S     HAL2     0.900000E-01   1.00800           0
     33381 MEMB     287      POPE     C216     CTL2    -0.180000       12.0110           0
     33382 MEMB     287      POPE     H16R     HAL2     0.900000E-01   1.00800           0
     33383 MEMB     287      POPE     H16S     HAL2     0.900000E-01   1.00800           0
     33384 MEMB     287      POPE     C217     CTL2    -0.180000       12.0110           0
     33385 MEMB     287      POPE     H17R     HAL2     0.900000E-01   1.00800           0
     33386 MEMB     287      POPE     H17S     HAL2     0.900000E-01   1.00800           0
     33387 MEMB     287      POPE     C218     CTL3    -0.270000       12.0110           0
     33388 MEMB     287      POPE     H18R     HAL3     0.900000E-01   1.00800           0
     33389 MEMB     287      POPE     H18S     HAL3     0.900000E-01   1.00800           0
     33390 MEMB     287      POPE     H18T     HAL3     0.900000E-01   1.00800           0
     33391 MEMB     287      POPE     C33      CTL2    -0.180000       12.0110           0
     33392 MEMB     287      POPE     H3X      HAL2     0.900000E-01   1.00800           0
     33393 MEMB     287      POPE     H3Y      HAL2     0.900000E-01   1.00800           0
     33394 MEMB     287      POPE     C34      CTL2    -0.180000       12.0110           0
     33395 MEMB     287      POPE     H4X      HAL2     0.900000E-01   1.00800           0
     33396 MEMB     287      POPE     H4Y      HAL2     0.900000E-01   1.00800           0
     33397 MEMB     287      POPE     C35      CTL2    -0.180000       12.0110           0
     33398 MEMB     287      POPE     H5X      HAL2     0.900000E-01   1.00800           0
     33399 MEMB     287      POPE     H5Y      HAL2     0.900000E-01   1.00800           0
     33400 MEMB     287      POPE     C36      CTL2    -0.180000       12.0110           0
     33401 MEMB     287      POPE     H6X      HAL2     0.900000E-01   1.00800           0
     33402 MEMB     287      POPE     H6Y      HAL2     0.900000E-01   1.00800           0
     33403 MEMB     287      POPE     C37      CTL2    -0.180000       12.0110           0
     33404 MEMB     287      POPE     H7X      HAL2     0.900000E-01   1.00800           0
     33405 MEMB     287      POPE     H7Y      HAL2     0.900000E-01   1.00800           0
     33406 MEMB     287      POPE     C38      CTL2    -0.180000       12.0110           0
     33407 MEMB     287      POPE     H8X      HAL2     0.900000E-01   1.00800           0
     33408 MEMB     287      POPE     H8Y      HAL2     0.900000E-01   1.00800           0
     33409 MEMB     287      POPE     C39      CTL2    -0.180000       12.0110           0
     33410 MEMB     287      POPE     H9X      HAL2     0.900000E-01   1.00800           0
     33411 MEMB     287      POPE     H9Y      HAL2     0.900000E-01   1.00800           0
     33412 MEMB     287      POPE     C310     CTL2    -0.180000       12.0110           0
     33413 MEMB     287      POPE     H10X     HAL2     0.900000E-01   1.00800           0
     33414 MEMB     287      POPE     H10Y     HAL2     0.900000E-01   1.00800           0
     33415 MEMB     287      POPE     C311     CTL2    -0.180000       12.0110           0
     33416 MEMB     287      POPE     H11X     HAL2     0.900000E-01   1.00800           0
     33417 MEMB     287      POPE     H11Y     HAL2     0.900000E-01   1.00800           0
     33418 MEMB     287      POPE     C312     CTL2    -0.180000       12.0110           0
     33419 MEMB     287      POPE     H12X     HAL2     0.900000E-01   1.00800           0
     33420 MEMB     287      POPE     H12Y     HAL2     0.900000E-01   1.00800           0
     33421 MEMB     287      POPE     C313     CTL2    -0.180000       12.0110           0
     33422 MEMB     287      POPE     H13X     HAL2     0.900000E-01   1.00800           0
     33423 MEMB     287      POPE     H13Y     HAL2     0.900000E-01   1.00800           0
     33424 MEMB     287      POPE     C314     CTL2    -0.180000       12.0110           0
     33425 MEMB     287      POPE     H14X     HAL2     0.900000E-01   1.00800           0
     33426 MEMB     287      POPE     H14Y     HAL2     0.900000E-01   1.00800           0
     33427 MEMB     287      POPE     C315     CTL2    -0.180000       12.0110           0
     33428 MEMB     287      POPE     H15X     HAL2     0.900000E-01   1.00800           0
     33429 MEMB     287      POPE     H15Y     HAL2     0.900000E-01   1.00800           0
     33430 MEMB     287      POPE     C316     CTL3    -0.270000       12.0110           0
     33431 MEMB     287      POPE     H16X     HAL3     0.900000E-01   1.00800           0
     33432 MEMB     287      POPE     H16Y     HAL3     0.900000E-01   1.00800           0
     33433 MEMB     287      POPE     H16Z     HAL3     0.900000E-01   1.00800           0
     33434 MEMB     288      POPE     N        NH3L    -0.300000       14.0070           0
     33435 MEMB     288      POPE     HN1      HCL      0.330000       1.00800           0
     33436 MEMB     288      POPE     HN2      HCL      0.330000       1.00800           0
     33437 MEMB     288      POPE     HN3      HCL      0.330000       1.00800           0
     33438 MEMB     288      POPE     C12      CTL2     0.130000       12.0110           0
     33439 MEMB     288      POPE     H12A     HAL2     0.900000E-01   1.00800           0
     33440 MEMB     288      POPE     H12B     HAL2     0.900000E-01   1.00800           0
     33441 MEMB     288      POPE     C11      CTL2    -0.800000E-01   12.0110           0
     33442 MEMB     288      POPE     H11A     HAL2     0.900000E-01   1.00800           0
     33443 MEMB     288      POPE     H11B     HAL2     0.900000E-01   1.00800           0
     33444 MEMB     288      POPE     P        PL        1.50000       30.9740           0
     33445 MEMB     288      POPE     O13      O2L     -0.780000       15.9994           0
     33446 MEMB     288      POPE     O14      O2L     -0.780000       15.9994           0
     33447 MEMB     288      POPE     O11      OSLP    -0.570000       15.9994           0
     33448 MEMB     288      POPE     O12      OSLP    -0.570000       15.9994           0
     33449 MEMB     288      POPE     C1       CTL2    -0.800000E-01   12.0110           0
     33450 MEMB     288      POPE     HA       HAL2     0.900000E-01   1.00800           0
     33451 MEMB     288      POPE     HB       HAL2     0.900000E-01   1.00800           0
     33452 MEMB     288      POPE     C2       CTL1     0.170000       12.0110           0
     33453 MEMB     288      POPE     HS       HAL1     0.900000E-01   1.00800           0
     33454 MEMB     288      POPE     O21      OSL     -0.490000       15.9994           0
     33455 MEMB     288      POPE     C21      CL       0.900000       12.0110           0
     33456 MEMB     288      POPE     O22      OBL     -0.630000       15.9994           0
     33457 MEMB     288      POPE     C22      CTL2    -0.220000       12.0110           0
     33458 MEMB     288      POPE     H2R      HAL2     0.900000E-01   1.00800           0
     33459 MEMB     288      POPE     H2S      HAL2     0.900000E-01   1.00800           0
     33460 MEMB     288      POPE     C3       CTL2     0.800000E-01   12.0110           0
     33461 MEMB     288      POPE     HX       HAL2     0.900000E-01   1.00800           0
     33462 MEMB     288      POPE     HY       HAL2     0.900000E-01   1.00800           0
     33463 MEMB     288      POPE     O31      OSL     -0.490000       15.9994           0
     33464 MEMB     288      POPE     C31      CL       0.900000       12.0110           0
     33465 MEMB     288      POPE     O32      OBL     -0.630000       15.9994           0
     33466 MEMB     288      POPE     C32      CTL2    -0.220000       12.0110           0
     33467 MEMB     288      POPE     H2X      HAL2     0.900000E-01   1.00800           0
     33468 MEMB     288      POPE     H2Y      HAL2     0.900000E-01   1.00800           0
     33469 MEMB     288      POPE     C23      CTL2    -0.180000       12.0110           0
     33470 MEMB     288      POPE     H3R      HAL2     0.900000E-01   1.00800           0
     33471 MEMB     288      POPE     H3S      HAL2     0.900000E-01   1.00800           0
     33472 MEMB     288      POPE     C24      CTL2    -0.180000       12.0110           0
     33473 MEMB     288      POPE     H4R      HAL2     0.900000E-01   1.00800           0
     33474 MEMB     288      POPE     H4S      HAL2     0.900000E-01   1.00800           0
     33475 MEMB     288      POPE     C25      CTL2    -0.180000       12.0110           0
     33476 MEMB     288      POPE     H5R      HAL2     0.900000E-01   1.00800           0
     33477 MEMB     288      POPE     H5S      HAL2     0.900000E-01   1.00800           0
     33478 MEMB     288      POPE     C26      CTL2    -0.180000       12.0110           0
     33479 MEMB     288      POPE     H6R      HAL2     0.900000E-01   1.00800           0
     33480 MEMB     288      POPE     H6S      HAL2     0.900000E-01   1.00800           0
     33481 MEMB     288      POPE     C27      CTL2    -0.180000       12.0110           0
     33482 MEMB     288      POPE     H7R      HAL2     0.900000E-01   1.00800           0
     33483 MEMB     288      POPE     H7S      HAL2     0.900000E-01   1.00800           0
     33484 MEMB     288      POPE     C28      CTL2    -0.180000       12.0110           0
     33485 MEMB     288      POPE     H8R      HAL2     0.900000E-01   1.00800           0
     33486 MEMB     288      POPE     H8S      HAL2     0.900000E-01   1.00800           0
     33487 MEMB     288      POPE     C29      CEL1    -0.150000       12.0110           0
     33488 MEMB     288      POPE     H91      HEL1     0.150000       1.00800           0
     33489 MEMB     288      POPE     C210     CEL1    -0.150000       12.0110           0
     33490 MEMB     288      POPE     H101     HEL1     0.150000       1.00800           0
     33491 MEMB     288      POPE     C211     CTL2    -0.180000       12.0110           0
     33492 MEMB     288      POPE     H11R     HAL2     0.900000E-01   1.00800           0
     33493 MEMB     288      POPE     H11S     HAL2     0.900000E-01   1.00800           0
     33494 MEMB     288      POPE     C212     CTL2    -0.180000       12.0110           0
     33495 MEMB     288      POPE     H12R     HAL2     0.900000E-01   1.00800           0
     33496 MEMB     288      POPE     H12S     HAL2     0.900000E-01   1.00800           0
     33497 MEMB     288      POPE     C213     CTL2    -0.180000       12.0110           0
     33498 MEMB     288      POPE     H13R     HAL2     0.900000E-01   1.00800           0
     33499 MEMB     288      POPE     H13S     HAL2     0.900000E-01   1.00800           0
     33500 MEMB     288      POPE     C214     CTL2    -0.180000       12.0110           0
     33501 MEMB     288      POPE     H14R     HAL2     0.900000E-01   1.00800           0
     33502 MEMB     288      POPE     H14S     HAL2     0.900000E-01   1.00800           0
     33503 MEMB     288      POPE     C215     CTL2    -0.180000       12.0110           0
     33504 MEMB     288      POPE     H15R     HAL2     0.900000E-01   1.00800           0
     33505 MEMB     288      POPE     H15S     HAL2     0.900000E-01   1.00800           0
     33506 MEMB     288      POPE     C216     CTL2    -0.180000       12.0110           0
     33507 MEMB     288      POPE     H16R     HAL2     0.900000E-01   1.00800           0
     33508 MEMB     288      POPE     H16S     HAL2     0.900000E-01   1.00800           0
     33509 MEMB     288      POPE     C217     CTL2    -0.180000       12.0110           0
     33510 MEMB     288      POPE     H17R     HAL2     0.900000E-01   1.00800           0
     33511 MEMB     288      POPE     H17S     HAL2     0.900000E-01   1.00800           0
     33512 MEMB     288      POPE     C218     CTL3    -0.270000       12.0110           0
     33513 MEMB     288      POPE     H18R     HAL3     0.900000E-01   1.00800           0
     33514 MEMB     288      POPE     H18S     HAL3     0.900000E-01   1.00800           0
     33515 MEMB     288      POPE     H18T     HAL3     0.900000E-01   1.00800           0
     33516 MEMB     288      POPE     C33      CTL2    -0.180000       12.0110           0
     33517 MEMB     288      POPE     H3X      HAL2     0.900000E-01   1.00800           0
     33518 MEMB     288      POPE     H3Y      HAL2     0.900000E-01   1.00800           0
     33519 MEMB     288      POPE     C34      CTL2    -0.180000       12.0110           0
     33520 MEMB     288      POPE     H4X      HAL2     0.900000E-01   1.00800           0
     33521 MEMB     288      POPE     H4Y      HAL2     0.900000E-01   1.00800           0
     33522 MEMB     288      POPE     C35      CTL2    -0.180000       12.0110           0
     33523 MEMB     288      POPE     H5X      HAL2     0.900000E-01   1.00800           0
     33524 MEMB     288      POPE     H5Y      HAL2     0.900000E-01   1.00800           0
     33525 MEMB     288      POPE     C36      CTL2    -0.180000       12.0110           0
     33526 MEMB     288      POPE     H6X      HAL2     0.900000E-01   1.00800           0
     33527 MEMB     288      POPE     H6Y      HAL2     0.900000E-01   1.00800           0
     33528 MEMB     288      POPE     C37      CTL2    -0.180000       12.0110           0
     33529 MEMB     288      POPE     H7X      HAL2     0.900000E-01   1.00800           0
     33530 MEMB     288      POPE     H7Y      HAL2     0.900000E-01   1.00800           0
     33531 MEMB     288      POPE     C38      CTL2    -0.180000       12.0110           0
     33532 MEMB     288      POPE     H8X      HAL2     0.900000E-01   1.00800           0
     33533 MEMB     288      POPE     H8Y      HAL2     0.900000E-01   1.00800           0
     33534 MEMB     288      POPE     C39      CTL2    -0.180000       12.0110           0
     33535 MEMB     288      POPE     H9X      HAL2     0.900000E-01   1.00800           0
     33536 MEMB     288      POPE     H9Y      HAL2     0.900000E-01   1.00800           0
     33537 MEMB     288      POPE     C310     CTL2    -0.180000       12.0110           0
     33538 MEMB     288      POPE     H10X     HAL2     0.900000E-01   1.00800           0
     33539 MEMB     288      POPE     H10Y     HAL2     0.900000E-01   1.00800           0
     33540 MEMB     288      POPE     C311     CTL2    -0.180000       12.0110           0
     33541 MEMB     288      POPE     H11X     HAL2     0.900000E-01   1.00800           0
     33542 MEMB     288      POPE     H11Y     HAL2     0.900000E-01   1.00800           0
     33543 MEMB     288      POPE     C312     CTL2    -0.180000       12.0110           0
     33544 MEMB     288      POPE     H12X     HAL2     0.900000E-01   1.00800           0
     33545 MEMB     288      POPE     H12Y     HAL2     0.900000E-01   1.00800           0
     33546 MEMB     288      POPE     C313     CTL2    -0.180000       12.0110           0
     33547 MEMB     288      POPE     H13X     HAL2     0.900000E-01   1.00800           0
     33548 MEMB     288      POPE     H13Y     HAL2     0.900000E-01   1.00800           0
     33549 MEMB     288      POPE     C314     CTL2    -0.180000       12.0110           0
     33550 MEMB     288      POPE     H14X     HAL2     0.900000E-01   1.00800           0
     33551 MEMB     288      POPE     H14Y     HAL2     0.900000E-01   1.00800           0
     33552 MEMB     288      POPE     C315     CTL2    -0.180000       12.0110           0
     33553 MEMB     288      POPE     H15X     HAL2     0.900000E-01   1.00800           0
     33554 MEMB     288      POPE     H15Y     HAL2     0.900000E-01   1.00800           0
     33555 MEMB     288      POPE     C316     CTL3    -0.270000       12.0110           0
     33556 MEMB     288      POPE     H16X     HAL3     0.900000E-01   1.00800           0
     33557 MEMB     288      POPE     H16Y     HAL3     0.900000E-01   1.00800           0
     33558 MEMB     288      POPE     H16Z     HAL3     0.900000E-01   1.00800           0
     33559 MEMB     289      POPE     N        NH3L    -0.300000       14.0070           0
     33560 MEMB     289      POPE     HN1      HCL      0.330000       1.00800           0
     33561 MEMB     289      POPE     HN2      HCL      0.330000       1.00800           0
     33562 MEMB     289      POPE     HN3      HCL      0.330000       1.00800           0
     33563 MEMB     289      POPE     C12      CTL2     0.130000       12.0110           0
     33564 MEMB     289      POPE     H12A     HAL2     0.900000E-01   1.00800           0
     33565 MEMB     289      POPE     H12B     HAL2     0.900000E-01   1.00800           0
     33566 MEMB     289      POPE     C11      CTL2    -0.800000E-01   12.0110           0
     33567 MEMB     289      POPE     H11A     HAL2     0.900000E-01   1.00800           0
     33568 MEMB     289      POPE     H11B     HAL2     0.900000E-01   1.00800           0
     33569 MEMB     289      POPE     P        PL        1.50000       30.9740           0
     33570 MEMB     289      POPE     O13      O2L     -0.780000       15.9994           0
     33571 MEMB     289      POPE     O14      O2L     -0.780000       15.9994           0
     33572 MEMB     289      POPE     O11      OSLP    -0.570000       15.9994           0
     33573 MEMB     289      POPE     O12      OSLP    -0.570000       15.9994           0
     33574 MEMB     289      POPE     C1       CTL2    -0.800000E-01   12.0110           0
     33575 MEMB     289      POPE     HA       HAL2     0.900000E-01   1.00800           0
     33576 MEMB     289      POPE     HB       HAL2     0.900000E-01   1.00800           0
     33577 MEMB     289      POPE     C2       CTL1     0.170000       12.0110           0
     33578 MEMB     289      POPE     HS       HAL1     0.900000E-01   1.00800           0
     33579 MEMB     289      POPE     O21      OSL     -0.490000       15.9994           0
     33580 MEMB     289      POPE     C21      CL       0.900000       12.0110           0
     33581 MEMB     289      POPE     O22      OBL     -0.630000       15.9994           0
     33582 MEMB     289      POPE     C22      CTL2    -0.220000       12.0110           0
     33583 MEMB     289      POPE     H2R      HAL2     0.900000E-01   1.00800           0
     33584 MEMB     289      POPE     H2S      HAL2     0.900000E-01   1.00800           0
     33585 MEMB     289      POPE     C3       CTL2     0.800000E-01   12.0110           0
     33586 MEMB     289      POPE     HX       HAL2     0.900000E-01   1.00800           0
     33587 MEMB     289      POPE     HY       HAL2     0.900000E-01   1.00800           0
     33588 MEMB     289      POPE     O31      OSL     -0.490000       15.9994           0
     33589 MEMB     289      POPE     C31      CL       0.900000       12.0110           0
     33590 MEMB     289      POPE     O32      OBL     -0.630000       15.9994           0
     33591 MEMB     289      POPE     C32      CTL2    -0.220000       12.0110           0
     33592 MEMB     289      POPE     H2X      HAL2     0.900000E-01   1.00800           0
     33593 MEMB     289      POPE     H2Y      HAL2     0.900000E-01   1.00800           0
     33594 MEMB     289      POPE     C23      CTL2    -0.180000       12.0110           0
     33595 MEMB     289      POPE     H3R      HAL2     0.900000E-01   1.00800           0
     33596 MEMB     289      POPE     H3S      HAL2     0.900000E-01   1.00800           0
     33597 MEMB     289      POPE     C24      CTL2    -0.180000       12.0110           0
     33598 MEMB     289      POPE     H4R      HAL2     0.900000E-01   1.00800           0
     33599 MEMB     289      POPE     H4S      HAL2     0.900000E-01   1.00800           0
     33600 MEMB     289      POPE     C25      CTL2    -0.180000       12.0110           0
     33601 MEMB     289      POPE     H5R      HAL2     0.900000E-01   1.00800           0
     33602 MEMB     289      POPE     H5S      HAL2     0.900000E-01   1.00800           0
     33603 MEMB     289      POPE     C26      CTL2    -0.180000       12.0110           0
     33604 MEMB     289      POPE     H6R      HAL2     0.900000E-01   1.00800           0
     33605 MEMB     289      POPE     H6S      HAL2     0.900000E-01   1.00800           0
     33606 MEMB     289      POPE     C27      CTL2    -0.180000       12.0110           0
     33607 MEMB     289      POPE     H7R      HAL2     0.900000E-01   1.00800           0
     33608 MEMB     289      POPE     H7S      HAL2     0.900000E-01   1.00800           0
     33609 MEMB     289      POPE     C28      CTL2    -0.180000       12.0110           0
     33610 MEMB     289      POPE     H8R      HAL2     0.900000E-01   1.00800           0
     33611 MEMB     289      POPE     H8S      HAL2     0.900000E-01   1.00800           0
     33612 MEMB     289      POPE     C29      CEL1    -0.150000       12.0110           0
     33613 MEMB     289      POPE     H91      HEL1     0.150000       1.00800           0
     33614 MEMB     289      POPE     C210     CEL1    -0.150000       12.0110           0
     33615 MEMB     289      POPE     H101     HEL1     0.150000       1.00800           0
     33616 MEMB     289      POPE     C211     CTL2    -0.180000       12.0110           0
     33617 MEMB     289      POPE     H11R     HAL2     0.900000E-01   1.00800           0
     33618 MEMB     289      POPE     H11S     HAL2     0.900000E-01   1.00800           0
     33619 MEMB     289      POPE     C212     CTL2    -0.180000       12.0110           0
     33620 MEMB     289      POPE     H12R     HAL2     0.900000E-01   1.00800           0
     33621 MEMB     289      POPE     H12S     HAL2     0.900000E-01   1.00800           0
     33622 MEMB     289      POPE     C213     CTL2    -0.180000       12.0110           0
     33623 MEMB     289      POPE     H13R     HAL2     0.900000E-01   1.00800           0
     33624 MEMB     289      POPE     H13S     HAL2     0.900000E-01   1.00800           0
     33625 MEMB     289      POPE     C214     CTL2    -0.180000       12.0110           0
     33626 MEMB     289      POPE     H14R     HAL2     0.900000E-01   1.00800           0
     33627 MEMB     289      POPE     H14S     HAL2     0.900000E-01   1.00800           0
     33628 MEMB     289      POPE     C215     CTL2    -0.180000       12.0110           0
     33629 MEMB     289      POPE     H15R     HAL2     0.900000E-01   1.00800           0
     33630 MEMB     289      POPE     H15S     HAL2     0.900000E-01   1.00800           0
     33631 MEMB     289      POPE     C216     CTL2    -0.180000       12.0110           0
     33632 MEMB     289      POPE     H16R     HAL2     0.900000E-01   1.00800           0
     33633 MEMB     289      POPE     H16S     HAL2     0.900000E-01   1.00800           0
     33634 MEMB     289      POPE     C217     CTL2    -0.180000       12.0110           0
     33635 MEMB     289      POPE     H17R     HAL2     0.900000E-01   1.00800           0
     33636 MEMB     289      POPE     H17S     HAL2     0.900000E-01   1.00800           0
     33637 MEMB     289      POPE     C218     CTL3    -0.270000       12.0110           0
     33638 MEMB     289      POPE     H18R     HAL3     0.900000E-01   1.00800           0
     33639 MEMB     289      POPE     H18S     HAL3     0.900000E-01   1.00800           0
     33640 MEMB     289      POPE     H18T     HAL3     0.900000E-01   1.00800           0
     33641 MEMB     289      POPE     C33      CTL2    -0.180000       12.0110           0
     33642 MEMB     289      POPE     H3X      HAL2     0.900000E-01   1.00800           0
     33643 MEMB     289      POPE     H3Y      HAL2     0.900000E-01   1.00800           0
     33644 MEMB     289      POPE     C34      CTL2    -0.180000       12.0110           0
     33645 MEMB     289      POPE     H4X      HAL2     0.900000E-01   1.00800           0
     33646 MEMB     289      POPE     H4Y      HAL2     0.900000E-01   1.00800           0
     33647 MEMB     289      POPE     C35      CTL2    -0.180000       12.0110           0
     33648 MEMB     289      POPE     H5X      HAL2     0.900000E-01   1.00800           0
     33649 MEMB     289      POPE     H5Y      HAL2     0.900000E-01   1.00800           0
     33650 MEMB     289      POPE     C36      CTL2    -0.180000       12.0110           0
     33651 MEMB     289      POPE     H6X      HAL2     0.900000E-01   1.00800           0
     33652 MEMB     289      POPE     H6Y      HAL2     0.900000E-01   1.00800           0
     33653 MEMB     289      POPE     C37      CTL2    -0.180000       12.0110           0
     33654 MEMB     289      POPE     H7X      HAL2     0.900000E-01   1.00800           0
     33655 MEMB     289      POPE     H7Y      HAL2     0.900000E-01   1.00800           0
     33656 MEMB     289      POPE     C38      CTL2    -0.180000       12.0110           0
     33657 MEMB     289      POPE     H8X      HAL2     0.900000E-01   1.00800           0
     33658 MEMB     289      POPE     H8Y      HAL2     0.900000E-01   1.00800           0
     33659 MEMB     289      POPE     C39      CTL2    -0.180000       12.0110           0
     33660 MEMB     289      POPE     H9X      HAL2     0.900000E-01   1.00800           0
     33661 MEMB     289      POPE     H9Y      HAL2     0.900000E-01   1.00800           0
     33662 MEMB     289      POPE     C310     CTL2    -0.180000       12.0110           0
     33663 MEMB     289      POPE     H10X     HAL2     0.900000E-01   1.00800           0
     33664 MEMB     289      POPE     H10Y     HAL2     0.900000E-01   1.00800           0
     33665 MEMB     289      POPE     C311     CTL2    -0.180000       12.0110           0
     33666 MEMB     289      POPE     H11X     HAL2     0.900000E-01   1.00800           0
     33667 MEMB     289      POPE     H11Y     HAL2     0.900000E-01   1.00800           0
     33668 MEMB     289      POPE     C312     CTL2    -0.180000       12.0110           0
     33669 MEMB     289      POPE     H12X     HAL2     0.900000E-01   1.00800           0
     33670 MEMB     289      POPE     H12Y     HAL2     0.900000E-01   1.00800           0
     33671 MEMB     289      POPE     C313     CTL2    -0.180000       12.0110           0
     33672 MEMB     289      POPE     H13X     HAL2     0.900000E-01   1.00800           0
     33673 MEMB     289      POPE     H13Y     HAL2     0.900000E-01   1.00800           0
     33674 MEMB     289      POPE     C314     CTL2    -0.180000       12.0110           0
     33675 MEMB     289      POPE     H14X     HAL2     0.900000E-01   1.00800           0
     33676 MEMB     289      POPE     H14Y     HAL2     0.900000E-01   1.00800           0
     33677 MEMB     289      POPE     C315     CTL2    -0.180000       12.0110           0
     33678 MEMB     289      POPE     H15X     HAL2     0.900000E-01   1.00800           0
     33679 MEMB     289      POPE     H15Y     HAL2     0.900000E-01   1.00800           0
     33680 MEMB     289      POPE     C316     CTL3    -0.270000       12.0110           0
     33681 MEMB     289      POPE     H16X     HAL3     0.900000E-01   1.00800           0
     33682 MEMB     289      POPE     H16Y     HAL3     0.900000E-01   1.00800           0
     33683 MEMB     289      POPE     H16Z     HAL3     0.900000E-01   1.00800           0
     33684 MEMB     290      POPC     N        NTL     -0.600000       14.0070           0
     33685 MEMB     290      POPC     C12      CTL2    -0.100000       12.0110           0
     33686 MEMB     290      POPC     H12A     HL       0.250000       1.00800           0
     33687 MEMB     290      POPC     H12B     HL       0.250000       1.00800           0
     33688 MEMB     290      POPC     C13      CTL5    -0.350000       12.0110           0
     33689 MEMB     290      POPC     H13A     HL       0.250000       1.00800           0
     33690 MEMB     290      POPC     H13B     HL       0.250000       1.00800           0
     33691 MEMB     290      POPC     H13C     HL       0.250000       1.00800           0
     33692 MEMB     290      POPC     C14      CTL5    -0.350000       12.0110           0
     33693 MEMB     290      POPC     H14A     HL       0.250000       1.00800           0
     33694 MEMB     290      POPC     H14B     HL       0.250000       1.00800           0
     33695 MEMB     290      POPC     H14C     HL       0.250000       1.00800           0
     33696 MEMB     290      POPC     C15      CTL5    -0.350000       12.0110           0
     33697 MEMB     290      POPC     H15A     HL       0.250000       1.00800           0
     33698 MEMB     290      POPC     H15B     HL       0.250000       1.00800           0
     33699 MEMB     290      POPC     H15C     HL       0.250000       1.00800           0
     33700 MEMB     290      POPC     C11      CTL2    -0.800000E-01   12.0110           0
     33701 MEMB     290      POPC     H11A     HAL2     0.900000E-01   1.00800           0
     33702 MEMB     290      POPC     H11B     HAL2     0.900000E-01   1.00800           0
     33703 MEMB     290      POPC     P        PL        1.50000       30.9740           0
     33704 MEMB     290      POPC     O13      O2L     -0.780000       15.9994           0
     33705 MEMB     290      POPC     O14      O2L     -0.780000       15.9994           0
     33706 MEMB     290      POPC     O12      OSLP    -0.570000       15.9994           0
     33707 MEMB     290      POPC     O11      OSLP    -0.570000       15.9994           0
     33708 MEMB     290      POPC     C1       CTL2    -0.800000E-01   12.0110           0
     33709 MEMB     290      POPC     HA       HAL2     0.900000E-01   1.00800           0
     33710 MEMB     290      POPC     HB       HAL2     0.900000E-01   1.00800           0
     33711 MEMB     290      POPC     C2       CTL1     0.170000       12.0110           0
     33712 MEMB     290      POPC     HS       HAL1     0.900000E-01   1.00800           0
     33713 MEMB     290      POPC     O21      OSL     -0.490000       15.9994           0
     33714 MEMB     290      POPC     C21      CL       0.900000       12.0110           0
     33715 MEMB     290      POPC     O22      OBL     -0.630000       15.9994           0
     33716 MEMB     290      POPC     C22      CTL2    -0.220000       12.0110           0
     33717 MEMB     290      POPC     H2R      HAL2     0.900000E-01   1.00800           0
     33718 MEMB     290      POPC     H2S      HAL2     0.900000E-01   1.00800           0
     33719 MEMB     290      POPC     C3       CTL2     0.800000E-01   12.0110           0
     33720 MEMB     290      POPC     HX       HAL2     0.900000E-01   1.00800           0
     33721 MEMB     290      POPC     HY       HAL2     0.900000E-01   1.00800           0
     33722 MEMB     290      POPC     O31      OSL     -0.490000       15.9994           0
     33723 MEMB     290      POPC     C31      CL       0.900000       12.0110           0
     33724 MEMB     290      POPC     O32      OBL     -0.630000       15.9994           0
     33725 MEMB     290      POPC     C32      CTL2    -0.220000       12.0110           0
     33726 MEMB     290      POPC     H2X      HAL2     0.900000E-01   1.00800           0
     33727 MEMB     290      POPC     H2Y      HAL2     0.900000E-01   1.00800           0
     33728 MEMB     290      POPC     C23      CTL2    -0.180000       12.0110           0
     33729 MEMB     290      POPC     H3R      HAL2     0.900000E-01   1.00800           0
     33730 MEMB     290      POPC     H3S      HAL2     0.900000E-01   1.00800           0
     33731 MEMB     290      POPC     C24      CTL2    -0.180000       12.0110           0
     33732 MEMB     290      POPC     H4R      HAL2     0.900000E-01   1.00800           0
     33733 MEMB     290      POPC     H4S      HAL2     0.900000E-01   1.00800           0
     33734 MEMB     290      POPC     C25      CTL2    -0.180000       12.0110           0
     33735 MEMB     290      POPC     H5R      HAL2     0.900000E-01   1.00800           0
     33736 MEMB     290      POPC     H5S      HAL2     0.900000E-01   1.00800           0
     33737 MEMB     290      POPC     C26      CTL2    -0.180000       12.0110           0
     33738 MEMB     290      POPC     H6R      HAL2     0.900000E-01   1.00800           0
     33739 MEMB     290      POPC     H6S      HAL2     0.900000E-01   1.00800           0
     33740 MEMB     290      POPC     C27      CTL2    -0.180000       12.0110           0
     33741 MEMB     290      POPC     H7R      HAL2     0.900000E-01   1.00800           0
     33742 MEMB     290      POPC     H7S      HAL2     0.900000E-01   1.00800           0
     33743 MEMB     290      POPC     C28      CTL2    -0.180000       12.0110           0
     33744 MEMB     290      POPC     H8R      HAL2     0.900000E-01   1.00800           0
     33745 MEMB     290      POPC     H8S      HAL2     0.900000E-01   1.00800           0
     33746 MEMB     290      POPC     C29      CEL1    -0.150000       12.0110           0
     33747 MEMB     290      POPC     H91      HEL1     0.150000       1.00800           0
     33748 MEMB     290      POPC     C210     CEL1    -0.150000       12.0110           0
     33749 MEMB     290      POPC     H101     HEL1     0.150000       1.00800           0
     33750 MEMB     290      POPC     C211     CTL2    -0.180000       12.0110           0
     33751 MEMB     290      POPC     H11R     HAL2     0.900000E-01   1.00800           0
     33752 MEMB     290      POPC     H11S     HAL2     0.900000E-01   1.00800           0
     33753 MEMB     290      POPC     C212     CTL2    -0.180000       12.0110           0
     33754 MEMB     290      POPC     H12R     HAL2     0.900000E-01   1.00800           0
     33755 MEMB     290      POPC     H12S     HAL2     0.900000E-01   1.00800           0
     33756 MEMB     290      POPC     C213     CTL2    -0.180000       12.0110           0
     33757 MEMB     290      POPC     H13R     HAL2     0.900000E-01   1.00800           0
     33758 MEMB     290      POPC     H13S     HAL2     0.900000E-01   1.00800           0
     33759 MEMB     290      POPC     C214     CTL2    -0.180000       12.0110           0
     33760 MEMB     290      POPC     H14R     HAL2     0.900000E-01   1.00800           0
     33761 MEMB     290      POPC     H14S     HAL2     0.900000E-01   1.00800           0
     33762 MEMB     290      POPC     C215     CTL2    -0.180000       12.0110           0
     33763 MEMB     290      POPC     H15R     HAL2     0.900000E-01   1.00800           0
     33764 MEMB     290      POPC     H15S     HAL2     0.900000E-01   1.00800           0
     33765 MEMB     290      POPC     C216     CTL2    -0.180000       12.0110           0
     33766 MEMB     290      POPC     H16R     HAL2     0.900000E-01   1.00800           0
     33767 MEMB     290      POPC     H16S     HAL2     0.900000E-01   1.00800           0
     33768 MEMB     290      POPC     C217     CTL2    -0.180000       12.0110           0
     33769 MEMB     290      POPC     H17R     HAL2     0.900000E-01   1.00800           0
     33770 MEMB     290      POPC     H17S     HAL2     0.900000E-01   1.00800           0
     33771 MEMB     290      POPC     C218     CTL3    -0.270000       12.0110           0
     33772 MEMB     290      POPC     H18R     HAL3     0.900000E-01   1.00800           0
     33773 MEMB     290      POPC     H18S     HAL3     0.900000E-01   1.00800           0
     33774 MEMB     290      POPC     H18T     HAL3     0.900000E-01   1.00800           0
     33775 MEMB     290      POPC     C33      CTL2    -0.180000       12.0110           0
     33776 MEMB     290      POPC     H3X      HAL2     0.900000E-01   1.00800           0
     33777 MEMB     290      POPC     H3Y      HAL2     0.900000E-01   1.00800           0
     33778 MEMB     290      POPC     C34      CTL2    -0.180000       12.0110           0
     33779 MEMB     290      POPC     H4X      HAL2     0.900000E-01   1.00800           0
     33780 MEMB     290      POPC     H4Y      HAL2     0.900000E-01   1.00800           0
     33781 MEMB     290      POPC     C35      CTL2    -0.180000       12.0110           0
     33782 MEMB     290      POPC     H5X      HAL2     0.900000E-01   1.00800           0
     33783 MEMB     290      POPC     H5Y      HAL2     0.900000E-01   1.00800           0
     33784 MEMB     290      POPC     C36      CTL2    -0.180000       12.0110           0
     33785 MEMB     290      POPC     H6X      HAL2     0.900000E-01   1.00800           0
     33786 MEMB     290      POPC     H6Y      HAL2     0.900000E-01   1.00800           0
     33787 MEMB     290      POPC     C37      CTL2    -0.180000       12.0110           0
     33788 MEMB     290      POPC     H7X      HAL2     0.900000E-01   1.00800           0
     33789 MEMB     290      POPC     H7Y      HAL2     0.900000E-01   1.00800           0
     33790 MEMB     290      POPC     C38      CTL2    -0.180000       12.0110           0
     33791 MEMB     290      POPC     H8X      HAL2     0.900000E-01   1.00800           0
     33792 MEMB     290      POPC     H8Y      HAL2     0.900000E-01   1.00800           0
     33793 MEMB     290      POPC     C39      CTL2    -0.180000       12.0110           0
     33794 MEMB     290      POPC     H9X      HAL2     0.900000E-01   1.00800           0
     33795 MEMB     290      POPC     H9Y      HAL2     0.900000E-01   1.00800           0
     33796 MEMB     290      POPC     C310     CTL2    -0.180000       12.0110           0
     33797 MEMB     290      POPC     H10X     HAL2     0.900000E-01   1.00800           0
     33798 MEMB     290      POPC     H10Y     HAL2     0.900000E-01   1.00800           0
     33799 MEMB     290      POPC     C311     CTL2    -0.180000       12.0110           0
     33800 MEMB     290      POPC     H11X     HAL2     0.900000E-01   1.00800           0
     33801 MEMB     290      POPC     H11Y     HAL2     0.900000E-01   1.00800           0
     33802 MEMB     290      POPC     C312     CTL2    -0.180000       12.0110           0
     33803 MEMB     290      POPC     H12X     HAL2     0.900000E-01   1.00800           0
     33804 MEMB     290      POPC     H12Y     HAL2     0.900000E-01   1.00800           0
     33805 MEMB     290      POPC     C313     CTL2    -0.180000       12.0110           0
     33806 MEMB     290      POPC     H13X     HAL2     0.900000E-01   1.00800           0
     33807 MEMB     290      POPC     H13Y     HAL2     0.900000E-01   1.00800           0
     33808 MEMB     290      POPC     C314     CTL2    -0.180000       12.0110           0
     33809 MEMB     290      POPC     H14X     HAL2     0.900000E-01   1.00800           0
     33810 MEMB     290      POPC     H14Y     HAL2     0.900000E-01   1.00800           0
     33811 MEMB     290      POPC     C315     CTL2    -0.180000       12.0110           0
     33812 MEMB     290      POPC     H15X     HAL2     0.900000E-01   1.00800           0
     33813 MEMB     290      POPC     H15Y     HAL2     0.900000E-01   1.00800           0
     33814 MEMB     290      POPC     C316     CTL3    -0.270000       12.0110           0
     33815 MEMB     290      POPC     H16X     HAL3     0.900000E-01   1.00800           0
     33816 MEMB     290      POPC     H16Y     HAL3     0.900000E-01   1.00800           0
     33817 MEMB     290      POPC     H16Z     HAL3     0.900000E-01   1.00800           0
     33818 MEMB     291      POPC     N        NTL     -0.600000       14.0070           0
     33819 MEMB     291      POPC     C12      CTL2    -0.100000       12.0110           0
     33820 MEMB     291      POPC     H12A     HL       0.250000       1.00800           0
     33821 MEMB     291      POPC     H12B     HL       0.250000       1.00800           0
     33822 MEMB     291      POPC     C13      CTL5    -0.350000       12.0110           0
     33823 MEMB     291      POPC     H13A     HL       0.250000       1.00800           0
     33824 MEMB     291      POPC     H13B     HL       0.250000       1.00800           0
     33825 MEMB     291      POPC     H13C     HL       0.250000       1.00800           0
     33826 MEMB     291      POPC     C14      CTL5    -0.350000       12.0110           0
     33827 MEMB     291      POPC     H14A     HL       0.250000       1.00800           0
     33828 MEMB     291      POPC     H14B     HL       0.250000       1.00800           0
     33829 MEMB     291      POPC     H14C     HL       0.250000       1.00800           0
     33830 MEMB     291      POPC     C15      CTL5    -0.350000       12.0110           0
     33831 MEMB     291      POPC     H15A     HL       0.250000       1.00800           0
     33832 MEMB     291      POPC     H15B     HL       0.250000       1.00800           0
     33833 MEMB     291      POPC     H15C     HL       0.250000       1.00800           0
     33834 MEMB     291      POPC     C11      CTL2    -0.800000E-01   12.0110           0
     33835 MEMB     291      POPC     H11A     HAL2     0.900000E-01   1.00800           0
     33836 MEMB     291      POPC     H11B     HAL2     0.900000E-01   1.00800           0
     33837 MEMB     291      POPC     P        PL        1.50000       30.9740           0
     33838 MEMB     291      POPC     O13      O2L     -0.780000       15.9994           0
     33839 MEMB     291      POPC     O14      O2L     -0.780000       15.9994           0
     33840 MEMB     291      POPC     O12      OSLP    -0.570000       15.9994           0
     33841 MEMB     291      POPC     O11      OSLP    -0.570000       15.9994           0
     33842 MEMB     291      POPC     C1       CTL2    -0.800000E-01   12.0110           0
     33843 MEMB     291      POPC     HA       HAL2     0.900000E-01   1.00800           0
     33844 MEMB     291      POPC     HB       HAL2     0.900000E-01   1.00800           0
     33845 MEMB     291      POPC     C2       CTL1     0.170000       12.0110           0
     33846 MEMB     291      POPC     HS       HAL1     0.900000E-01   1.00800           0
     33847 MEMB     291      POPC     O21      OSL     -0.490000       15.9994           0
     33848 MEMB     291      POPC     C21      CL       0.900000       12.0110           0
     33849 MEMB     291      POPC     O22      OBL     -0.630000       15.9994           0
     33850 MEMB     291      POPC     C22      CTL2    -0.220000       12.0110           0
     33851 MEMB     291      POPC     H2R      HAL2     0.900000E-01   1.00800           0
     33852 MEMB     291      POPC     H2S      HAL2     0.900000E-01   1.00800           0
     33853 MEMB     291      POPC     C3       CTL2     0.800000E-01   12.0110           0
     33854 MEMB     291      POPC     HX       HAL2     0.900000E-01   1.00800           0
     33855 MEMB     291      POPC     HY       HAL2     0.900000E-01   1.00800           0
     33856 MEMB     291      POPC     O31      OSL     -0.490000       15.9994           0
     33857 MEMB     291      POPC     C31      CL       0.900000       12.0110           0
     33858 MEMB     291      POPC     O32      OBL     -0.630000       15.9994           0
     33859 MEMB     291      POPC     C32      CTL2    -0.220000       12.0110           0
     33860 MEMB     291      POPC     H2X      HAL2     0.900000E-01   1.00800           0
     33861 MEMB     291      POPC     H2Y      HAL2     0.900000E-01   1.00800           0
     33862 MEMB     291      POPC     C23      CTL2    -0.180000       12.0110           0
     33863 MEMB     291      POPC     H3R      HAL2     0.900000E-01   1.00800           0
     33864 MEMB     291      POPC     H3S      HAL2     0.900000E-01   1.00800           0
     33865 MEMB     291      POPC     C24      CTL2    -0.180000       12.0110           0
     33866 MEMB     291      POPC     H4R      HAL2     0.900000E-01   1.00800           0
     33867 MEMB     291      POPC     H4S      HAL2     0.900000E-01   1.00800           0
     33868 MEMB     291      POPC     C25      CTL2    -0.180000       12.0110           0
     33869 MEMB     291      POPC     H5R      HAL2     0.900000E-01   1.00800           0
     33870 MEMB     291      POPC     H5S      HAL2     0.900000E-01   1.00800           0
     33871 MEMB     291      POPC     C26      CTL2    -0.180000       12.0110           0
     33872 MEMB     291      POPC     H6R      HAL2     0.900000E-01   1.00800           0
     33873 MEMB     291      POPC     H6S      HAL2     0.900000E-01   1.00800           0
     33874 MEMB     291      POPC     C27      CTL2    -0.180000       12.0110           0
     33875 MEMB     291      POPC     H7R      HAL2     0.900000E-01   1.00800           0
     33876 MEMB     291      POPC     H7S      HAL2     0.900000E-01   1.00800           0
     33877 MEMB     291      POPC     C28      CTL2    -0.180000       12.0110           0
     33878 MEMB     291      POPC     H8R      HAL2     0.900000E-01   1.00800           0
     33879 MEMB     291      POPC     H8S      HAL2     0.900000E-01   1.00800           0
     33880 MEMB     291      POPC     C29      CEL1    -0.150000       12.0110           0
     33881 MEMB     291      POPC     H91      HEL1     0.150000       1.00800           0
     33882 MEMB     291      POPC     C210     CEL1    -0.150000       12.0110           0
     33883 MEMB     291      POPC     H101     HEL1     0.150000       1.00800           0
     33884 MEMB     291      POPC     C211     CTL2    -0.180000       12.0110           0
     33885 MEMB     291      POPC     H11R     HAL2     0.900000E-01   1.00800           0
     33886 MEMB     291      POPC     H11S     HAL2     0.900000E-01   1.00800           0
     33887 MEMB     291      POPC     C212     CTL2    -0.180000       12.0110           0
     33888 MEMB     291      POPC     H12R     HAL2     0.900000E-01   1.00800           0
     33889 MEMB     291      POPC     H12S     HAL2     0.900000E-01   1.00800           0
     33890 MEMB     291      POPC     C213     CTL2    -0.180000       12.0110           0
     33891 MEMB     291      POPC     H13R     HAL2     0.900000E-01   1.00800           0
     33892 MEMB     291      POPC     H13S     HAL2     0.900000E-01   1.00800           0
     33893 MEMB     291      POPC     C214     CTL2    -0.180000       12.0110           0
     33894 MEMB     291      POPC     H14R     HAL2     0.900000E-01   1.00800           0
     33895 MEMB     291      POPC     H14S     HAL2     0.900000E-01   1.00800           0
     33896 MEMB     291      POPC     C215     CTL2    -0.180000       12.0110           0
     33897 MEMB     291      POPC     H15R     HAL2     0.900000E-01   1.00800           0
     33898 MEMB     291      POPC     H15S     HAL2     0.900000E-01   1.00800           0
     33899 MEMB     291      POPC     C216     CTL2    -0.180000       12.0110           0
     33900 MEMB     291      POPC     H16R     HAL2     0.900000E-01   1.00800           0
     33901 MEMB     291      POPC     H16S     HAL2     0.900000E-01   1.00800           0
     33902 MEMB     291      POPC     C217     CTL2    -0.180000       12.0110           0
     33903 MEMB     291      POPC     H17R     HAL2     0.900000E-01   1.00800           0
     33904 MEMB     291      POPC     H17S     HAL2     0.900000E-01   1.00800           0
     33905 MEMB     291      POPC     C218     CTL3    -0.270000       12.0110           0
     33906 MEMB     291      POPC     H18R     HAL3     0.900000E-01   1.00800           0
     33907 MEMB     291      POPC     H18S     HAL3     0.900000E-01   1.00800           0
     33908 MEMB     291      POPC     H18T     HAL3     0.900000E-01   1.00800           0
     33909 MEMB     291      POPC     C33      CTL2    -0.180000       12.0110           0
     33910 MEMB     291      POPC     H3X      HAL2     0.900000E-01   1.00800           0
     33911 MEMB     291      POPC     H3Y      HAL2     0.900000E-01   1.00800           0
     33912 MEMB     291      POPC     C34      CTL2    -0.180000       12.0110           0
     33913 MEMB     291      POPC     H4X      HAL2     0.900000E-01   1.00800           0
     33914 MEMB     291      POPC     H4Y      HAL2     0.900000E-01   1.00800           0
     33915 MEMB     291      POPC     C35      CTL2    -0.180000       12.0110           0
     33916 MEMB     291      POPC     H5X      HAL2     0.900000E-01   1.00800           0
     33917 MEMB     291      POPC     H5Y      HAL2     0.900000E-01   1.00800           0
     33918 MEMB     291      POPC     C36      CTL2    -0.180000       12.0110           0
     33919 MEMB     291      POPC     H6X      HAL2     0.900000E-01   1.00800           0
     33920 MEMB     291      POPC     H6Y      HAL2     0.900000E-01   1.00800           0
     33921 MEMB     291      POPC     C37      CTL2    -0.180000       12.0110           0
     33922 MEMB     291      POPC     H7X      HAL2     0.900000E-01   1.00800           0
     33923 MEMB     291      POPC     H7Y      HAL2     0.900000E-01   1.00800           0
     33924 MEMB     291      POPC     C38      CTL2    -0.180000       12.0110           0
     33925 MEMB     291      POPC     H8X      HAL2     0.900000E-01   1.00800           0
     33926 MEMB     291      POPC     H8Y      HAL2     0.900000E-01   1.00800           0
     33927 MEMB     291      POPC     C39      CTL2    -0.180000       12.0110           0
     33928 MEMB     291      POPC     H9X      HAL2     0.900000E-01   1.00800           0
     33929 MEMB     291      POPC     H9Y      HAL2     0.900000E-01   1.00800           0
     33930 MEMB     291      POPC     C310     CTL2    -0.180000       12.0110           0
     33931 MEMB     291      POPC     H10X     HAL2     0.900000E-01   1.00800           0
     33932 MEMB     291      POPC     H10Y     HAL2     0.900000E-01   1.00800           0
     33933 MEMB     291      POPC     C311     CTL2    -0.180000       12.0110           0
     33934 MEMB     291      POPC     H11X     HAL2     0.900000E-01   1.00800           0
     33935 MEMB     291      POPC     H11Y     HAL2     0.900000E-01   1.00800           0
     33936 MEMB     291      POPC     C312     CTL2    -0.180000       12.0110           0
     33937 MEMB     291      POPC     H12X     HAL2     0.900000E-01   1.00800           0
     33938 MEMB     291      POPC     H12Y     HAL2     0.900000E-01   1.00800           0
     33939 MEMB     291      POPC     C313     CTL2    -0.180000       12.0110           0
     33940 MEMB     291      POPC     H13X     HAL2     0.900000E-01   1.00800           0
     33941 MEMB     291      POPC     H13Y     HAL2     0.900000E-01   1.00800           0
     33942 MEMB     291      POPC     C314     CTL2    -0.180000       12.0110           0
     33943 MEMB     291      POPC     H14X     HAL2     0.900000E-01   1.00800           0
     33944 MEMB     291      POPC     H14Y     HAL2     0.900000E-01   1.00800           0
     33945 MEMB     291      POPC     C315     CTL2    -0.180000       12.0110           0
     33946 MEMB     291      POPC     H15X     HAL2     0.900000E-01   1.00800           0
     33947 MEMB     291      POPC     H15Y     HAL2     0.900000E-01   1.00800           0
     33948 MEMB     291      POPC     C316     CTL3    -0.270000       12.0110           0
     33949 MEMB     291      POPC     H16X     HAL3     0.900000E-01   1.00800           0
     33950 MEMB     291      POPC     H16Y     HAL3     0.900000E-01   1.00800           0
     33951 MEMB     291      POPC     H16Z     HAL3     0.900000E-01   1.00800           0
     33952 MEMB     292      POPE     N        NH3L    -0.300000       14.0070           0
     33953 MEMB     292      POPE     HN1      HCL      0.330000       1.00800           0
     33954 MEMB     292      POPE     HN2      HCL      0.330000       1.00800           0
     33955 MEMB     292      POPE     HN3      HCL      0.330000       1.00800           0
     33956 MEMB     292      POPE     C12      CTL2     0.130000       12.0110           0
     33957 MEMB     292      POPE     H12A     HAL2     0.900000E-01   1.00800           0
     33958 MEMB     292      POPE     H12B     HAL2     0.900000E-01   1.00800           0
     33959 MEMB     292      POPE     C11      CTL2    -0.800000E-01   12.0110           0
     33960 MEMB     292      POPE     H11A     HAL2     0.900000E-01   1.00800           0
     33961 MEMB     292      POPE     H11B     HAL2     0.900000E-01   1.00800           0
     33962 MEMB     292      POPE     P        PL        1.50000       30.9740           0
     33963 MEMB     292      POPE     O13      O2L     -0.780000       15.9994           0
     33964 MEMB     292      POPE     O14      O2L     -0.780000       15.9994           0
     33965 MEMB     292      POPE     O11      OSLP    -0.570000       15.9994           0
     33966 MEMB     292      POPE     O12      OSLP    -0.570000       15.9994           0
     33967 MEMB     292      POPE     C1       CTL2    -0.800000E-01   12.0110           0
     33968 MEMB     292      POPE     HA       HAL2     0.900000E-01   1.00800           0
     33969 MEMB     292      POPE     HB       HAL2     0.900000E-01   1.00800           0
     33970 MEMB     292      POPE     C2       CTL1     0.170000       12.0110           0
     33971 MEMB     292      POPE     HS       HAL1     0.900000E-01   1.00800           0
     33972 MEMB     292      POPE     O21      OSL     -0.490000       15.9994           0
     33973 MEMB     292      POPE     C21      CL       0.900000       12.0110           0
     33974 MEMB     292      POPE     O22      OBL     -0.630000       15.9994           0
     33975 MEMB     292      POPE     C22      CTL2    -0.220000       12.0110           0
     33976 MEMB     292      POPE     H2R      HAL2     0.900000E-01   1.00800           0
     33977 MEMB     292      POPE     H2S      HAL2     0.900000E-01   1.00800           0
     33978 MEMB     292      POPE     C3       CTL2     0.800000E-01   12.0110           0
     33979 MEMB     292      POPE     HX       HAL2     0.900000E-01   1.00800           0
     33980 MEMB     292      POPE     HY       HAL2     0.900000E-01   1.00800           0
     33981 MEMB     292      POPE     O31      OSL     -0.490000       15.9994           0
     33982 MEMB     292      POPE     C31      CL       0.900000       12.0110           0
     33983 MEMB     292      POPE     O32      OBL     -0.630000       15.9994           0
     33984 MEMB     292      POPE     C32      CTL2    -0.220000       12.0110           0
     33985 MEMB     292      POPE     H2X      HAL2     0.900000E-01   1.00800           0
     33986 MEMB     292      POPE     H2Y      HAL2     0.900000E-01   1.00800           0
     33987 MEMB     292      POPE     C23      CTL2    -0.180000       12.0110           0
     33988 MEMB     292      POPE     H3R      HAL2     0.900000E-01   1.00800           0
     33989 MEMB     292      POPE     H3S      HAL2     0.900000E-01   1.00800           0
     33990 MEMB     292      POPE     C24      CTL2    -0.180000       12.0110           0
     33991 MEMB     292      POPE     H4R      HAL2     0.900000E-01   1.00800           0
     33992 MEMB     292      POPE     H4S      HAL2     0.900000E-01   1.00800           0
     33993 MEMB     292      POPE     C25      CTL2    -0.180000       12.0110           0
     33994 MEMB     292      POPE     H5R      HAL2     0.900000E-01   1.00800           0
     33995 MEMB     292      POPE     H5S      HAL2     0.900000E-01   1.00800           0
     33996 MEMB     292      POPE     C26      CTL2    -0.180000       12.0110           0
     33997 MEMB     292      POPE     H6R      HAL2     0.900000E-01   1.00800           0
     33998 MEMB     292      POPE     H6S      HAL2     0.900000E-01   1.00800           0
     33999 MEMB     292      POPE     C27      CTL2    -0.180000       12.0110           0
     34000 MEMB     292      POPE     H7R      HAL2     0.900000E-01   1.00800           0
     34001 MEMB     292      POPE     H7S      HAL2     0.900000E-01   1.00800           0
     34002 MEMB     292      POPE     C28      CTL2    -0.180000       12.0110           0
     34003 MEMB     292      POPE     H8R      HAL2     0.900000E-01   1.00800           0
     34004 MEMB     292      POPE     H8S      HAL2     0.900000E-01   1.00800           0
     34005 MEMB     292      POPE     C29      CEL1    -0.150000       12.0110           0
     34006 MEMB     292      POPE     H91      HEL1     0.150000       1.00800           0
     34007 MEMB     292      POPE     C210     CEL1    -0.150000       12.0110           0
     34008 MEMB     292      POPE     H101     HEL1     0.150000       1.00800           0
     34009 MEMB     292      POPE     C211     CTL2    -0.180000       12.0110           0
     34010 MEMB     292      POPE     H11R     HAL2     0.900000E-01   1.00800           0
     34011 MEMB     292      POPE     H11S     HAL2     0.900000E-01   1.00800           0
     34012 MEMB     292      POPE     C212     CTL2    -0.180000       12.0110           0
     34013 MEMB     292      POPE     H12R     HAL2     0.900000E-01   1.00800           0
     34014 MEMB     292      POPE     H12S     HAL2     0.900000E-01   1.00800           0
     34015 MEMB     292      POPE     C213     CTL2    -0.180000       12.0110           0
     34016 MEMB     292      POPE     H13R     HAL2     0.900000E-01   1.00800           0
     34017 MEMB     292      POPE     H13S     HAL2     0.900000E-01   1.00800           0
     34018 MEMB     292      POPE     C214     CTL2    -0.180000       12.0110           0
     34019 MEMB     292      POPE     H14R     HAL2     0.900000E-01   1.00800           0
     34020 MEMB     292      POPE     H14S     HAL2     0.900000E-01   1.00800           0
     34021 MEMB     292      POPE     C215     CTL2    -0.180000       12.0110           0
     34022 MEMB     292      POPE     H15R     HAL2     0.900000E-01   1.00800           0
     34023 MEMB     292      POPE     H15S     HAL2     0.900000E-01   1.00800           0
     34024 MEMB     292      POPE     C216     CTL2    -0.180000       12.0110           0
     34025 MEMB     292      POPE     H16R     HAL2     0.900000E-01   1.00800           0
     34026 MEMB     292      POPE     H16S     HAL2     0.900000E-01   1.00800           0
     34027 MEMB     292      POPE     C217     CTL2    -0.180000       12.0110           0
     34028 MEMB     292      POPE     H17R     HAL2     0.900000E-01   1.00800           0
     34029 MEMB     292      POPE     H17S     HAL2     0.900000E-01   1.00800           0
     34030 MEMB     292      POPE     C218     CTL3    -0.270000       12.0110           0
     34031 MEMB     292      POPE     H18R     HAL3     0.900000E-01   1.00800           0
     34032 MEMB     292      POPE     H18S     HAL3     0.900000E-01   1.00800           0
     34033 MEMB     292      POPE     H18T     HAL3     0.900000E-01   1.00800           0
     34034 MEMB     292      POPE     C33      CTL2    -0.180000       12.0110           0
     34035 MEMB     292      POPE     H3X      HAL2     0.900000E-01   1.00800           0
     34036 MEMB     292      POPE     H3Y      HAL2     0.900000E-01   1.00800           0
     34037 MEMB     292      POPE     C34      CTL2    -0.180000       12.0110           0
     34038 MEMB     292      POPE     H4X      HAL2     0.900000E-01   1.00800           0
     34039 MEMB     292      POPE     H4Y      HAL2     0.900000E-01   1.00800           0
     34040 MEMB     292      POPE     C35      CTL2    -0.180000       12.0110           0
     34041 MEMB     292      POPE     H5X      HAL2     0.900000E-01   1.00800           0
     34042 MEMB     292      POPE     H5Y      HAL2     0.900000E-01   1.00800           0
     34043 MEMB     292      POPE     C36      CTL2    -0.180000       12.0110           0
     34044 MEMB     292      POPE     H6X      HAL2     0.900000E-01   1.00800           0
     34045 MEMB     292      POPE     H6Y      HAL2     0.900000E-01   1.00800           0
     34046 MEMB     292      POPE     C37      CTL2    -0.180000       12.0110           0
     34047 MEMB     292      POPE     H7X      HAL2     0.900000E-01   1.00800           0
     34048 MEMB     292      POPE     H7Y      HAL2     0.900000E-01   1.00800           0
     34049 MEMB     292      POPE     C38      CTL2    -0.180000       12.0110           0
     34050 MEMB     292      POPE     H8X      HAL2     0.900000E-01   1.00800           0
     34051 MEMB     292      POPE     H8Y      HAL2     0.900000E-01   1.00800           0
     34052 MEMB     292      POPE     C39      CTL2    -0.180000       12.0110           0
     34053 MEMB     292      POPE     H9X      HAL2     0.900000E-01   1.00800           0
     34054 MEMB     292      POPE     H9Y      HAL2     0.900000E-01   1.00800           0
     34055 MEMB     292      POPE     C310     CTL2    -0.180000       12.0110           0
     34056 MEMB     292      POPE     H10X     HAL2     0.900000E-01   1.00800           0
     34057 MEMB     292      POPE     H10Y     HAL2     0.900000E-01   1.00800           0
     34058 MEMB     292      POPE     C311     CTL2    -0.180000       12.0110           0
     34059 MEMB     292      POPE     H11X     HAL2     0.900000E-01   1.00800           0
     34060 MEMB     292      POPE     H11Y     HAL2     0.900000E-01   1.00800           0
     34061 MEMB     292      POPE     C312     CTL2    -0.180000       12.0110           0
     34062 MEMB     292      POPE     H12X     HAL2     0.900000E-01   1.00800           0
     34063 MEMB     292      POPE     H12Y     HAL2     0.900000E-01   1.00800           0
     34064 MEMB     292      POPE     C313     CTL2    -0.180000       12.0110           0
     34065 MEMB     292      POPE     H13X     HAL2     0.900000E-01   1.00800           0
     34066 MEMB     292      POPE     H13Y     HAL2     0.900000E-01   1.00800           0
     34067 MEMB     292      POPE     C314     CTL2    -0.180000       12.0110           0
     34068 MEMB     292      POPE     H14X     HAL2     0.900000E-01   1.00800           0
     34069 MEMB     292      POPE     H14Y     HAL2     0.900000E-01   1.00800           0
     34070 MEMB     292      POPE     C315     CTL2    -0.180000       12.0110           0
     34071 MEMB     292      POPE     H15X     HAL2     0.900000E-01   1.00800           0
     34072 MEMB     292      POPE     H15Y     HAL2     0.900000E-01   1.00800           0
     34073 MEMB     292      POPE     C316     CTL3    -0.270000       12.0110           0
     34074 MEMB     292      POPE     H16X     HAL3     0.900000E-01   1.00800           0
     34075 MEMB     292      POPE     H16Y     HAL3     0.900000E-01   1.00800           0
     34076 MEMB     292      POPE     H16Z     HAL3     0.900000E-01   1.00800           0
     34077 MEMB     293      POPE     N        NH3L    -0.300000       14.0070           0
     34078 MEMB     293      POPE     HN1      HCL      0.330000       1.00800           0
     34079 MEMB     293      POPE     HN2      HCL      0.330000       1.00800           0
     34080 MEMB     293      POPE     HN3      HCL      0.330000       1.00800           0
     34081 MEMB     293      POPE     C12      CTL2     0.130000       12.0110           0
     34082 MEMB     293      POPE     H12A     HAL2     0.900000E-01   1.00800           0
     34083 MEMB     293      POPE     H12B     HAL2     0.900000E-01   1.00800           0
     34084 MEMB     293      POPE     C11      CTL2    -0.800000E-01   12.0110           0
     34085 MEMB     293      POPE     H11A     HAL2     0.900000E-01   1.00800           0
     34086 MEMB     293      POPE     H11B     HAL2     0.900000E-01   1.00800           0
     34087 MEMB     293      POPE     P        PL        1.50000       30.9740           0
     34088 MEMB     293      POPE     O13      O2L     -0.780000       15.9994           0
     34089 MEMB     293      POPE     O14      O2L     -0.780000       15.9994           0
     34090 MEMB     293      POPE     O11      OSLP    -0.570000       15.9994           0
     34091 MEMB     293      POPE     O12      OSLP    -0.570000       15.9994           0
     34092 MEMB     293      POPE     C1       CTL2    -0.800000E-01   12.0110           0
     34093 MEMB     293      POPE     HA       HAL2     0.900000E-01   1.00800           0
     34094 MEMB     293      POPE     HB       HAL2     0.900000E-01   1.00800           0
     34095 MEMB     293      POPE     C2       CTL1     0.170000       12.0110           0
     34096 MEMB     293      POPE     HS       HAL1     0.900000E-01   1.00800           0
     34097 MEMB     293      POPE     O21      OSL     -0.490000       15.9994           0
     34098 MEMB     293      POPE     C21      CL       0.900000       12.0110           0
     34099 MEMB     293      POPE     O22      OBL     -0.630000       15.9994           0
     34100 MEMB     293      POPE     C22      CTL2    -0.220000       12.0110           0
     34101 MEMB     293      POPE     H2R      HAL2     0.900000E-01   1.00800           0
     34102 MEMB     293      POPE     H2S      HAL2     0.900000E-01   1.00800           0
     34103 MEMB     293      POPE     C3       CTL2     0.800000E-01   12.0110           0
     34104 MEMB     293      POPE     HX       HAL2     0.900000E-01   1.00800           0
     34105 MEMB     293      POPE     HY       HAL2     0.900000E-01   1.00800           0
     34106 MEMB     293      POPE     O31      OSL     -0.490000       15.9994           0
     34107 MEMB     293      POPE     C31      CL       0.900000       12.0110           0
     34108 MEMB     293      POPE     O32      OBL     -0.630000       15.9994           0
     34109 MEMB     293      POPE     C32      CTL2    -0.220000       12.0110           0
     34110 MEMB     293      POPE     H2X      HAL2     0.900000E-01   1.00800           0
     34111 MEMB     293      POPE     H2Y      HAL2     0.900000E-01   1.00800           0
     34112 MEMB     293      POPE     C23      CTL2    -0.180000       12.0110           0
     34113 MEMB     293      POPE     H3R      HAL2     0.900000E-01   1.00800           0
     34114 MEMB     293      POPE     H3S      HAL2     0.900000E-01   1.00800           0
     34115 MEMB     293      POPE     C24      CTL2    -0.180000       12.0110           0
     34116 MEMB     293      POPE     H4R      HAL2     0.900000E-01   1.00800           0
     34117 MEMB     293      POPE     H4S      HAL2     0.900000E-01   1.00800           0
     34118 MEMB     293      POPE     C25      CTL2    -0.180000       12.0110           0
     34119 MEMB     293      POPE     H5R      HAL2     0.900000E-01   1.00800           0
     34120 MEMB     293      POPE     H5S      HAL2     0.900000E-01   1.00800           0
     34121 MEMB     293      POPE     C26      CTL2    -0.180000       12.0110           0
     34122 MEMB     293      POPE     H6R      HAL2     0.900000E-01   1.00800           0
     34123 MEMB     293      POPE     H6S      HAL2     0.900000E-01   1.00800           0
     34124 MEMB     293      POPE     C27      CTL2    -0.180000       12.0110           0
     34125 MEMB     293      POPE     H7R      HAL2     0.900000E-01   1.00800           0
     34126 MEMB     293      POPE     H7S      HAL2     0.900000E-01   1.00800           0
     34127 MEMB     293      POPE     C28      CTL2    -0.180000       12.0110           0
     34128 MEMB     293      POPE     H8R      HAL2     0.900000E-01   1.00800           0
     34129 MEMB     293      POPE     H8S      HAL2     0.900000E-01   1.00800           0
     34130 MEMB     293      POPE     C29      CEL1    -0.150000       12.0110           0
     34131 MEMB     293      POPE     H91      HEL1     0.150000       1.00800           0
     34132 MEMB     293      POPE     C210     CEL1    -0.150000       12.0110           0
     34133 MEMB     293      POPE     H101     HEL1     0.150000       1.00800           0
     34134 MEMB     293      POPE     C211     CTL2    -0.180000       12.0110           0
     34135 MEMB     293      POPE     H11R     HAL2     0.900000E-01   1.00800           0
     34136 MEMB     293      POPE     H11S     HAL2     0.900000E-01   1.00800           0
     34137 MEMB     293      POPE     C212     CTL2    -0.180000       12.0110           0
     34138 MEMB     293      POPE     H12R     HAL2     0.900000E-01   1.00800           0
     34139 MEMB     293      POPE     H12S     HAL2     0.900000E-01   1.00800           0
     34140 MEMB     293      POPE     C213     CTL2    -0.180000       12.0110           0
     34141 MEMB     293      POPE     H13R     HAL2     0.900000E-01   1.00800           0
     34142 MEMB     293      POPE     H13S     HAL2     0.900000E-01   1.00800           0
     34143 MEMB     293      POPE     C214     CTL2    -0.180000       12.0110           0
     34144 MEMB     293      POPE     H14R     HAL2     0.900000E-01   1.00800           0
     34145 MEMB     293      POPE     H14S     HAL2     0.900000E-01   1.00800           0
     34146 MEMB     293      POPE     C215     CTL2    -0.180000       12.0110           0
     34147 MEMB     293      POPE     H15R     HAL2     0.900000E-01   1.00800           0
     34148 MEMB     293      POPE     H15S     HAL2     0.900000E-01   1.00800           0
     34149 MEMB     293      POPE     C216     CTL2    -0.180000       12.0110           0
     34150 MEMB     293      POPE     H16R     HAL2     0.900000E-01   1.00800           0
     34151 MEMB     293      POPE     H16S     HAL2     0.900000E-01   1.00800           0
     34152 MEMB     293      POPE     C217     CTL2    -0.180000       12.0110           0
     34153 MEMB     293      POPE     H17R     HAL2     0.900000E-01   1.00800           0
     34154 MEMB     293      POPE     H17S     HAL2     0.900000E-01   1.00800           0
     34155 MEMB     293      POPE     C218     CTL3    -0.270000       12.0110           0
     34156 MEMB     293      POPE     H18R     HAL3     0.900000E-01   1.00800           0
     34157 MEMB     293      POPE     H18S     HAL3     0.900000E-01   1.00800           0
     34158 MEMB     293      POPE     H18T     HAL3     0.900000E-01   1.00800           0
     34159 MEMB     293      POPE     C33      CTL2    -0.180000       12.0110           0
     34160 MEMB     293      POPE     H3X      HAL2     0.900000E-01   1.00800           0
     34161 MEMB     293      POPE     H3Y      HAL2     0.900000E-01   1.00800           0
     34162 MEMB     293      POPE     C34      CTL2    -0.180000       12.0110           0
     34163 MEMB     293      POPE     H4X      HAL2     0.900000E-01   1.00800           0
     34164 MEMB     293      POPE     H4Y      HAL2     0.900000E-01   1.00800           0
     34165 MEMB     293      POPE     C35      CTL2    -0.180000       12.0110           0
     34166 MEMB     293      POPE     H5X      HAL2     0.900000E-01   1.00800           0
     34167 MEMB     293      POPE     H5Y      HAL2     0.900000E-01   1.00800           0
     34168 MEMB     293      POPE     C36      CTL2    -0.180000       12.0110           0
     34169 MEMB     293      POPE     H6X      HAL2     0.900000E-01   1.00800           0
     34170 MEMB     293      POPE     H6Y      HAL2     0.900000E-01   1.00800           0
     34171 MEMB     293      POPE     C37      CTL2    -0.180000       12.0110           0
     34172 MEMB     293      POPE     H7X      HAL2     0.900000E-01   1.00800           0
     34173 MEMB     293      POPE     H7Y      HAL2     0.900000E-01   1.00800           0
     34174 MEMB     293      POPE     C38      CTL2    -0.180000       12.0110           0
     34175 MEMB     293      POPE     H8X      HAL2     0.900000E-01   1.00800           0
     34176 MEMB     293      POPE     H8Y      HAL2     0.900000E-01   1.00800           0
     34177 MEMB     293      POPE     C39      CTL2    -0.180000       12.0110           0
     34178 MEMB     293      POPE     H9X      HAL2     0.900000E-01   1.00800           0
     34179 MEMB     293      POPE     H9Y      HAL2     0.900000E-01   1.00800           0
     34180 MEMB     293      POPE     C310     CTL2    -0.180000       12.0110           0
     34181 MEMB     293      POPE     H10X     HAL2     0.900000E-01   1.00800           0
     34182 MEMB     293      POPE     H10Y     HAL2     0.900000E-01   1.00800           0
     34183 MEMB     293      POPE     C311     CTL2    -0.180000       12.0110           0
     34184 MEMB     293      POPE     H11X     HAL2     0.900000E-01   1.00800           0
     34185 MEMB     293      POPE     H11Y     HAL2     0.900000E-01   1.00800           0
     34186 MEMB     293      POPE     C312     CTL2    -0.180000       12.0110           0
     34187 MEMB     293      POPE     H12X     HAL2     0.900000E-01   1.00800           0
     34188 MEMB     293      POPE     H12Y     HAL2     0.900000E-01   1.00800           0
     34189 MEMB     293      POPE     C313     CTL2    -0.180000       12.0110           0
     34190 MEMB     293      POPE     H13X     HAL2     0.900000E-01   1.00800           0
     34191 MEMB     293      POPE     H13Y     HAL2     0.900000E-01   1.00800           0
     34192 MEMB     293      POPE     C314     CTL2    -0.180000       12.0110           0
     34193 MEMB     293      POPE     H14X     HAL2     0.900000E-01   1.00800           0
     34194 MEMB     293      POPE     H14Y     HAL2     0.900000E-01   1.00800           0
     34195 MEMB     293      POPE     C315     CTL2    -0.180000       12.0110           0
     34196 MEMB     293      POPE     H15X     HAL2     0.900000E-01   1.00800           0
     34197 MEMB     293      POPE     H15Y     HAL2     0.900000E-01   1.00800           0
     34198 MEMB     293      POPE     C316     CTL3    -0.270000       12.0110           0
     34199 MEMB     293      POPE     H16X     HAL3     0.900000E-01   1.00800           0
     34200 MEMB     293      POPE     H16Y     HAL3     0.900000E-01   1.00800           0
     34201 MEMB     293      POPE     H16Z     HAL3     0.900000E-01   1.00800           0
     34202 MEMB     294      POPC     N        NTL     -0.600000       14.0070           0
     34203 MEMB     294      POPC     C12      CTL2    -0.100000       12.0110           0
     34204 MEMB     294      POPC     H12A     HL       0.250000       1.00800           0
     34205 MEMB     294      POPC     H12B     HL       0.250000       1.00800           0
     34206 MEMB     294      POPC     C13      CTL5    -0.350000       12.0110           0
     34207 MEMB     294      POPC     H13A     HL       0.250000       1.00800           0
     34208 MEMB     294      POPC     H13B     HL       0.250000       1.00800           0
     34209 MEMB     294      POPC     H13C     HL       0.250000       1.00800           0
     34210 MEMB     294      POPC     C14      CTL5    -0.350000       12.0110           0
     34211 MEMB     294      POPC     H14A     HL       0.250000       1.00800           0
     34212 MEMB     294      POPC     H14B     HL       0.250000       1.00800           0
     34213 MEMB     294      POPC     H14C     HL       0.250000       1.00800           0
     34214 MEMB     294      POPC     C15      CTL5    -0.350000       12.0110           0
     34215 MEMB     294      POPC     H15A     HL       0.250000       1.00800           0
     34216 MEMB     294      POPC     H15B     HL       0.250000       1.00800           0
     34217 MEMB     294      POPC     H15C     HL       0.250000       1.00800           0
     34218 MEMB     294      POPC     C11      CTL2    -0.800000E-01   12.0110           0
     34219 MEMB     294      POPC     H11A     HAL2     0.900000E-01   1.00800           0
     34220 MEMB     294      POPC     H11B     HAL2     0.900000E-01   1.00800           0
     34221 MEMB     294      POPC     P        PL        1.50000       30.9740           0
     34222 MEMB     294      POPC     O13      O2L     -0.780000       15.9994           0
     34223 MEMB     294      POPC     O14      O2L     -0.780000       15.9994           0
     34224 MEMB     294      POPC     O12      OSLP    -0.570000       15.9994           0
     34225 MEMB     294      POPC     O11      OSLP    -0.570000       15.9994           0
     34226 MEMB     294      POPC     C1       CTL2    -0.800000E-01   12.0110           0
     34227 MEMB     294      POPC     HA       HAL2     0.900000E-01   1.00800           0
     34228 MEMB     294      POPC     HB       HAL2     0.900000E-01   1.00800           0
     34229 MEMB     294      POPC     C2       CTL1     0.170000       12.0110           0
     34230 MEMB     294      POPC     HS       HAL1     0.900000E-01   1.00800           0
     34231 MEMB     294      POPC     O21      OSL     -0.490000       15.9994           0
     34232 MEMB     294      POPC     C21      CL       0.900000       12.0110           0
     34233 MEMB     294      POPC     O22      OBL     -0.630000       15.9994           0
     34234 MEMB     294      POPC     C22      CTL2    -0.220000       12.0110           0
     34235 MEMB     294      POPC     H2R      HAL2     0.900000E-01   1.00800           0
     34236 MEMB     294      POPC     H2S      HAL2     0.900000E-01   1.00800           0
     34237 MEMB     294      POPC     C3       CTL2     0.800000E-01   12.0110           0
     34238 MEMB     294      POPC     HX       HAL2     0.900000E-01   1.00800           0
     34239 MEMB     294      POPC     HY       HAL2     0.900000E-01   1.00800           0
     34240 MEMB     294      POPC     O31      OSL     -0.490000       15.9994           0
     34241 MEMB     294      POPC     C31      CL       0.900000       12.0110           0
     34242 MEMB     294      POPC     O32      OBL     -0.630000       15.9994           0
     34243 MEMB     294      POPC     C32      CTL2    -0.220000       12.0110           0
     34244 MEMB     294      POPC     H2X      HAL2     0.900000E-01   1.00800           0
     34245 MEMB     294      POPC     H2Y      HAL2     0.900000E-01   1.00800           0
     34246 MEMB     294      POPC     C23      CTL2    -0.180000       12.0110           0
     34247 MEMB     294      POPC     H3R      HAL2     0.900000E-01   1.00800           0
     34248 MEMB     294      POPC     H3S      HAL2     0.900000E-01   1.00800           0
     34249 MEMB     294      POPC     C24      CTL2    -0.180000       12.0110           0
     34250 MEMB     294      POPC     H4R      HAL2     0.900000E-01   1.00800           0
     34251 MEMB     294      POPC     H4S      HAL2     0.900000E-01   1.00800           0
     34252 MEMB     294      POPC     C25      CTL2    -0.180000       12.0110           0
     34253 MEMB     294      POPC     H5R      HAL2     0.900000E-01   1.00800           0
     34254 MEMB     294      POPC     H5S      HAL2     0.900000E-01   1.00800           0
     34255 MEMB     294      POPC     C26      CTL2    -0.180000       12.0110           0
     34256 MEMB     294      POPC     H6R      HAL2     0.900000E-01   1.00800           0
     34257 MEMB     294      POPC     H6S      HAL2     0.900000E-01   1.00800           0
     34258 MEMB     294      POPC     C27      CTL2    -0.180000       12.0110           0
     34259 MEMB     294      POPC     H7R      HAL2     0.900000E-01   1.00800           0
     34260 MEMB     294      POPC     H7S      HAL2     0.900000E-01   1.00800           0
     34261 MEMB     294      POPC     C28      CTL2    -0.180000       12.0110           0
     34262 MEMB     294      POPC     H8R      HAL2     0.900000E-01   1.00800           0
     34263 MEMB     294      POPC     H8S      HAL2     0.900000E-01   1.00800           0
     34264 MEMB     294      POPC     C29      CEL1    -0.150000       12.0110           0
     34265 MEMB     294      POPC     H91      HEL1     0.150000       1.00800           0
     34266 MEMB     294      POPC     C210     CEL1    -0.150000       12.0110           0
     34267 MEMB     294      POPC     H101     HEL1     0.150000       1.00800           0
     34268 MEMB     294      POPC     C211     CTL2    -0.180000       12.0110           0
     34269 MEMB     294      POPC     H11R     HAL2     0.900000E-01   1.00800           0
     34270 MEMB     294      POPC     H11S     HAL2     0.900000E-01   1.00800           0
     34271 MEMB     294      POPC     C212     CTL2    -0.180000       12.0110           0
     34272 MEMB     294      POPC     H12R     HAL2     0.900000E-01   1.00800           0
     34273 MEMB     294      POPC     H12S     HAL2     0.900000E-01   1.00800           0
     34274 MEMB     294      POPC     C213     CTL2    -0.180000       12.0110           0
     34275 MEMB     294      POPC     H13R     HAL2     0.900000E-01   1.00800           0
     34276 MEMB     294      POPC     H13S     HAL2     0.900000E-01   1.00800           0
     34277 MEMB     294      POPC     C214     CTL2    -0.180000       12.0110           0
     34278 MEMB     294      POPC     H14R     HAL2     0.900000E-01   1.00800           0
     34279 MEMB     294      POPC     H14S     HAL2     0.900000E-01   1.00800           0
     34280 MEMB     294      POPC     C215     CTL2    -0.180000       12.0110           0
     34281 MEMB     294      POPC     H15R     HAL2     0.900000E-01   1.00800           0
     34282 MEMB     294      POPC     H15S     HAL2     0.900000E-01   1.00800           0
     34283 MEMB     294      POPC     C216     CTL2    -0.180000       12.0110           0
     34284 MEMB     294      POPC     H16R     HAL2     0.900000E-01   1.00800           0
     34285 MEMB     294      POPC     H16S     HAL2     0.900000E-01   1.00800           0
     34286 MEMB     294      POPC     C217     CTL2    -0.180000       12.0110           0
     34287 MEMB     294      POPC     H17R     HAL2     0.900000E-01   1.00800           0
     34288 MEMB     294      POPC     H17S     HAL2     0.900000E-01   1.00800           0
     34289 MEMB     294      POPC     C218     CTL3    -0.270000       12.0110           0
     34290 MEMB     294      POPC     H18R     HAL3     0.900000E-01   1.00800           0
     34291 MEMB     294      POPC     H18S     HAL3     0.900000E-01   1.00800           0
     34292 MEMB     294      POPC     H18T     HAL3     0.900000E-01   1.00800           0
     34293 MEMB     294      POPC     C33      CTL2    -0.180000       12.0110           0
     34294 MEMB     294      POPC     H3X      HAL2     0.900000E-01   1.00800           0
     34295 MEMB     294      POPC     H3Y      HAL2     0.900000E-01   1.00800           0
     34296 MEMB     294      POPC     C34      CTL2    -0.180000       12.0110           0
     34297 MEMB     294      POPC     H4X      HAL2     0.900000E-01   1.00800           0
     34298 MEMB     294      POPC     H4Y      HAL2     0.900000E-01   1.00800           0
     34299 MEMB     294      POPC     C35      CTL2    -0.180000       12.0110           0
     34300 MEMB     294      POPC     H5X      HAL2     0.900000E-01   1.00800           0
     34301 MEMB     294      POPC     H5Y      HAL2     0.900000E-01   1.00800           0
     34302 MEMB     294      POPC     C36      CTL2    -0.180000       12.0110           0
     34303 MEMB     294      POPC     H6X      HAL2     0.900000E-01   1.00800           0
     34304 MEMB     294      POPC     H6Y      HAL2     0.900000E-01   1.00800           0
     34305 MEMB     294      POPC     C37      CTL2    -0.180000       12.0110           0
     34306 MEMB     294      POPC     H7X      HAL2     0.900000E-01   1.00800           0
     34307 MEMB     294      POPC     H7Y      HAL2     0.900000E-01   1.00800           0
     34308 MEMB     294      POPC     C38      CTL2    -0.180000       12.0110           0
     34309 MEMB     294      POPC     H8X      HAL2     0.900000E-01   1.00800           0
     34310 MEMB     294      POPC     H8Y      HAL2     0.900000E-01   1.00800           0
     34311 MEMB     294      POPC     C39      CTL2    -0.180000       12.0110           0
     34312 MEMB     294      POPC     H9X      HAL2     0.900000E-01   1.00800           0
     34313 MEMB     294      POPC     H9Y      HAL2     0.900000E-01   1.00800           0
     34314 MEMB     294      POPC     C310     CTL2    -0.180000       12.0110           0
     34315 MEMB     294      POPC     H10X     HAL2     0.900000E-01   1.00800           0
     34316 MEMB     294      POPC     H10Y     HAL2     0.900000E-01   1.00800           0
     34317 MEMB     294      POPC     C311     CTL2    -0.180000       12.0110           0
     34318 MEMB     294      POPC     H11X     HAL2     0.900000E-01   1.00800           0
     34319 MEMB     294      POPC     H11Y     HAL2     0.900000E-01   1.00800           0
     34320 MEMB     294      POPC     C312     CTL2    -0.180000       12.0110           0
     34321 MEMB     294      POPC     H12X     HAL2     0.900000E-01   1.00800           0
     34322 MEMB     294      POPC     H12Y     HAL2     0.900000E-01   1.00800           0
     34323 MEMB     294      POPC     C313     CTL2    -0.180000       12.0110           0
     34324 MEMB     294      POPC     H13X     HAL2     0.900000E-01   1.00800           0
     34325 MEMB     294      POPC     H13Y     HAL2     0.900000E-01   1.00800           0
     34326 MEMB     294      POPC     C314     CTL2    -0.180000       12.0110           0
     34327 MEMB     294      POPC     H14X     HAL2     0.900000E-01   1.00800           0
     34328 MEMB     294      POPC     H14Y     HAL2     0.900000E-01   1.00800           0
     34329 MEMB     294      POPC     C315     CTL2    -0.180000       12.0110           0
     34330 MEMB     294      POPC     H15X     HAL2     0.900000E-01   1.00800           0
     34331 MEMB     294      POPC     H15Y     HAL2     0.900000E-01   1.00800           0
     34332 MEMB     294      POPC     C316     CTL3    -0.270000       12.0110           0
     34333 MEMB     294      POPC     H16X     HAL3     0.900000E-01   1.00800           0
     34334 MEMB     294      POPC     H16Y     HAL3     0.900000E-01   1.00800           0
     34335 MEMB     294      POPC     H16Z     HAL3     0.900000E-01   1.00800           0
     34336 MEMB     295      POPE     N        NH3L    -0.300000       14.0070           0
     34337 MEMB     295      POPE     HN1      HCL      0.330000       1.00800           0
     34338 MEMB     295      POPE     HN2      HCL      0.330000       1.00800           0
     34339 MEMB     295      POPE     HN3      HCL      0.330000       1.00800           0
     34340 MEMB     295      POPE     C12      CTL2     0.130000       12.0110           0
     34341 MEMB     295      POPE     H12A     HAL2     0.900000E-01   1.00800           0
     34342 MEMB     295      POPE     H12B     HAL2     0.900000E-01   1.00800           0
     34343 MEMB     295      POPE     C11      CTL2    -0.800000E-01   12.0110           0
     34344 MEMB     295      POPE     H11A     HAL2     0.900000E-01   1.00800           0
     34345 MEMB     295      POPE     H11B     HAL2     0.900000E-01   1.00800           0
     34346 MEMB     295      POPE     P        PL        1.50000       30.9740           0
     34347 MEMB     295      POPE     O13      O2L     -0.780000       15.9994           0
     34348 MEMB     295      POPE     O14      O2L     -0.780000       15.9994           0
     34349 MEMB     295      POPE     O11      OSLP    -0.570000       15.9994           0
     34350 MEMB     295      POPE     O12      OSLP    -0.570000       15.9994           0
     34351 MEMB     295      POPE     C1       CTL2    -0.800000E-01   12.0110           0
     34352 MEMB     295      POPE     HA       HAL2     0.900000E-01   1.00800           0
     34353 MEMB     295      POPE     HB       HAL2     0.900000E-01   1.00800           0
     34354 MEMB     295      POPE     C2       CTL1     0.170000       12.0110           0
     34355 MEMB     295      POPE     HS       HAL1     0.900000E-01   1.00800           0
     34356 MEMB     295      POPE     O21      OSL     -0.490000       15.9994           0
     34357 MEMB     295      POPE     C21      CL       0.900000       12.0110           0
     34358 MEMB     295      POPE     O22      OBL     -0.630000       15.9994           0
     34359 MEMB     295      POPE     C22      CTL2    -0.220000       12.0110           0
     34360 MEMB     295      POPE     H2R      HAL2     0.900000E-01   1.00800           0
     34361 MEMB     295      POPE     H2S      HAL2     0.900000E-01   1.00800           0
     34362 MEMB     295      POPE     C3       CTL2     0.800000E-01   12.0110           0
     34363 MEMB     295      POPE     HX       HAL2     0.900000E-01   1.00800           0
     34364 MEMB     295      POPE     HY       HAL2     0.900000E-01   1.00800           0
     34365 MEMB     295      POPE     O31      OSL     -0.490000       15.9994           0
     34366 MEMB     295      POPE     C31      CL       0.900000       12.0110           0
     34367 MEMB     295      POPE     O32      OBL     -0.630000       15.9994           0
     34368 MEMB     295      POPE     C32      CTL2    -0.220000       12.0110           0
     34369 MEMB     295      POPE     H2X      HAL2     0.900000E-01   1.00800           0
     34370 MEMB     295      POPE     H2Y      HAL2     0.900000E-01   1.00800           0
     34371 MEMB     295      POPE     C23      CTL2    -0.180000       12.0110           0
     34372 MEMB     295      POPE     H3R      HAL2     0.900000E-01   1.00800           0
     34373 MEMB     295      POPE     H3S      HAL2     0.900000E-01   1.00800           0
     34374 MEMB     295      POPE     C24      CTL2    -0.180000       12.0110           0
     34375 MEMB     295      POPE     H4R      HAL2     0.900000E-01   1.00800           0
     34376 MEMB     295      POPE     H4S      HAL2     0.900000E-01   1.00800           0
     34377 MEMB     295      POPE     C25      CTL2    -0.180000       12.0110           0
     34378 MEMB     295      POPE     H5R      HAL2     0.900000E-01   1.00800           0
     34379 MEMB     295      POPE     H5S      HAL2     0.900000E-01   1.00800           0
     34380 MEMB     295      POPE     C26      CTL2    -0.180000       12.0110           0
     34381 MEMB     295      POPE     H6R      HAL2     0.900000E-01   1.00800           0
     34382 MEMB     295      POPE     H6S      HAL2     0.900000E-01   1.00800           0
     34383 MEMB     295      POPE     C27      CTL2    -0.180000       12.0110           0
     34384 MEMB     295      POPE     H7R      HAL2     0.900000E-01   1.00800           0
     34385 MEMB     295      POPE     H7S      HAL2     0.900000E-01   1.00800           0
     34386 MEMB     295      POPE     C28      CTL2    -0.180000       12.0110           0
     34387 MEMB     295      POPE     H8R      HAL2     0.900000E-01   1.00800           0
     34388 MEMB     295      POPE     H8S      HAL2     0.900000E-01   1.00800           0
     34389 MEMB     295      POPE     C29      CEL1    -0.150000       12.0110           0
     34390 MEMB     295      POPE     H91      HEL1     0.150000       1.00800           0
     34391 MEMB     295      POPE     C210     CEL1    -0.150000       12.0110           0
     34392 MEMB     295      POPE     H101     HEL1     0.150000       1.00800           0
     34393 MEMB     295      POPE     C211     CTL2    -0.180000       12.0110           0
     34394 MEMB     295      POPE     H11R     HAL2     0.900000E-01   1.00800           0
     34395 MEMB     295      POPE     H11S     HAL2     0.900000E-01   1.00800           0
     34396 MEMB     295      POPE     C212     CTL2    -0.180000       12.0110           0
     34397 MEMB     295      POPE     H12R     HAL2     0.900000E-01   1.00800           0
     34398 MEMB     295      POPE     H12S     HAL2     0.900000E-01   1.00800           0
     34399 MEMB     295      POPE     C213     CTL2    -0.180000       12.0110           0
     34400 MEMB     295      POPE     H13R     HAL2     0.900000E-01   1.00800           0
     34401 MEMB     295      POPE     H13S     HAL2     0.900000E-01   1.00800           0
     34402 MEMB     295      POPE     C214     CTL2    -0.180000       12.0110           0
     34403 MEMB     295      POPE     H14R     HAL2     0.900000E-01   1.00800           0
     34404 MEMB     295      POPE     H14S     HAL2     0.900000E-01   1.00800           0
     34405 MEMB     295      POPE     C215     CTL2    -0.180000       12.0110           0
     34406 MEMB     295      POPE     H15R     HAL2     0.900000E-01   1.00800           0
     34407 MEMB     295      POPE     H15S     HAL2     0.900000E-01   1.00800           0
     34408 MEMB     295      POPE     C216     CTL2    -0.180000       12.0110           0
     34409 MEMB     295      POPE     H16R     HAL2     0.900000E-01   1.00800           0
     34410 MEMB     295      POPE     H16S     HAL2     0.900000E-01   1.00800           0
     34411 MEMB     295      POPE     C217     CTL2    -0.180000       12.0110           0
     34412 MEMB     295      POPE     H17R     HAL2     0.900000E-01   1.00800           0
     34413 MEMB     295      POPE     H17S     HAL2     0.900000E-01   1.00800           0
     34414 MEMB     295      POPE     C218     CTL3    -0.270000       12.0110           0
     34415 MEMB     295      POPE     H18R     HAL3     0.900000E-01   1.00800           0
     34416 MEMB     295      POPE     H18S     HAL3     0.900000E-01   1.00800           0
     34417 MEMB     295      POPE     H18T     HAL3     0.900000E-01   1.00800           0
     34418 MEMB     295      POPE     C33      CTL2    -0.180000       12.0110           0
     34419 MEMB     295      POPE     H3X      HAL2     0.900000E-01   1.00800           0
     34420 MEMB     295      POPE     H3Y      HAL2     0.900000E-01   1.00800           0
     34421 MEMB     295      POPE     C34      CTL2    -0.180000       12.0110           0
     34422 MEMB     295      POPE     H4X      HAL2     0.900000E-01   1.00800           0
     34423 MEMB     295      POPE     H4Y      HAL2     0.900000E-01   1.00800           0
     34424 MEMB     295      POPE     C35      CTL2    -0.180000       12.0110           0
     34425 MEMB     295      POPE     H5X      HAL2     0.900000E-01   1.00800           0
     34426 MEMB     295      POPE     H5Y      HAL2     0.900000E-01   1.00800           0
     34427 MEMB     295      POPE     C36      CTL2    -0.180000       12.0110           0
     34428 MEMB     295      POPE     H6X      HAL2     0.900000E-01   1.00800           0
     34429 MEMB     295      POPE     H6Y      HAL2     0.900000E-01   1.00800           0
     34430 MEMB     295      POPE     C37      CTL2    -0.180000       12.0110           0
     34431 MEMB     295      POPE     H7X      HAL2     0.900000E-01   1.00800           0
     34432 MEMB     295      POPE     H7Y      HAL2     0.900000E-01   1.00800           0
     34433 MEMB     295      POPE     C38      CTL2    -0.180000       12.0110           0
     34434 MEMB     295      POPE     H8X      HAL2     0.900000E-01   1.00800           0
     34435 MEMB     295      POPE     H8Y      HAL2     0.900000E-01   1.00800           0
     34436 MEMB     295      POPE     C39      CTL2    -0.180000       12.0110           0
     34437 MEMB     295      POPE     H9X      HAL2     0.900000E-01   1.00800           0
     34438 MEMB     295      POPE     H9Y      HAL2     0.900000E-01   1.00800           0
     34439 MEMB     295      POPE     C310     CTL2    -0.180000       12.0110           0
     34440 MEMB     295      POPE     H10X     HAL2     0.900000E-01   1.00800           0
     34441 MEMB     295      POPE     H10Y     HAL2     0.900000E-01   1.00800           0
     34442 MEMB     295      POPE     C311     CTL2    -0.180000       12.0110           0
     34443 MEMB     295      POPE     H11X     HAL2     0.900000E-01   1.00800           0
     34444 MEMB     295      POPE     H11Y     HAL2     0.900000E-01   1.00800           0
     34445 MEMB     295      POPE     C312     CTL2    -0.180000       12.0110           0
     34446 MEMB     295      POPE     H12X     HAL2     0.900000E-01   1.00800           0
     34447 MEMB     295      POPE     H12Y     HAL2     0.900000E-01   1.00800           0
     34448 MEMB     295      POPE     C313     CTL2    -0.180000       12.0110           0
     34449 MEMB     295      POPE     H13X     HAL2     0.900000E-01   1.00800           0
     34450 MEMB     295      POPE     H13Y     HAL2     0.900000E-01   1.00800           0
     34451 MEMB     295      POPE     C314     CTL2    -0.180000       12.0110           0
     34452 MEMB     295      POPE     H14X     HAL2     0.900000E-01   1.00800           0
     34453 MEMB     295      POPE     H14Y     HAL2     0.900000E-01   1.00800           0
     34454 MEMB     295      POPE     C315     CTL2    -0.180000       12.0110           0
     34455 MEMB     295      POPE     H15X     HAL2     0.900000E-01   1.00800           0
     34456 MEMB     295      POPE     H15Y     HAL2     0.900000E-01   1.00800           0
     34457 MEMB     295      POPE     C316     CTL3    -0.270000       12.0110           0
     34458 MEMB     295      POPE     H16X     HAL3     0.900000E-01   1.00800           0
     34459 MEMB     295      POPE     H16Y     HAL3     0.900000E-01   1.00800           0
     34460 MEMB     295      POPE     H16Z     HAL3     0.900000E-01   1.00800           0
     34461 MEMB     296      POPC     N        NTL     -0.600000       14.0070           0
     34462 MEMB     296      POPC     C12      CTL2    -0.100000       12.0110           0
     34463 MEMB     296      POPC     H12A     HL       0.250000       1.00800           0
     34464 MEMB     296      POPC     H12B     HL       0.250000       1.00800           0
     34465 MEMB     296      POPC     C13      CTL5    -0.350000       12.0110           0
     34466 MEMB     296      POPC     H13A     HL       0.250000       1.00800           0
     34467 MEMB     296      POPC     H13B     HL       0.250000       1.00800           0
     34468 MEMB     296      POPC     H13C     HL       0.250000       1.00800           0
     34469 MEMB     296      POPC     C14      CTL5    -0.350000       12.0110           0
     34470 MEMB     296      POPC     H14A     HL       0.250000       1.00800           0
     34471 MEMB     296      POPC     H14B     HL       0.250000       1.00800           0
     34472 MEMB     296      POPC     H14C     HL       0.250000       1.00800           0
     34473 MEMB     296      POPC     C15      CTL5    -0.350000       12.0110           0
     34474 MEMB     296      POPC     H15A     HL       0.250000       1.00800           0
     34475 MEMB     296      POPC     H15B     HL       0.250000       1.00800           0
     34476 MEMB     296      POPC     H15C     HL       0.250000       1.00800           0
     34477 MEMB     296      POPC     C11      CTL2    -0.800000E-01   12.0110           0
     34478 MEMB     296      POPC     H11A     HAL2     0.900000E-01   1.00800           0
     34479 MEMB     296      POPC     H11B     HAL2     0.900000E-01   1.00800           0
     34480 MEMB     296      POPC     P        PL        1.50000       30.9740           0
     34481 MEMB     296      POPC     O13      O2L     -0.780000       15.9994           0
     34482 MEMB     296      POPC     O14      O2L     -0.780000       15.9994           0
     34483 MEMB     296      POPC     O12      OSLP    -0.570000       15.9994           0
     34484 MEMB     296      POPC     O11      OSLP    -0.570000       15.9994           0
     34485 MEMB     296      POPC     C1       CTL2    -0.800000E-01   12.0110           0
     34486 MEMB     296      POPC     HA       HAL2     0.900000E-01   1.00800           0
     34487 MEMB     296      POPC     HB       HAL2     0.900000E-01   1.00800           0
     34488 MEMB     296      POPC     C2       CTL1     0.170000       12.0110           0
     34489 MEMB     296      POPC     HS       HAL1     0.900000E-01   1.00800           0
     34490 MEMB     296      POPC     O21      OSL     -0.490000       15.9994           0
     34491 MEMB     296      POPC     C21      CL       0.900000       12.0110           0
     34492 MEMB     296      POPC     O22      OBL     -0.630000       15.9994           0
     34493 MEMB     296      POPC     C22      CTL2    -0.220000       12.0110           0
     34494 MEMB     296      POPC     H2R      HAL2     0.900000E-01   1.00800           0
     34495 MEMB     296      POPC     H2S      HAL2     0.900000E-01   1.00800           0
     34496 MEMB     296      POPC     C3       CTL2     0.800000E-01   12.0110           0
     34497 MEMB     296      POPC     HX       HAL2     0.900000E-01   1.00800           0
     34498 MEMB     296      POPC     HY       HAL2     0.900000E-01   1.00800           0
     34499 MEMB     296      POPC     O31      OSL     -0.490000       15.9994           0
     34500 MEMB     296      POPC     C31      CL       0.900000       12.0110           0
     34501 MEMB     296      POPC     O32      OBL     -0.630000       15.9994           0
     34502 MEMB     296      POPC     C32      CTL2    -0.220000       12.0110           0
     34503 MEMB     296      POPC     H2X      HAL2     0.900000E-01   1.00800           0
     34504 MEMB     296      POPC     H2Y      HAL2     0.900000E-01   1.00800           0
     34505 MEMB     296      POPC     C23      CTL2    -0.180000       12.0110           0
     34506 MEMB     296      POPC     H3R      HAL2     0.900000E-01   1.00800           0
     34507 MEMB     296      POPC     H3S      HAL2     0.900000E-01   1.00800           0
     34508 MEMB     296      POPC     C24      CTL2    -0.180000       12.0110           0
     34509 MEMB     296      POPC     H4R      HAL2     0.900000E-01   1.00800           0
     34510 MEMB     296      POPC     H4S      HAL2     0.900000E-01   1.00800           0
     34511 MEMB     296      POPC     C25      CTL2    -0.180000       12.0110           0
     34512 MEMB     296      POPC     H5R      HAL2     0.900000E-01   1.00800           0
     34513 MEMB     296      POPC     H5S      HAL2     0.900000E-01   1.00800           0
     34514 MEMB     296      POPC     C26      CTL2    -0.180000       12.0110           0
     34515 MEMB     296      POPC     H6R      HAL2     0.900000E-01   1.00800           0
     34516 MEMB     296      POPC     H6S      HAL2     0.900000E-01   1.00800           0
     34517 MEMB     296      POPC     C27      CTL2    -0.180000       12.0110           0
     34518 MEMB     296      POPC     H7R      HAL2     0.900000E-01   1.00800           0
     34519 MEMB     296      POPC     H7S      HAL2     0.900000E-01   1.00800           0
     34520 MEMB     296      POPC     C28      CTL2    -0.180000       12.0110           0
     34521 MEMB     296      POPC     H8R      HAL2     0.900000E-01   1.00800           0
     34522 MEMB     296      POPC     H8S      HAL2     0.900000E-01   1.00800           0
     34523 MEMB     296      POPC     C29      CEL1    -0.150000       12.0110           0
     34524 MEMB     296      POPC     H91      HEL1     0.150000       1.00800           0
     34525 MEMB     296      POPC     C210     CEL1    -0.150000       12.0110           0
     34526 MEMB     296      POPC     H101     HEL1     0.150000       1.00800           0
     34527 MEMB     296      POPC     C211     CTL2    -0.180000       12.0110           0
     34528 MEMB     296      POPC     H11R     HAL2     0.900000E-01   1.00800           0
     34529 MEMB     296      POPC     H11S     HAL2     0.900000E-01   1.00800           0
     34530 MEMB     296      POPC     C212     CTL2    -0.180000       12.0110           0
     34531 MEMB     296      POPC     H12R     HAL2     0.900000E-01   1.00800           0
     34532 MEMB     296      POPC     H12S     HAL2     0.900000E-01   1.00800           0
     34533 MEMB     296      POPC     C213     CTL2    -0.180000       12.0110           0
     34534 MEMB     296      POPC     H13R     HAL2     0.900000E-01   1.00800           0
     34535 MEMB     296      POPC     H13S     HAL2     0.900000E-01   1.00800           0
     34536 MEMB     296      POPC     C214     CTL2    -0.180000       12.0110           0
     34537 MEMB     296      POPC     H14R     HAL2     0.900000E-01   1.00800           0
     34538 MEMB     296      POPC     H14S     HAL2     0.900000E-01   1.00800           0
     34539 MEMB     296      POPC     C215     CTL2    -0.180000       12.0110           0
     34540 MEMB     296      POPC     H15R     HAL2     0.900000E-01   1.00800           0
     34541 MEMB     296      POPC     H15S     HAL2     0.900000E-01   1.00800           0
     34542 MEMB     296      POPC     C216     CTL2    -0.180000       12.0110           0
     34543 MEMB     296      POPC     H16R     HAL2     0.900000E-01   1.00800           0
     34544 MEMB     296      POPC     H16S     HAL2     0.900000E-01   1.00800           0
     34545 MEMB     296      POPC     C217     CTL2    -0.180000       12.0110           0
     34546 MEMB     296      POPC     H17R     HAL2     0.900000E-01   1.00800           0
     34547 MEMB     296      POPC     H17S     HAL2     0.900000E-01   1.00800           0
     34548 MEMB     296      POPC     C218     CTL3    -0.270000       12.0110           0
     34549 MEMB     296      POPC     H18R     HAL3     0.900000E-01   1.00800           0
     34550 MEMB     296      POPC     H18S     HAL3     0.900000E-01   1.00800           0
     34551 MEMB     296      POPC     H18T     HAL3     0.900000E-01   1.00800           0
     34552 MEMB     296      POPC     C33      CTL2    -0.180000       12.0110           0
     34553 MEMB     296      POPC     H3X      HAL2     0.900000E-01   1.00800           0
     34554 MEMB     296      POPC     H3Y      HAL2     0.900000E-01   1.00800           0
     34555 MEMB     296      POPC     C34      CTL2    -0.180000       12.0110           0
     34556 MEMB     296      POPC     H4X      HAL2     0.900000E-01   1.00800           0
     34557 MEMB     296      POPC     H4Y      HAL2     0.900000E-01   1.00800           0
     34558 MEMB     296      POPC     C35      CTL2    -0.180000       12.0110           0
     34559 MEMB     296      POPC     H5X      HAL2     0.900000E-01   1.00800           0
     34560 MEMB     296      POPC     H5Y      HAL2     0.900000E-01   1.00800           0
     34561 MEMB     296      POPC     C36      CTL2    -0.180000       12.0110           0
     34562 MEMB     296      POPC     H6X      HAL2     0.900000E-01   1.00800           0
     34563 MEMB     296      POPC     H6Y      HAL2     0.900000E-01   1.00800           0
     34564 MEMB     296      POPC     C37      CTL2    -0.180000       12.0110           0
     34565 MEMB     296      POPC     H7X      HAL2     0.900000E-01   1.00800           0
     34566 MEMB     296      POPC     H7Y      HAL2     0.900000E-01   1.00800           0
     34567 MEMB     296      POPC     C38      CTL2    -0.180000       12.0110           0
     34568 MEMB     296      POPC     H8X      HAL2     0.900000E-01   1.00800           0
     34569 MEMB     296      POPC     H8Y      HAL2     0.900000E-01   1.00800           0
     34570 MEMB     296      POPC     C39      CTL2    -0.180000       12.0110           0
     34571 MEMB     296      POPC     H9X      HAL2     0.900000E-01   1.00800           0
     34572 MEMB     296      POPC     H9Y      HAL2     0.900000E-01   1.00800           0
     34573 MEMB     296      POPC     C310     CTL2    -0.180000       12.0110           0
     34574 MEMB     296      POPC     H10X     HAL2     0.900000E-01   1.00800           0
     34575 MEMB     296      POPC     H10Y     HAL2     0.900000E-01   1.00800           0
     34576 MEMB     296      POPC     C311     CTL2    -0.180000       12.0110           0
     34577 MEMB     296      POPC     H11X     HAL2     0.900000E-01   1.00800           0
     34578 MEMB     296      POPC     H11Y     HAL2     0.900000E-01   1.00800           0
     34579 MEMB     296      POPC     C312     CTL2    -0.180000       12.0110           0
     34580 MEMB     296      POPC     H12X     HAL2     0.900000E-01   1.00800           0
     34581 MEMB     296      POPC     H12Y     HAL2     0.900000E-01   1.00800           0
     34582 MEMB     296      POPC     C313     CTL2    -0.180000       12.0110           0
     34583 MEMB     296      POPC     H13X     HAL2     0.900000E-01   1.00800           0
     34584 MEMB     296      POPC     H13Y     HAL2     0.900000E-01   1.00800           0
     34585 MEMB     296      POPC     C314     CTL2    -0.180000       12.0110           0
     34586 MEMB     296      POPC     H14X     HAL2     0.900000E-01   1.00800           0
     34587 MEMB     296      POPC     H14Y     HAL2     0.900000E-01   1.00800           0
     34588 MEMB     296      POPC     C315     CTL2    -0.180000       12.0110           0
     34589 MEMB     296      POPC     H15X     HAL2     0.900000E-01   1.00800           0
     34590 MEMB     296      POPC     H15Y     HAL2     0.900000E-01   1.00800           0
     34591 MEMB     296      POPC     C316     CTL3    -0.270000       12.0110           0
     34592 MEMB     296      POPC     H16X     HAL3     0.900000E-01   1.00800           0
     34593 MEMB     296      POPC     H16Y     HAL3     0.900000E-01   1.00800           0
     34594 MEMB     296      POPC     H16Z     HAL3     0.900000E-01   1.00800           0
     34595 MEMB     297      POPC     N        NTL     -0.600000       14.0070           0
     34596 MEMB     297      POPC     C12      CTL2    -0.100000       12.0110           0
     34597 MEMB     297      POPC     H12A     HL       0.250000       1.00800           0
     34598 MEMB     297      POPC     H12B     HL       0.250000       1.00800           0
     34599 MEMB     297      POPC     C13      CTL5    -0.350000       12.0110           0
     34600 MEMB     297      POPC     H13A     HL       0.250000       1.00800           0
     34601 MEMB     297      POPC     H13B     HL       0.250000       1.00800           0
     34602 MEMB     297      POPC     H13C     HL       0.250000       1.00800           0
     34603 MEMB     297      POPC     C14      CTL5    -0.350000       12.0110           0
     34604 MEMB     297      POPC     H14A     HL       0.250000       1.00800           0
     34605 MEMB     297      POPC     H14B     HL       0.250000       1.00800           0
     34606 MEMB     297      POPC     H14C     HL       0.250000       1.00800           0
     34607 MEMB     297      POPC     C15      CTL5    -0.350000       12.0110           0
     34608 MEMB     297      POPC     H15A     HL       0.250000       1.00800           0
     34609 MEMB     297      POPC     H15B     HL       0.250000       1.00800           0
     34610 MEMB     297      POPC     H15C     HL       0.250000       1.00800           0
     34611 MEMB     297      POPC     C11      CTL2    -0.800000E-01   12.0110           0
     34612 MEMB     297      POPC     H11A     HAL2     0.900000E-01   1.00800           0
     34613 MEMB     297      POPC     H11B     HAL2     0.900000E-01   1.00800           0
     34614 MEMB     297      POPC     P        PL        1.50000       30.9740           0
     34615 MEMB     297      POPC     O13      O2L     -0.780000       15.9994           0
     34616 MEMB     297      POPC     O14      O2L     -0.780000       15.9994           0
     34617 MEMB     297      POPC     O12      OSLP    -0.570000       15.9994           0
     34618 MEMB     297      POPC     O11      OSLP    -0.570000       15.9994           0
     34619 MEMB     297      POPC     C1       CTL2    -0.800000E-01   12.0110           0
     34620 MEMB     297      POPC     HA       HAL2     0.900000E-01   1.00800           0
     34621 MEMB     297      POPC     HB       HAL2     0.900000E-01   1.00800           0
     34622 MEMB     297      POPC     C2       CTL1     0.170000       12.0110           0
     34623 MEMB     297      POPC     HS       HAL1     0.900000E-01   1.00800           0
     34624 MEMB     297      POPC     O21      OSL     -0.490000       15.9994           0
     34625 MEMB     297      POPC     C21      CL       0.900000       12.0110           0
     34626 MEMB     297      POPC     O22      OBL     -0.630000       15.9994           0
     34627 MEMB     297      POPC     C22      CTL2    -0.220000       12.0110           0
     34628 MEMB     297      POPC     H2R      HAL2     0.900000E-01   1.00800           0
     34629 MEMB     297      POPC     H2S      HAL2     0.900000E-01   1.00800           0
     34630 MEMB     297      POPC     C3       CTL2     0.800000E-01   12.0110           0
     34631 MEMB     297      POPC     HX       HAL2     0.900000E-01   1.00800           0
     34632 MEMB     297      POPC     HY       HAL2     0.900000E-01   1.00800           0
     34633 MEMB     297      POPC     O31      OSL     -0.490000       15.9994           0
     34634 MEMB     297      POPC     C31      CL       0.900000       12.0110           0
     34635 MEMB     297      POPC     O32      OBL     -0.630000       15.9994           0
     34636 MEMB     297      POPC     C32      CTL2    -0.220000       12.0110           0
     34637 MEMB     297      POPC     H2X      HAL2     0.900000E-01   1.00800           0
     34638 MEMB     297      POPC     H2Y      HAL2     0.900000E-01   1.00800           0
     34639 MEMB     297      POPC     C23      CTL2    -0.180000       12.0110           0
     34640 MEMB     297      POPC     H3R      HAL2     0.900000E-01   1.00800           0
     34641 MEMB     297      POPC     H3S      HAL2     0.900000E-01   1.00800           0
     34642 MEMB     297      POPC     C24      CTL2    -0.180000       12.0110           0
     34643 MEMB     297      POPC     H4R      HAL2     0.900000E-01   1.00800           0
     34644 MEMB     297      POPC     H4S      HAL2     0.900000E-01   1.00800           0
     34645 MEMB     297      POPC     C25      CTL2    -0.180000       12.0110           0
     34646 MEMB     297      POPC     H5R      HAL2     0.900000E-01   1.00800           0
     34647 MEMB     297      POPC     H5S      HAL2     0.900000E-01   1.00800           0
     34648 MEMB     297      POPC     C26      CTL2    -0.180000       12.0110           0
     34649 MEMB     297      POPC     H6R      HAL2     0.900000E-01   1.00800           0
     34650 MEMB     297      POPC     H6S      HAL2     0.900000E-01   1.00800           0
     34651 MEMB     297      POPC     C27      CTL2    -0.180000       12.0110           0
     34652 MEMB     297      POPC     H7R      HAL2     0.900000E-01   1.00800           0
     34653 MEMB     297      POPC     H7S      HAL2     0.900000E-01   1.00800           0
     34654 MEMB     297      POPC     C28      CTL2    -0.180000       12.0110           0
     34655 MEMB     297      POPC     H8R      HAL2     0.900000E-01   1.00800           0
     34656 MEMB     297      POPC     H8S      HAL2     0.900000E-01   1.00800           0
     34657 MEMB     297      POPC     C29      CEL1    -0.150000       12.0110           0
     34658 MEMB     297      POPC     H91      HEL1     0.150000       1.00800           0
     34659 MEMB     297      POPC     C210     CEL1    -0.150000       12.0110           0
     34660 MEMB     297      POPC     H101     HEL1     0.150000       1.00800           0
     34661 MEMB     297      POPC     C211     CTL2    -0.180000       12.0110           0
     34662 MEMB     297      POPC     H11R     HAL2     0.900000E-01   1.00800           0
     34663 MEMB     297      POPC     H11S     HAL2     0.900000E-01   1.00800           0
     34664 MEMB     297      POPC     C212     CTL2    -0.180000       12.0110           0
     34665 MEMB     297      POPC     H12R     HAL2     0.900000E-01   1.00800           0
     34666 MEMB     297      POPC     H12S     HAL2     0.900000E-01   1.00800           0
     34667 MEMB     297      POPC     C213     CTL2    -0.180000       12.0110           0
     34668 MEMB     297      POPC     H13R     HAL2     0.900000E-01   1.00800           0
     34669 MEMB     297      POPC     H13S     HAL2     0.900000E-01   1.00800           0
     34670 MEMB     297      POPC     C214     CTL2    -0.180000       12.0110           0
     34671 MEMB     297      POPC     H14R     HAL2     0.900000E-01   1.00800           0
     34672 MEMB     297      POPC     H14S     HAL2     0.900000E-01   1.00800           0
     34673 MEMB     297      POPC     C215     CTL2    -0.180000       12.0110           0
     34674 MEMB     297      POPC     H15R     HAL2     0.900000E-01   1.00800           0
     34675 MEMB     297      POPC     H15S     HAL2     0.900000E-01   1.00800           0
     34676 MEMB     297      POPC     C216     CTL2    -0.180000       12.0110           0
     34677 MEMB     297      POPC     H16R     HAL2     0.900000E-01   1.00800           0
     34678 MEMB     297      POPC     H16S     HAL2     0.900000E-01   1.00800           0
     34679 MEMB     297      POPC     C217     CTL2    -0.180000       12.0110           0
     34680 MEMB     297      POPC     H17R     HAL2     0.900000E-01   1.00800           0
     34681 MEMB     297      POPC     H17S     HAL2     0.900000E-01   1.00800           0
     34682 MEMB     297      POPC     C218     CTL3    -0.270000       12.0110           0
     34683 MEMB     297      POPC     H18R     HAL3     0.900000E-01   1.00800           0
     34684 MEMB     297      POPC     H18S     HAL3     0.900000E-01   1.00800           0
     34685 MEMB     297      POPC     H18T     HAL3     0.900000E-01   1.00800           0
     34686 MEMB     297      POPC     C33      CTL2    -0.180000       12.0110           0
     34687 MEMB     297      POPC     H3X      HAL2     0.900000E-01   1.00800           0
     34688 MEMB     297      POPC     H3Y      HAL2     0.900000E-01   1.00800           0
     34689 MEMB     297      POPC     C34      CTL2    -0.180000       12.0110           0
     34690 MEMB     297      POPC     H4X      HAL2     0.900000E-01   1.00800           0
     34691 MEMB     297      POPC     H4Y      HAL2     0.900000E-01   1.00800           0
     34692 MEMB     297      POPC     C35      CTL2    -0.180000       12.0110           0
     34693 MEMB     297      POPC     H5X      HAL2     0.900000E-01   1.00800           0
     34694 MEMB     297      POPC     H5Y      HAL2     0.900000E-01   1.00800           0
     34695 MEMB     297      POPC     C36      CTL2    -0.180000       12.0110           0
     34696 MEMB     297      POPC     H6X      HAL2     0.900000E-01   1.00800           0
     34697 MEMB     297      POPC     H6Y      HAL2     0.900000E-01   1.00800           0
     34698 MEMB     297      POPC     C37      CTL2    -0.180000       12.0110           0
     34699 MEMB     297      POPC     H7X      HAL2     0.900000E-01   1.00800           0
     34700 MEMB     297      POPC     H7Y      HAL2     0.900000E-01   1.00800           0
     34701 MEMB     297      POPC     C38      CTL2    -0.180000       12.0110           0
     34702 MEMB     297      POPC     H8X      HAL2     0.900000E-01   1.00800           0
     34703 MEMB     297      POPC     H8Y      HAL2     0.900000E-01   1.00800           0
     34704 MEMB     297      POPC     C39      CTL2    -0.180000       12.0110           0
     34705 MEMB     297      POPC     H9X      HAL2     0.900000E-01   1.00800           0
     34706 MEMB     297      POPC     H9Y      HAL2     0.900000E-01   1.00800           0
     34707 MEMB     297      POPC     C310     CTL2    -0.180000       12.0110           0
     34708 MEMB     297      POPC     H10X     HAL2     0.900000E-01   1.00800           0
     34709 MEMB     297      POPC     H10Y     HAL2     0.900000E-01   1.00800           0
     34710 MEMB     297      POPC     C311     CTL2    -0.180000       12.0110           0
     34711 MEMB     297      POPC     H11X     HAL2     0.900000E-01   1.00800           0
     34712 MEMB     297      POPC     H11Y     HAL2     0.900000E-01   1.00800           0
     34713 MEMB     297      POPC     C312     CTL2    -0.180000       12.0110           0
     34714 MEMB     297      POPC     H12X     HAL2     0.900000E-01   1.00800           0
     34715 MEMB     297      POPC     H12Y     HAL2     0.900000E-01   1.00800           0
     34716 MEMB     297      POPC     C313     CTL2    -0.180000       12.0110           0
     34717 MEMB     297      POPC     H13X     HAL2     0.900000E-01   1.00800           0
     34718 MEMB     297      POPC     H13Y     HAL2     0.900000E-01   1.00800           0
     34719 MEMB     297      POPC     C314     CTL2    -0.180000       12.0110           0
     34720 MEMB     297      POPC     H14X     HAL2     0.900000E-01   1.00800           0
     34721 MEMB     297      POPC     H14Y     HAL2     0.900000E-01   1.00800           0
     34722 MEMB     297      POPC     C315     CTL2    -0.180000       12.0110           0
     34723 MEMB     297      POPC     H15X     HAL2     0.900000E-01   1.00800           0
     34724 MEMB     297      POPC     H15Y     HAL2     0.900000E-01   1.00800           0
     34725 MEMB     297      POPC     C316     CTL3    -0.270000       12.0110           0
     34726 MEMB     297      POPC     H16X     HAL3     0.900000E-01   1.00800           0
     34727 MEMB     297      POPC     H16Y     HAL3     0.900000E-01   1.00800           0
     34728 MEMB     297      POPC     H16Z     HAL3     0.900000E-01   1.00800           0
     34729 MEMB     298      POPC     N        NTL     -0.600000       14.0070           0
     34730 MEMB     298      POPC     C12      CTL2    -0.100000       12.0110           0
     34731 MEMB     298      POPC     H12A     HL       0.250000       1.00800           0
     34732 MEMB     298      POPC     H12B     HL       0.250000       1.00800           0
     34733 MEMB     298      POPC     C13      CTL5    -0.350000       12.0110           0
     34734 MEMB     298      POPC     H13A     HL       0.250000       1.00800           0
     34735 MEMB     298      POPC     H13B     HL       0.250000       1.00800           0
     34736 MEMB     298      POPC     H13C     HL       0.250000       1.00800           0
     34737 MEMB     298      POPC     C14      CTL5    -0.350000       12.0110           0
     34738 MEMB     298      POPC     H14A     HL       0.250000       1.00800           0
     34739 MEMB     298      POPC     H14B     HL       0.250000       1.00800           0
     34740 MEMB     298      POPC     H14C     HL       0.250000       1.00800           0
     34741 MEMB     298      POPC     C15      CTL5    -0.350000       12.0110           0
     34742 MEMB     298      POPC     H15A     HL       0.250000       1.00800           0
     34743 MEMB     298      POPC     H15B     HL       0.250000       1.00800           0
     34744 MEMB     298      POPC     H15C     HL       0.250000       1.00800           0
     34745 MEMB     298      POPC     C11      CTL2    -0.800000E-01   12.0110           0
     34746 MEMB     298      POPC     H11A     HAL2     0.900000E-01   1.00800           0
     34747 MEMB     298      POPC     H11B     HAL2     0.900000E-01   1.00800           0
     34748 MEMB     298      POPC     P        PL        1.50000       30.9740           0
     34749 MEMB     298      POPC     O13      O2L     -0.780000       15.9994           0
     34750 MEMB     298      POPC     O14      O2L     -0.780000       15.9994           0
     34751 MEMB     298      POPC     O12      OSLP    -0.570000       15.9994           0
     34752 MEMB     298      POPC     O11      OSLP    -0.570000       15.9994           0
     34753 MEMB     298      POPC     C1       CTL2    -0.800000E-01   12.0110           0
     34754 MEMB     298      POPC     HA       HAL2     0.900000E-01   1.00800           0
     34755 MEMB     298      POPC     HB       HAL2     0.900000E-01   1.00800           0
     34756 MEMB     298      POPC     C2       CTL1     0.170000       12.0110           0
     34757 MEMB     298      POPC     HS       HAL1     0.900000E-01   1.00800           0
     34758 MEMB     298      POPC     O21      OSL     -0.490000       15.9994           0
     34759 MEMB     298      POPC     C21      CL       0.900000       12.0110           0
     34760 MEMB     298      POPC     O22      OBL     -0.630000       15.9994           0
     34761 MEMB     298      POPC     C22      CTL2    -0.220000       12.0110           0
     34762 MEMB     298      POPC     H2R      HAL2     0.900000E-01   1.00800           0
     34763 MEMB     298      POPC     H2S      HAL2     0.900000E-01   1.00800           0
     34764 MEMB     298      POPC     C3       CTL2     0.800000E-01   12.0110           0
     34765 MEMB     298      POPC     HX       HAL2     0.900000E-01   1.00800           0
     34766 MEMB     298      POPC     HY       HAL2     0.900000E-01   1.00800           0
     34767 MEMB     298      POPC     O31      OSL     -0.490000       15.9994           0
     34768 MEMB     298      POPC     C31      CL       0.900000       12.0110           0
     34769 MEMB     298      POPC     O32      OBL     -0.630000       15.9994           0
     34770 MEMB     298      POPC     C32      CTL2    -0.220000       12.0110           0
     34771 MEMB     298      POPC     H2X      HAL2     0.900000E-01   1.00800           0
     34772 MEMB     298      POPC     H2Y      HAL2     0.900000E-01   1.00800           0
     34773 MEMB     298      POPC     C23      CTL2    -0.180000       12.0110           0
     34774 MEMB     298      POPC     H3R      HAL2     0.900000E-01   1.00800           0
     34775 MEMB     298      POPC     H3S      HAL2     0.900000E-01   1.00800           0
     34776 MEMB     298      POPC     C24      CTL2    -0.180000       12.0110           0
     34777 MEMB     298      POPC     H4R      HAL2     0.900000E-01   1.00800           0
     34778 MEMB     298      POPC     H4S      HAL2     0.900000E-01   1.00800           0
     34779 MEMB     298      POPC     C25      CTL2    -0.180000       12.0110           0
     34780 MEMB     298      POPC     H5R      HAL2     0.900000E-01   1.00800           0
     34781 MEMB     298      POPC     H5S      HAL2     0.900000E-01   1.00800           0
     34782 MEMB     298      POPC     C26      CTL2    -0.180000       12.0110           0
     34783 MEMB     298      POPC     H6R      HAL2     0.900000E-01   1.00800           0
     34784 MEMB     298      POPC     H6S      HAL2     0.900000E-01   1.00800           0
     34785 MEMB     298      POPC     C27      CTL2    -0.180000       12.0110           0
     34786 MEMB     298      POPC     H7R      HAL2     0.900000E-01   1.00800           0
     34787 MEMB     298      POPC     H7S      HAL2     0.900000E-01   1.00800           0
     34788 MEMB     298      POPC     C28      CTL2    -0.180000       12.0110           0
     34789 MEMB     298      POPC     H8R      HAL2     0.900000E-01   1.00800           0
     34790 MEMB     298      POPC     H8S      HAL2     0.900000E-01   1.00800           0
     34791 MEMB     298      POPC     C29      CEL1    -0.150000       12.0110           0
     34792 MEMB     298      POPC     H91      HEL1     0.150000       1.00800           0
     34793 MEMB     298      POPC     C210     CEL1    -0.150000       12.0110           0
     34794 MEMB     298      POPC     H101     HEL1     0.150000       1.00800           0
     34795 MEMB     298      POPC     C211     CTL2    -0.180000       12.0110           0
     34796 MEMB     298      POPC     H11R     HAL2     0.900000E-01   1.00800           0
     34797 MEMB     298      POPC     H11S     HAL2     0.900000E-01   1.00800           0
     34798 MEMB     298      POPC     C212     CTL2    -0.180000       12.0110           0
     34799 MEMB     298      POPC     H12R     HAL2     0.900000E-01   1.00800           0
     34800 MEMB     298      POPC     H12S     HAL2     0.900000E-01   1.00800           0
     34801 MEMB     298      POPC     C213     CTL2    -0.180000       12.0110           0
     34802 MEMB     298      POPC     H13R     HAL2     0.900000E-01   1.00800           0
     34803 MEMB     298      POPC     H13S     HAL2     0.900000E-01   1.00800           0
     34804 MEMB     298      POPC     C214     CTL2    -0.180000       12.0110           0
     34805 MEMB     298      POPC     H14R     HAL2     0.900000E-01   1.00800           0
     34806 MEMB     298      POPC     H14S     HAL2     0.900000E-01   1.00800           0
     34807 MEMB     298      POPC     C215     CTL2    -0.180000       12.0110           0
     34808 MEMB     298      POPC     H15R     HAL2     0.900000E-01   1.00800           0
     34809 MEMB     298      POPC     H15S     HAL2     0.900000E-01   1.00800           0
     34810 MEMB     298      POPC     C216     CTL2    -0.180000       12.0110           0
     34811 MEMB     298      POPC     H16R     HAL2     0.900000E-01   1.00800           0
     34812 MEMB     298      POPC     H16S     HAL2     0.900000E-01   1.00800           0
     34813 MEMB     298      POPC     C217     CTL2    -0.180000       12.0110           0
     34814 MEMB     298      POPC     H17R     HAL2     0.900000E-01   1.00800           0
     34815 MEMB     298      POPC     H17S     HAL2     0.900000E-01   1.00800           0
     34816 MEMB     298      POPC     C218     CTL3    -0.270000       12.0110           0
     34817 MEMB     298      POPC     H18R     HAL3     0.900000E-01   1.00800           0
     34818 MEMB     298      POPC     H18S     HAL3     0.900000E-01   1.00800           0
     34819 MEMB     298      POPC     H18T     HAL3     0.900000E-01   1.00800           0
     34820 MEMB     298      POPC     C33      CTL2    -0.180000       12.0110           0
     34821 MEMB     298      POPC     H3X      HAL2     0.900000E-01   1.00800           0
     34822 MEMB     298      POPC     H3Y      HAL2     0.900000E-01   1.00800           0
     34823 MEMB     298      POPC     C34      CTL2    -0.180000       12.0110           0
     34824 MEMB     298      POPC     H4X      HAL2     0.900000E-01   1.00800           0
     34825 MEMB     298      POPC     H4Y      HAL2     0.900000E-01   1.00800           0
     34826 MEMB     298      POPC     C35      CTL2    -0.180000       12.0110           0
     34827 MEMB     298      POPC     H5X      HAL2     0.900000E-01   1.00800           0
     34828 MEMB     298      POPC     H5Y      HAL2     0.900000E-01   1.00800           0
     34829 MEMB     298      POPC     C36      CTL2    -0.180000       12.0110           0
     34830 MEMB     298      POPC     H6X      HAL2     0.900000E-01   1.00800           0
     34831 MEMB     298      POPC     H6Y      HAL2     0.900000E-01   1.00800           0
     34832 MEMB     298      POPC     C37      CTL2    -0.180000       12.0110           0
     34833 MEMB     298      POPC     H7X      HAL2     0.900000E-01   1.00800           0
     34834 MEMB     298      POPC     H7Y      HAL2     0.900000E-01   1.00800           0
     34835 MEMB     298      POPC     C38      CTL2    -0.180000       12.0110           0
     34836 MEMB     298      POPC     H8X      HAL2     0.900000E-01   1.00800           0
     34837 MEMB     298      POPC     H8Y      HAL2     0.900000E-01   1.00800           0
     34838 MEMB     298      POPC     C39      CTL2    -0.180000       12.0110           0
     34839 MEMB     298      POPC     H9X      HAL2     0.900000E-01   1.00800           0
     34840 MEMB     298      POPC     H9Y      HAL2     0.900000E-01   1.00800           0
     34841 MEMB     298      POPC     C310     CTL2    -0.180000       12.0110           0
     34842 MEMB     298      POPC     H10X     HAL2     0.900000E-01   1.00800           0
     34843 MEMB     298      POPC     H10Y     HAL2     0.900000E-01   1.00800           0
     34844 MEMB     298      POPC     C311     CTL2    -0.180000       12.0110           0
     34845 MEMB     298      POPC     H11X     HAL2     0.900000E-01   1.00800           0
     34846 MEMB     298      POPC     H11Y     HAL2     0.900000E-01   1.00800           0
     34847 MEMB     298      POPC     C312     CTL2    -0.180000       12.0110           0
     34848 MEMB     298      POPC     H12X     HAL2     0.900000E-01   1.00800           0
     34849 MEMB     298      POPC     H12Y     HAL2     0.900000E-01   1.00800           0
     34850 MEMB     298      POPC     C313     CTL2    -0.180000       12.0110           0
     34851 MEMB     298      POPC     H13X     HAL2     0.900000E-01   1.00800           0
     34852 MEMB     298      POPC     H13Y     HAL2     0.900000E-01   1.00800           0
     34853 MEMB     298      POPC     C314     CTL2    -0.180000       12.0110           0
     34854 MEMB     298      POPC     H14X     HAL2     0.900000E-01   1.00800           0
     34855 MEMB     298      POPC     H14Y     HAL2     0.900000E-01   1.00800           0
     34856 MEMB     298      POPC     C315     CTL2    -0.180000       12.0110           0
     34857 MEMB     298      POPC     H15X     HAL2     0.900000E-01   1.00800           0
     34858 MEMB     298      POPC     H15Y     HAL2     0.900000E-01   1.00800           0
     34859 MEMB     298      POPC     C316     CTL3    -0.270000       12.0110           0
     34860 MEMB     298      POPC     H16X     HAL3     0.900000E-01   1.00800           0
     34861 MEMB     298      POPC     H16Y     HAL3     0.900000E-01   1.00800           0
     34862 MEMB     298      POPC     H16Z     HAL3     0.900000E-01   1.00800           0
     34863 MEMB     299      POPC     N        NTL     -0.600000       14.0070           0
     34864 MEMB     299      POPC     C12      CTL2    -0.100000       12.0110           0
     34865 MEMB     299      POPC     H12A     HL       0.250000       1.00800           0
     34866 MEMB     299      POPC     H12B     HL       0.250000       1.00800           0
     34867 MEMB     299      POPC     C13      CTL5    -0.350000       12.0110           0
     34868 MEMB     299      POPC     H13A     HL       0.250000       1.00800           0
     34869 MEMB     299      POPC     H13B     HL       0.250000       1.00800           0
     34870 MEMB     299      POPC     H13C     HL       0.250000       1.00800           0
     34871 MEMB     299      POPC     C14      CTL5    -0.350000       12.0110           0
     34872 MEMB     299      POPC     H14A     HL       0.250000       1.00800           0
     34873 MEMB     299      POPC     H14B     HL       0.250000       1.00800           0
     34874 MEMB     299      POPC     H14C     HL       0.250000       1.00800           0
     34875 MEMB     299      POPC     C15      CTL5    -0.350000       12.0110           0
     34876 MEMB     299      POPC     H15A     HL       0.250000       1.00800           0
     34877 MEMB     299      POPC     H15B     HL       0.250000       1.00800           0
     34878 MEMB     299      POPC     H15C     HL       0.250000       1.00800           0
     34879 MEMB     299      POPC     C11      CTL2    -0.800000E-01   12.0110           0
     34880 MEMB     299      POPC     H11A     HAL2     0.900000E-01   1.00800           0
     34881 MEMB     299      POPC     H11B     HAL2     0.900000E-01   1.00800           0
     34882 MEMB     299      POPC     P        PL        1.50000       30.9740           0
     34883 MEMB     299      POPC     O13      O2L     -0.780000       15.9994           0
     34884 MEMB     299      POPC     O14      O2L     -0.780000       15.9994           0
     34885 MEMB     299      POPC     O12      OSLP    -0.570000       15.9994           0
     34886 MEMB     299      POPC     O11      OSLP    -0.570000       15.9994           0
     34887 MEMB     299      POPC     C1       CTL2    -0.800000E-01   12.0110           0
     34888 MEMB     299      POPC     HA       HAL2     0.900000E-01   1.00800           0
     34889 MEMB     299      POPC     HB       HAL2     0.900000E-01   1.00800           0
     34890 MEMB     299      POPC     C2       CTL1     0.170000       12.0110           0
     34891 MEMB     299      POPC     HS       HAL1     0.900000E-01   1.00800           0
     34892 MEMB     299      POPC     O21      OSL     -0.490000       15.9994           0
     34893 MEMB     299      POPC     C21      CL       0.900000       12.0110           0
     34894 MEMB     299      POPC     O22      OBL     -0.630000       15.9994           0
     34895 MEMB     299      POPC     C22      CTL2    -0.220000       12.0110           0
     34896 MEMB     299      POPC     H2R      HAL2     0.900000E-01   1.00800           0
     34897 MEMB     299      POPC     H2S      HAL2     0.900000E-01   1.00800           0
     34898 MEMB     299      POPC     C3       CTL2     0.800000E-01   12.0110           0
     34899 MEMB     299      POPC     HX       HAL2     0.900000E-01   1.00800           0
     34900 MEMB     299      POPC     HY       HAL2     0.900000E-01   1.00800           0
     34901 MEMB     299      POPC     O31      OSL     -0.490000       15.9994           0
     34902 MEMB     299      POPC     C31      CL       0.900000       12.0110           0
     34903 MEMB     299      POPC     O32      OBL     -0.630000       15.9994           0
     34904 MEMB     299      POPC     C32      CTL2    -0.220000       12.0110           0
     34905 MEMB     299      POPC     H2X      HAL2     0.900000E-01   1.00800           0
     34906 MEMB     299      POPC     H2Y      HAL2     0.900000E-01   1.00800           0
     34907 MEMB     299      POPC     C23      CTL2    -0.180000       12.0110           0
     34908 MEMB     299      POPC     H3R      HAL2     0.900000E-01   1.00800           0
     34909 MEMB     299      POPC     H3S      HAL2     0.900000E-01   1.00800           0
     34910 MEMB     299      POPC     C24      CTL2    -0.180000       12.0110           0
     34911 MEMB     299      POPC     H4R      HAL2     0.900000E-01   1.00800           0
     34912 MEMB     299      POPC     H4S      HAL2     0.900000E-01   1.00800           0
     34913 MEMB     299      POPC     C25      CTL2    -0.180000       12.0110           0
     34914 MEMB     299      POPC     H5R      HAL2     0.900000E-01   1.00800           0
     34915 MEMB     299      POPC     H5S      HAL2     0.900000E-01   1.00800           0
     34916 MEMB     299      POPC     C26      CTL2    -0.180000       12.0110           0
     34917 MEMB     299      POPC     H6R      HAL2     0.900000E-01   1.00800           0
     34918 MEMB     299      POPC     H6S      HAL2     0.900000E-01   1.00800           0
     34919 MEMB     299      POPC     C27      CTL2    -0.180000       12.0110           0
     34920 MEMB     299      POPC     H7R      HAL2     0.900000E-01   1.00800           0
     34921 MEMB     299      POPC     H7S      HAL2     0.900000E-01   1.00800           0
     34922 MEMB     299      POPC     C28      CTL2    -0.180000       12.0110           0
     34923 MEMB     299      POPC     H8R      HAL2     0.900000E-01   1.00800           0
     34924 MEMB     299      POPC     H8S      HAL2     0.900000E-01   1.00800           0
     34925 MEMB     299      POPC     C29      CEL1    -0.150000       12.0110           0
     34926 MEMB     299      POPC     H91      HEL1     0.150000       1.00800           0
     34927 MEMB     299      POPC     C210     CEL1    -0.150000       12.0110           0
     34928 MEMB     299      POPC     H101     HEL1     0.150000       1.00800           0
     34929 MEMB     299      POPC     C211     CTL2    -0.180000       12.0110           0
     34930 MEMB     299      POPC     H11R     HAL2     0.900000E-01   1.00800           0
     34931 MEMB     299      POPC     H11S     HAL2     0.900000E-01   1.00800           0
     34932 MEMB     299      POPC     C212     CTL2    -0.180000       12.0110           0
     34933 MEMB     299      POPC     H12R     HAL2     0.900000E-01   1.00800           0
     34934 MEMB     299      POPC     H12S     HAL2     0.900000E-01   1.00800           0
     34935 MEMB     299      POPC     C213     CTL2    -0.180000       12.0110           0
     34936 MEMB     299      POPC     H13R     HAL2     0.900000E-01   1.00800           0
     34937 MEMB     299      POPC     H13S     HAL2     0.900000E-01   1.00800           0
     34938 MEMB     299      POPC     C214     CTL2    -0.180000       12.0110           0
     34939 MEMB     299      POPC     H14R     HAL2     0.900000E-01   1.00800           0
     34940 MEMB     299      POPC     H14S     HAL2     0.900000E-01   1.00800           0
     34941 MEMB     299      POPC     C215     CTL2    -0.180000       12.0110           0
     34942 MEMB     299      POPC     H15R     HAL2     0.900000E-01   1.00800           0
     34943 MEMB     299      POPC     H15S     HAL2     0.900000E-01   1.00800           0
     34944 MEMB     299      POPC     C216     CTL2    -0.180000       12.0110           0
     34945 MEMB     299      POPC     H16R     HAL2     0.900000E-01   1.00800           0
     34946 MEMB     299      POPC     H16S     HAL2     0.900000E-01   1.00800           0
     34947 MEMB     299      POPC     C217     CTL2    -0.180000       12.0110           0
     34948 MEMB     299      POPC     H17R     HAL2     0.900000E-01   1.00800           0
     34949 MEMB     299      POPC     H17S     HAL2     0.900000E-01   1.00800           0
     34950 MEMB     299      POPC     C218     CTL3    -0.270000       12.0110           0
     34951 MEMB     299      POPC     H18R     HAL3     0.900000E-01   1.00800           0
     34952 MEMB     299      POPC     H18S     HAL3     0.900000E-01   1.00800           0
     34953 MEMB     299      POPC     H18T     HAL3     0.900000E-01   1.00800           0
     34954 MEMB     299      POPC     C33      CTL2    -0.180000       12.0110           0
     34955 MEMB     299      POPC     H3X      HAL2     0.900000E-01   1.00800           0
     34956 MEMB     299      POPC     H3Y      HAL2     0.900000E-01   1.00800           0
     34957 MEMB     299      POPC     C34      CTL2    -0.180000       12.0110           0
     34958 MEMB     299      POPC     H4X      HAL2     0.900000E-01   1.00800           0
     34959 MEMB     299      POPC     H4Y      HAL2     0.900000E-01   1.00800           0
     34960 MEMB     299      POPC     C35      CTL2    -0.180000       12.0110           0
     34961 MEMB     299      POPC     H5X      HAL2     0.900000E-01   1.00800           0
     34962 MEMB     299      POPC     H5Y      HAL2     0.900000E-01   1.00800           0
     34963 MEMB     299      POPC     C36      CTL2    -0.180000       12.0110           0
     34964 MEMB     299      POPC     H6X      HAL2     0.900000E-01   1.00800           0
     34965 MEMB     299      POPC     H6Y      HAL2     0.900000E-01   1.00800           0
     34966 MEMB     299      POPC     C37      CTL2    -0.180000       12.0110           0
     34967 MEMB     299      POPC     H7X      HAL2     0.900000E-01   1.00800           0
     34968 MEMB     299      POPC     H7Y      HAL2     0.900000E-01   1.00800           0
     34969 MEMB     299      POPC     C38      CTL2    -0.180000       12.0110           0
     34970 MEMB     299      POPC     H8X      HAL2     0.900000E-01   1.00800           0
     34971 MEMB     299      POPC     H8Y      HAL2     0.900000E-01   1.00800           0
     34972 MEMB     299      POPC     C39      CTL2    -0.180000       12.0110           0
     34973 MEMB     299      POPC     H9X      HAL2     0.900000E-01   1.00800           0
     34974 MEMB     299      POPC     H9Y      HAL2     0.900000E-01   1.00800           0
     34975 MEMB     299      POPC     C310     CTL2    -0.180000       12.0110           0
     34976 MEMB     299      POPC     H10X     HAL2     0.900000E-01   1.00800           0
     34977 MEMB     299      POPC     H10Y     HAL2     0.900000E-01   1.00800           0
     34978 MEMB     299      POPC     C311     CTL2    -0.180000       12.0110           0
     34979 MEMB     299      POPC     H11X     HAL2     0.900000E-01   1.00800           0
     34980 MEMB     299      POPC     H11Y     HAL2     0.900000E-01   1.00800           0
     34981 MEMB     299      POPC     C312     CTL2    -0.180000       12.0110           0
     34982 MEMB     299      POPC     H12X     HAL2     0.900000E-01   1.00800           0
     34983 MEMB     299      POPC     H12Y     HAL2     0.900000E-01   1.00800           0
     34984 MEMB     299      POPC     C313     CTL2    -0.180000       12.0110           0
     34985 MEMB     299      POPC     H13X     HAL2     0.900000E-01   1.00800           0
     34986 MEMB     299      POPC     H13Y     HAL2     0.900000E-01   1.00800           0
     34987 MEMB     299      POPC     C314     CTL2    -0.180000       12.0110           0
     34988 MEMB     299      POPC     H14X     HAL2     0.900000E-01   1.00800           0
     34989 MEMB     299      POPC     H14Y     HAL2     0.900000E-01   1.00800           0
     34990 MEMB     299      POPC     C315     CTL2    -0.180000       12.0110           0
     34991 MEMB     299      POPC     H15X     HAL2     0.900000E-01   1.00800           0
     34992 MEMB     299      POPC     H15Y     HAL2     0.900000E-01   1.00800           0
     34993 MEMB     299      POPC     C316     CTL3    -0.270000       12.0110           0
     34994 MEMB     299      POPC     H16X     HAL3     0.900000E-01   1.00800           0
     34995 MEMB     299      POPC     H16Y     HAL3     0.900000E-01   1.00800           0
     34996 MEMB     299      POPC     H16Z     HAL3     0.900000E-01   1.00800           0
     34997 MEMB     300      POPE     N        NH3L    -0.300000       14.0070           0
     34998 MEMB     300      POPE     HN1      HCL      0.330000       1.00800           0
     34999 MEMB     300      POPE     HN2      HCL      0.330000       1.00800           0
     35000 MEMB     300      POPE     HN3      HCL      0.330000       1.00800           0
     35001 MEMB     300      POPE     C12      CTL2     0.130000       12.0110           0
     35002 MEMB     300      POPE     H12A     HAL2     0.900000E-01   1.00800           0
     35003 MEMB     300      POPE     H12B     HAL2     0.900000E-01   1.00800           0
     35004 MEMB     300      POPE     C11      CTL2    -0.800000E-01   12.0110           0
     35005 MEMB     300      POPE     H11A     HAL2     0.900000E-01   1.00800           0
     35006 MEMB     300      POPE     H11B     HAL2     0.900000E-01   1.00800           0
     35007 MEMB     300      POPE     P        PL        1.50000       30.9740           0
     35008 MEMB     300      POPE     O13      O2L     -0.780000       15.9994           0
     35009 MEMB     300      POPE     O14      O2L     -0.780000       15.9994           0
     35010 MEMB     300      POPE     O11      OSLP    -0.570000       15.9994           0
     35011 MEMB     300      POPE     O12      OSLP    -0.570000       15.9994           0
     35012 MEMB     300      POPE     C1       CTL2    -0.800000E-01   12.0110           0
     35013 MEMB     300      POPE     HA       HAL2     0.900000E-01   1.00800           0
     35014 MEMB     300      POPE     HB       HAL2     0.900000E-01   1.00800           0
     35015 MEMB     300      POPE     C2       CTL1     0.170000       12.0110           0
     35016 MEMB     300      POPE     HS       HAL1     0.900000E-01   1.00800           0
     35017 MEMB     300      POPE     O21      OSL     -0.490000       15.9994           0
     35018 MEMB     300      POPE     C21      CL       0.900000       12.0110           0
     35019 MEMB     300      POPE     O22      OBL     -0.630000       15.9994           0
     35020 MEMB     300      POPE     C22      CTL2    -0.220000       12.0110           0
     35021 MEMB     300      POPE     H2R      HAL2     0.900000E-01   1.00800           0
     35022 MEMB     300      POPE     H2S      HAL2     0.900000E-01   1.00800           0
     35023 MEMB     300      POPE     C3       CTL2     0.800000E-01   12.0110           0
     35024 MEMB     300      POPE     HX       HAL2     0.900000E-01   1.00800           0
     35025 MEMB     300      POPE     HY       HAL2     0.900000E-01   1.00800           0
     35026 MEMB     300      POPE     O31      OSL     -0.490000       15.9994           0
     35027 MEMB     300      POPE     C31      CL       0.900000       12.0110           0
     35028 MEMB     300      POPE     O32      OBL     -0.630000       15.9994           0
     35029 MEMB     300      POPE     C32      CTL2    -0.220000       12.0110           0
     35030 MEMB     300      POPE     H2X      HAL2     0.900000E-01   1.00800           0
     35031 MEMB     300      POPE     H2Y      HAL2     0.900000E-01   1.00800           0
     35032 MEMB     300      POPE     C23      CTL2    -0.180000       12.0110           0
     35033 MEMB     300      POPE     H3R      HAL2     0.900000E-01   1.00800           0
     35034 MEMB     300      POPE     H3S      HAL2     0.900000E-01   1.00800           0
     35035 MEMB     300      POPE     C24      CTL2    -0.180000       12.0110           0
     35036 MEMB     300      POPE     H4R      HAL2     0.900000E-01   1.00800           0
     35037 MEMB     300      POPE     H4S      HAL2     0.900000E-01   1.00800           0
     35038 MEMB     300      POPE     C25      CTL2    -0.180000       12.0110           0
     35039 MEMB     300      POPE     H5R      HAL2     0.900000E-01   1.00800           0
     35040 MEMB     300      POPE     H5S      HAL2     0.900000E-01   1.00800           0
     35041 MEMB     300      POPE     C26      CTL2    -0.180000       12.0110           0
     35042 MEMB     300      POPE     H6R      HAL2     0.900000E-01   1.00800           0
     35043 MEMB     300      POPE     H6S      HAL2     0.900000E-01   1.00800           0
     35044 MEMB     300      POPE     C27      CTL2    -0.180000       12.0110           0
     35045 MEMB     300      POPE     H7R      HAL2     0.900000E-01   1.00800           0
     35046 MEMB     300      POPE     H7S      HAL2     0.900000E-01   1.00800           0
     35047 MEMB     300      POPE     C28      CTL2    -0.180000       12.0110           0
     35048 MEMB     300      POPE     H8R      HAL2     0.900000E-01   1.00800           0
     35049 MEMB     300      POPE     H8S      HAL2     0.900000E-01   1.00800           0
     35050 MEMB     300      POPE     C29      CEL1    -0.150000       12.0110           0
     35051 MEMB     300      POPE     H91      HEL1     0.150000       1.00800           0
     35052 MEMB     300      POPE     C210     CEL1    -0.150000       12.0110           0
     35053 MEMB     300      POPE     H101     HEL1     0.150000       1.00800           0
     35054 MEMB     300      POPE     C211     CTL2    -0.180000       12.0110           0
     35055 MEMB     300      POPE     H11R     HAL2     0.900000E-01   1.00800           0
     35056 MEMB     300      POPE     H11S     HAL2     0.900000E-01   1.00800           0
     35057 MEMB     300      POPE     C212     CTL2    -0.180000       12.0110           0
     35058 MEMB     300      POPE     H12R     HAL2     0.900000E-01   1.00800           0
     35059 MEMB     300      POPE     H12S     HAL2     0.900000E-01   1.00800           0
     35060 MEMB     300      POPE     C213     CTL2    -0.180000       12.0110           0
     35061 MEMB     300      POPE     H13R     HAL2     0.900000E-01   1.00800           0
     35062 MEMB     300      POPE     H13S     HAL2     0.900000E-01   1.00800           0
     35063 MEMB     300      POPE     C214     CTL2    -0.180000       12.0110           0
     35064 MEMB     300      POPE     H14R     HAL2     0.900000E-01   1.00800           0
     35065 MEMB     300      POPE     H14S     HAL2     0.900000E-01   1.00800           0
     35066 MEMB     300      POPE     C215     CTL2    -0.180000       12.0110           0
     35067 MEMB     300      POPE     H15R     HAL2     0.900000E-01   1.00800           0
     35068 MEMB     300      POPE     H15S     HAL2     0.900000E-01   1.00800           0
     35069 MEMB     300      POPE     C216     CTL2    -0.180000       12.0110           0
     35070 MEMB     300      POPE     H16R     HAL2     0.900000E-01   1.00800           0
     35071 MEMB     300      POPE     H16S     HAL2     0.900000E-01   1.00800           0
     35072 MEMB     300      POPE     C217     CTL2    -0.180000       12.0110           0
     35073 MEMB     300      POPE     H17R     HAL2     0.900000E-01   1.00800           0
     35074 MEMB     300      POPE     H17S     HAL2     0.900000E-01   1.00800           0
     35075 MEMB     300      POPE     C218     CTL3    -0.270000       12.0110           0
     35076 MEMB     300      POPE     H18R     HAL3     0.900000E-01   1.00800           0
     35077 MEMB     300      POPE     H18S     HAL3     0.900000E-01   1.00800           0
     35078 MEMB     300      POPE     H18T     HAL3     0.900000E-01   1.00800           0
     35079 MEMB     300      POPE     C33      CTL2    -0.180000       12.0110           0
     35080 MEMB     300      POPE     H3X      HAL2     0.900000E-01   1.00800           0
     35081 MEMB     300      POPE     H3Y      HAL2     0.900000E-01   1.00800           0
     35082 MEMB     300      POPE     C34      CTL2    -0.180000       12.0110           0
     35083 MEMB     300      POPE     H4X      HAL2     0.900000E-01   1.00800           0
     35084 MEMB     300      POPE     H4Y      HAL2     0.900000E-01   1.00800           0
     35085 MEMB     300      POPE     C35      CTL2    -0.180000       12.0110           0
     35086 MEMB     300      POPE     H5X      HAL2     0.900000E-01   1.00800           0
     35087 MEMB     300      POPE     H5Y      HAL2     0.900000E-01   1.00800           0
     35088 MEMB     300      POPE     C36      CTL2    -0.180000       12.0110           0
     35089 MEMB     300      POPE     H6X      HAL2     0.900000E-01   1.00800           0
     35090 MEMB     300      POPE     H6Y      HAL2     0.900000E-01   1.00800           0
     35091 MEMB     300      POPE     C37      CTL2    -0.180000       12.0110           0
     35092 MEMB     300      POPE     H7X      HAL2     0.900000E-01   1.00800           0
     35093 MEMB     300      POPE     H7Y      HAL2     0.900000E-01   1.00800           0
     35094 MEMB     300      POPE     C38      CTL2    -0.180000       12.0110           0
     35095 MEMB     300      POPE     H8X      HAL2     0.900000E-01   1.00800           0
     35096 MEMB     300      POPE     H8Y      HAL2     0.900000E-01   1.00800           0
     35097 MEMB     300      POPE     C39      CTL2    -0.180000       12.0110           0
     35098 MEMB     300      POPE     H9X      HAL2     0.900000E-01   1.00800           0
     35099 MEMB     300      POPE     H9Y      HAL2     0.900000E-01   1.00800           0
     35100 MEMB     300      POPE     C310     CTL2    -0.180000       12.0110           0
     35101 MEMB     300      POPE     H10X     HAL2     0.900000E-01   1.00800           0
     35102 MEMB     300      POPE     H10Y     HAL2     0.900000E-01   1.00800           0
     35103 MEMB     300      POPE     C311     CTL2    -0.180000       12.0110           0
     35104 MEMB     300      POPE     H11X     HAL2     0.900000E-01   1.00800           0
     35105 MEMB     300      POPE     H11Y     HAL2     0.900000E-01   1.00800           0
     35106 MEMB     300      POPE     C312     CTL2    -0.180000       12.0110           0
     35107 MEMB     300      POPE     H12X     HAL2     0.900000E-01   1.00800           0
     35108 MEMB     300      POPE     H12Y     HAL2     0.900000E-01   1.00800           0
     35109 MEMB     300      POPE     C313     CTL2    -0.180000       12.0110           0
     35110 MEMB     300      POPE     H13X     HAL2     0.900000E-01   1.00800           0
     35111 MEMB     300      POPE     H13Y     HAL2     0.900000E-01   1.00800           0
     35112 MEMB     300      POPE     C314     CTL2    -0.180000       12.0110           0
     35113 MEMB     300      POPE     H14X     HAL2     0.900000E-01   1.00800           0
     35114 MEMB     300      POPE     H14Y     HAL2     0.900000E-01   1.00800           0
     35115 MEMB     300      POPE     C315     CTL2    -0.180000       12.0110           0
     35116 MEMB     300      POPE     H15X     HAL2     0.900000E-01   1.00800           0
     35117 MEMB     300      POPE     H15Y     HAL2     0.900000E-01   1.00800           0
     35118 MEMB     300      POPE     C316     CTL3    -0.270000       12.0110           0
     35119 MEMB     300      POPE     H16X     HAL3     0.900000E-01   1.00800           0
     35120 MEMB     300      POPE     H16Y     HAL3     0.900000E-01   1.00800           0
     35121 MEMB     300      POPE     H16Z     HAL3     0.900000E-01   1.00800           0
     35122 MEMB     301      POPE     N        NH3L    -0.300000       14.0070           0
     35123 MEMB     301      POPE     HN1      HCL      0.330000       1.00800           0
     35124 MEMB     301      POPE     HN2      HCL      0.330000       1.00800           0
     35125 MEMB     301      POPE     HN3      HCL      0.330000       1.00800           0
     35126 MEMB     301      POPE     C12      CTL2     0.130000       12.0110           0
     35127 MEMB     301      POPE     H12A     HAL2     0.900000E-01   1.00800           0
     35128 MEMB     301      POPE     H12B     HAL2     0.900000E-01   1.00800           0
     35129 MEMB     301      POPE     C11      CTL2    -0.800000E-01   12.0110           0
     35130 MEMB     301      POPE     H11A     HAL2     0.900000E-01   1.00800           0
     35131 MEMB     301      POPE     H11B     HAL2     0.900000E-01   1.00800           0
     35132 MEMB     301      POPE     P        PL        1.50000       30.9740           0
     35133 MEMB     301      POPE     O13      O2L     -0.780000       15.9994           0
     35134 MEMB     301      POPE     O14      O2L     -0.780000       15.9994           0
     35135 MEMB     301      POPE     O11      OSLP    -0.570000       15.9994           0
     35136 MEMB     301      POPE     O12      OSLP    -0.570000       15.9994           0
     35137 MEMB     301      POPE     C1       CTL2    -0.800000E-01   12.0110           0
     35138 MEMB     301      POPE     HA       HAL2     0.900000E-01   1.00800           0
     35139 MEMB     301      POPE     HB       HAL2     0.900000E-01   1.00800           0
     35140 MEMB     301      POPE     C2       CTL1     0.170000       12.0110           0
     35141 MEMB     301      POPE     HS       HAL1     0.900000E-01   1.00800           0
     35142 MEMB     301      POPE     O21      OSL     -0.490000       15.9994           0
     35143 MEMB     301      POPE     C21      CL       0.900000       12.0110           0
     35144 MEMB     301      POPE     O22      OBL     -0.630000       15.9994           0
     35145 MEMB     301      POPE     C22      CTL2    -0.220000       12.0110           0
     35146 MEMB     301      POPE     H2R      HAL2     0.900000E-01   1.00800           0
     35147 MEMB     301      POPE     H2S      HAL2     0.900000E-01   1.00800           0
     35148 MEMB     301      POPE     C3       CTL2     0.800000E-01   12.0110           0
     35149 MEMB     301      POPE     HX       HAL2     0.900000E-01   1.00800           0
     35150 MEMB     301      POPE     HY       HAL2     0.900000E-01   1.00800           0
     35151 MEMB     301      POPE     O31      OSL     -0.490000       15.9994           0
     35152 MEMB     301      POPE     C31      CL       0.900000       12.0110           0
     35153 MEMB     301      POPE     O32      OBL     -0.630000       15.9994           0
     35154 MEMB     301      POPE     C32      CTL2    -0.220000       12.0110           0
     35155 MEMB     301      POPE     H2X      HAL2     0.900000E-01   1.00800           0
     35156 MEMB     301      POPE     H2Y      HAL2     0.900000E-01   1.00800           0
     35157 MEMB     301      POPE     C23      CTL2    -0.180000       12.0110           0
     35158 MEMB     301      POPE     H3R      HAL2     0.900000E-01   1.00800           0
     35159 MEMB     301      POPE     H3S      HAL2     0.900000E-01   1.00800           0
     35160 MEMB     301      POPE     C24      CTL2    -0.180000       12.0110           0
     35161 MEMB     301      POPE     H4R      HAL2     0.900000E-01   1.00800           0
     35162 MEMB     301      POPE     H4S      HAL2     0.900000E-01   1.00800           0
     35163 MEMB     301      POPE     C25      CTL2    -0.180000       12.0110           0
     35164 MEMB     301      POPE     H5R      HAL2     0.900000E-01   1.00800           0
     35165 MEMB     301      POPE     H5S      HAL2     0.900000E-01   1.00800           0
     35166 MEMB     301      POPE     C26      CTL2    -0.180000       12.0110           0
     35167 MEMB     301      POPE     H6R      HAL2     0.900000E-01   1.00800           0
     35168 MEMB     301      POPE     H6S      HAL2     0.900000E-01   1.00800           0
     35169 MEMB     301      POPE     C27      CTL2    -0.180000       12.0110           0
     35170 MEMB     301      POPE     H7R      HAL2     0.900000E-01   1.00800           0
     35171 MEMB     301      POPE     H7S      HAL2     0.900000E-01   1.00800           0
     35172 MEMB     301      POPE     C28      CTL2    -0.180000       12.0110           0
     35173 MEMB     301      POPE     H8R      HAL2     0.900000E-01   1.00800           0
     35174 MEMB     301      POPE     H8S      HAL2     0.900000E-01   1.00800           0
     35175 MEMB     301      POPE     C29      CEL1    -0.150000       12.0110           0
     35176 MEMB     301      POPE     H91      HEL1     0.150000       1.00800           0
     35177 MEMB     301      POPE     C210     CEL1    -0.150000       12.0110           0
     35178 MEMB     301      POPE     H101     HEL1     0.150000       1.00800           0
     35179 MEMB     301      POPE     C211     CTL2    -0.180000       12.0110           0
     35180 MEMB     301      POPE     H11R     HAL2     0.900000E-01   1.00800           0
     35181 MEMB     301      POPE     H11S     HAL2     0.900000E-01   1.00800           0
     35182 MEMB     301      POPE     C212     CTL2    -0.180000       12.0110           0
     35183 MEMB     301      POPE     H12R     HAL2     0.900000E-01   1.00800           0
     35184 MEMB     301      POPE     H12S     HAL2     0.900000E-01   1.00800           0
     35185 MEMB     301      POPE     C213     CTL2    -0.180000       12.0110           0
     35186 MEMB     301      POPE     H13R     HAL2     0.900000E-01   1.00800           0
     35187 MEMB     301      POPE     H13S     HAL2     0.900000E-01   1.00800           0
     35188 MEMB     301      POPE     C214     CTL2    -0.180000       12.0110           0
     35189 MEMB     301      POPE     H14R     HAL2     0.900000E-01   1.00800           0
     35190 MEMB     301      POPE     H14S     HAL2     0.900000E-01   1.00800           0
     35191 MEMB     301      POPE     C215     CTL2    -0.180000       12.0110           0
     35192 MEMB     301      POPE     H15R     HAL2     0.900000E-01   1.00800           0
     35193 MEMB     301      POPE     H15S     HAL2     0.900000E-01   1.00800           0
     35194 MEMB     301      POPE     C216     CTL2    -0.180000       12.0110           0
     35195 MEMB     301      POPE     H16R     HAL2     0.900000E-01   1.00800           0
     35196 MEMB     301      POPE     H16S     HAL2     0.900000E-01   1.00800           0
     35197 MEMB     301      POPE     C217     CTL2    -0.180000       12.0110           0
     35198 MEMB     301      POPE     H17R     HAL2     0.900000E-01   1.00800           0
     35199 MEMB     301      POPE     H17S     HAL2     0.900000E-01   1.00800           0
     35200 MEMB     301      POPE     C218     CTL3    -0.270000       12.0110           0
     35201 MEMB     301      POPE     H18R     HAL3     0.900000E-01   1.00800           0
     35202 MEMB     301      POPE     H18S     HAL3     0.900000E-01   1.00800           0
     35203 MEMB     301      POPE     H18T     HAL3     0.900000E-01   1.00800           0
     35204 MEMB     301      POPE     C33      CTL2    -0.180000       12.0110           0
     35205 MEMB     301      POPE     H3X      HAL2     0.900000E-01   1.00800           0
     35206 MEMB     301      POPE     H3Y      HAL2     0.900000E-01   1.00800           0
     35207 MEMB     301      POPE     C34      CTL2    -0.180000       12.0110           0
     35208 MEMB     301      POPE     H4X      HAL2     0.900000E-01   1.00800           0
     35209 MEMB     301      POPE     H4Y      HAL2     0.900000E-01   1.00800           0
     35210 MEMB     301      POPE     C35      CTL2    -0.180000       12.0110           0
     35211 MEMB     301      POPE     H5X      HAL2     0.900000E-01   1.00800           0
     35212 MEMB     301      POPE     H5Y      HAL2     0.900000E-01   1.00800           0
     35213 MEMB     301      POPE     C36      CTL2    -0.180000       12.0110           0
     35214 MEMB     301      POPE     H6X      HAL2     0.900000E-01   1.00800           0
     35215 MEMB     301      POPE     H6Y      HAL2     0.900000E-01   1.00800           0
     35216 MEMB     301      POPE     C37      CTL2    -0.180000       12.0110           0
     35217 MEMB     301      POPE     H7X      HAL2     0.900000E-01   1.00800           0
     35218 MEMB     301      POPE     H7Y      HAL2     0.900000E-01   1.00800           0
     35219 MEMB     301      POPE     C38      CTL2    -0.180000       12.0110           0
     35220 MEMB     301      POPE     H8X      HAL2     0.900000E-01   1.00800           0
     35221 MEMB     301      POPE     H8Y      HAL2     0.900000E-01   1.00800           0
     35222 MEMB     301      POPE     C39      CTL2    -0.180000       12.0110           0
     35223 MEMB     301      POPE     H9X      HAL2     0.900000E-01   1.00800           0
     35224 MEMB     301      POPE     H9Y      HAL2     0.900000E-01   1.00800           0
     35225 MEMB     301      POPE     C310     CTL2    -0.180000       12.0110           0
     35226 MEMB     301      POPE     H10X     HAL2     0.900000E-01   1.00800           0
     35227 MEMB     301      POPE     H10Y     HAL2     0.900000E-01   1.00800           0
     35228 MEMB     301      POPE     C311     CTL2    -0.180000       12.0110           0
     35229 MEMB     301      POPE     H11X     HAL2     0.900000E-01   1.00800           0
     35230 MEMB     301      POPE     H11Y     HAL2     0.900000E-01   1.00800           0
     35231 MEMB     301      POPE     C312     CTL2    -0.180000       12.0110           0
     35232 MEMB     301      POPE     H12X     HAL2     0.900000E-01   1.00800           0
     35233 MEMB     301      POPE     H12Y     HAL2     0.900000E-01   1.00800           0
     35234 MEMB     301      POPE     C313     CTL2    -0.180000       12.0110           0
     35235 MEMB     301      POPE     H13X     HAL2     0.900000E-01   1.00800           0
     35236 MEMB     301      POPE     H13Y     HAL2     0.900000E-01   1.00800           0
     35237 MEMB     301      POPE     C314     CTL2    -0.180000       12.0110           0
     35238 MEMB     301      POPE     H14X     HAL2     0.900000E-01   1.00800           0
     35239 MEMB     301      POPE     H14Y     HAL2     0.900000E-01   1.00800           0
     35240 MEMB     301      POPE     C315     CTL2    -0.180000       12.0110           0
     35241 MEMB     301      POPE     H15X     HAL2     0.900000E-01   1.00800           0
     35242 MEMB     301      POPE     H15Y     HAL2     0.900000E-01   1.00800           0
     35243 MEMB     301      POPE     C316     CTL3    -0.270000       12.0110           0
     35244 MEMB     301      POPE     H16X     HAL3     0.900000E-01   1.00800           0
     35245 MEMB     301      POPE     H16Y     HAL3     0.900000E-01   1.00800           0
     35246 MEMB     301      POPE     H16Z     HAL3     0.900000E-01   1.00800           0
     35247 MEMB     302      POPE     N        NH3L    -0.300000       14.0070           0
     35248 MEMB     302      POPE     HN1      HCL      0.330000       1.00800           0
     35249 MEMB     302      POPE     HN2      HCL      0.330000       1.00800           0
     35250 MEMB     302      POPE     HN3      HCL      0.330000       1.00800           0
     35251 MEMB     302      POPE     C12      CTL2     0.130000       12.0110           0
     35252 MEMB     302      POPE     H12A     HAL2     0.900000E-01   1.00800           0
     35253 MEMB     302      POPE     H12B     HAL2     0.900000E-01   1.00800           0
     35254 MEMB     302      POPE     C11      CTL2    -0.800000E-01   12.0110           0
     35255 MEMB     302      POPE     H11A     HAL2     0.900000E-01   1.00800           0
     35256 MEMB     302      POPE     H11B     HAL2     0.900000E-01   1.00800           0
     35257 MEMB     302      POPE     P        PL        1.50000       30.9740           0
     35258 MEMB     302      POPE     O13      O2L     -0.780000       15.9994           0
     35259 MEMB     302      POPE     O14      O2L     -0.780000       15.9994           0
     35260 MEMB     302      POPE     O11      OSLP    -0.570000       15.9994           0
     35261 MEMB     302      POPE     O12      OSLP    -0.570000       15.9994           0
     35262 MEMB     302      POPE     C1       CTL2    -0.800000E-01   12.0110           0
     35263 MEMB     302      POPE     HA       HAL2     0.900000E-01   1.00800           0
     35264 MEMB     302      POPE     HB       HAL2     0.900000E-01   1.00800           0
     35265 MEMB     302      POPE     C2       CTL1     0.170000       12.0110           0
     35266 MEMB     302      POPE     HS       HAL1     0.900000E-01   1.00800           0
     35267 MEMB     302      POPE     O21      OSL     -0.490000       15.9994           0
     35268 MEMB     302      POPE     C21      CL       0.900000       12.0110           0
     35269 MEMB     302      POPE     O22      OBL     -0.630000       15.9994           0
     35270 MEMB     302      POPE     C22      CTL2    -0.220000       12.0110           0
     35271 MEMB     302      POPE     H2R      HAL2     0.900000E-01   1.00800           0
     35272 MEMB     302      POPE     H2S      HAL2     0.900000E-01   1.00800           0
     35273 MEMB     302      POPE     C3       CTL2     0.800000E-01   12.0110           0
     35274 MEMB     302      POPE     HX       HAL2     0.900000E-01   1.00800           0
     35275 MEMB     302      POPE     HY       HAL2     0.900000E-01   1.00800           0
     35276 MEMB     302      POPE     O31      OSL     -0.490000       15.9994           0
     35277 MEMB     302      POPE     C31      CL       0.900000       12.0110           0
     35278 MEMB     302      POPE     O32      OBL     -0.630000       15.9994           0
     35279 MEMB     302      POPE     C32      CTL2    -0.220000       12.0110           0
     35280 MEMB     302      POPE     H2X      HAL2     0.900000E-01   1.00800           0
     35281 MEMB     302      POPE     H2Y      HAL2     0.900000E-01   1.00800           0
     35282 MEMB     302      POPE     C23      CTL2    -0.180000       12.0110           0
     35283 MEMB     302      POPE     H3R      HAL2     0.900000E-01   1.00800           0
     35284 MEMB     302      POPE     H3S      HAL2     0.900000E-01   1.00800           0
     35285 MEMB     302      POPE     C24      CTL2    -0.180000       12.0110           0
     35286 MEMB     302      POPE     H4R      HAL2     0.900000E-01   1.00800           0
     35287 MEMB     302      POPE     H4S      HAL2     0.900000E-01   1.00800           0
     35288 MEMB     302      POPE     C25      CTL2    -0.180000       12.0110           0
     35289 MEMB     302      POPE     H5R      HAL2     0.900000E-01   1.00800           0
     35290 MEMB     302      POPE     H5S      HAL2     0.900000E-01   1.00800           0
     35291 MEMB     302      POPE     C26      CTL2    -0.180000       12.0110           0
     35292 MEMB     302      POPE     H6R      HAL2     0.900000E-01   1.00800           0
     35293 MEMB     302      POPE     H6S      HAL2     0.900000E-01   1.00800           0
     35294 MEMB     302      POPE     C27      CTL2    -0.180000       12.0110           0
     35295 MEMB     302      POPE     H7R      HAL2     0.900000E-01   1.00800           0
     35296 MEMB     302      POPE     H7S      HAL2     0.900000E-01   1.00800           0
     35297 MEMB     302      POPE     C28      CTL2    -0.180000       12.0110           0
     35298 MEMB     302      POPE     H8R      HAL2     0.900000E-01   1.00800           0
     35299 MEMB     302      POPE     H8S      HAL2     0.900000E-01   1.00800           0
     35300 MEMB     302      POPE     C29      CEL1    -0.150000       12.0110           0
     35301 MEMB     302      POPE     H91      HEL1     0.150000       1.00800           0
     35302 MEMB     302      POPE     C210     CEL1    -0.150000       12.0110           0
     35303 MEMB     302      POPE     H101     HEL1     0.150000       1.00800           0
     35304 MEMB     302      POPE     C211     CTL2    -0.180000       12.0110           0
     35305 MEMB     302      POPE     H11R     HAL2     0.900000E-01   1.00800           0
     35306 MEMB     302      POPE     H11S     HAL2     0.900000E-01   1.00800           0
     35307 MEMB     302      POPE     C212     CTL2    -0.180000       12.0110           0
     35308 MEMB     302      POPE     H12R     HAL2     0.900000E-01   1.00800           0
     35309 MEMB     302      POPE     H12S     HAL2     0.900000E-01   1.00800           0
     35310 MEMB     302      POPE     C213     CTL2    -0.180000       12.0110           0
     35311 MEMB     302      POPE     H13R     HAL2     0.900000E-01   1.00800           0
     35312 MEMB     302      POPE     H13S     HAL2     0.900000E-01   1.00800           0
     35313 MEMB     302      POPE     C214     CTL2    -0.180000       12.0110           0
     35314 MEMB     302      POPE     H14R     HAL2     0.900000E-01   1.00800           0
     35315 MEMB     302      POPE     H14S     HAL2     0.900000E-01   1.00800           0
     35316 MEMB     302      POPE     C215     CTL2    -0.180000       12.0110           0
     35317 MEMB     302      POPE     H15R     HAL2     0.900000E-01   1.00800           0
     35318 MEMB     302      POPE     H15S     HAL2     0.900000E-01   1.00800           0
     35319 MEMB     302      POPE     C216     CTL2    -0.180000       12.0110           0
     35320 MEMB     302      POPE     H16R     HAL2     0.900000E-01   1.00800           0
     35321 MEMB     302      POPE     H16S     HAL2     0.900000E-01   1.00800           0
     35322 MEMB     302      POPE     C217     CTL2    -0.180000       12.0110           0
     35323 MEMB     302      POPE     H17R     HAL2     0.900000E-01   1.00800           0
     35324 MEMB     302      POPE     H17S     HAL2     0.900000E-01   1.00800           0
     35325 MEMB     302      POPE     C218     CTL3    -0.270000       12.0110           0
     35326 MEMB     302      POPE     H18R     HAL3     0.900000E-01   1.00800           0
     35327 MEMB     302      POPE     H18S     HAL3     0.900000E-01   1.00800           0
     35328 MEMB     302      POPE     H18T     HAL3     0.900000E-01   1.00800           0
     35329 MEMB     302      POPE     C33      CTL2    -0.180000       12.0110           0
     35330 MEMB     302      POPE     H3X      HAL2     0.900000E-01   1.00800           0
     35331 MEMB     302      POPE     H3Y      HAL2     0.900000E-01   1.00800           0
     35332 MEMB     302      POPE     C34      CTL2    -0.180000       12.0110           0
     35333 MEMB     302      POPE     H4X      HAL2     0.900000E-01   1.00800           0
     35334 MEMB     302      POPE     H4Y      HAL2     0.900000E-01   1.00800           0
     35335 MEMB     302      POPE     C35      CTL2    -0.180000       12.0110           0
     35336 MEMB     302      POPE     H5X      HAL2     0.900000E-01   1.00800           0
     35337 MEMB     302      POPE     H5Y      HAL2     0.900000E-01   1.00800           0
     35338 MEMB     302      POPE     C36      CTL2    -0.180000       12.0110           0
     35339 MEMB     302      POPE     H6X      HAL2     0.900000E-01   1.00800           0
     35340 MEMB     302      POPE     H6Y      HAL2     0.900000E-01   1.00800           0
     35341 MEMB     302      POPE     C37      CTL2    -0.180000       12.0110           0
     35342 MEMB     302      POPE     H7X      HAL2     0.900000E-01   1.00800           0
     35343 MEMB     302      POPE     H7Y      HAL2     0.900000E-01   1.00800           0
     35344 MEMB     302      POPE     C38      CTL2    -0.180000       12.0110           0
     35345 MEMB     302      POPE     H8X      HAL2     0.900000E-01   1.00800           0
     35346 MEMB     302      POPE     H8Y      HAL2     0.900000E-01   1.00800           0
     35347 MEMB     302      POPE     C39      CTL2    -0.180000       12.0110           0
     35348 MEMB     302      POPE     H9X      HAL2     0.900000E-01   1.00800           0
     35349 MEMB     302      POPE     H9Y      HAL2     0.900000E-01   1.00800           0
     35350 MEMB     302      POPE     C310     CTL2    -0.180000       12.0110           0
     35351 MEMB     302      POPE     H10X     HAL2     0.900000E-01   1.00800           0
     35352 MEMB     302      POPE     H10Y     HAL2     0.900000E-01   1.00800           0
     35353 MEMB     302      POPE     C311     CTL2    -0.180000       12.0110           0
     35354 MEMB     302      POPE     H11X     HAL2     0.900000E-01   1.00800           0
     35355 MEMB     302      POPE     H11Y     HAL2     0.900000E-01   1.00800           0
     35356 MEMB     302      POPE     C312     CTL2    -0.180000       12.0110           0
     35357 MEMB     302      POPE     H12X     HAL2     0.900000E-01   1.00800           0
     35358 MEMB     302      POPE     H12Y     HAL2     0.900000E-01   1.00800           0
     35359 MEMB     302      POPE     C313     CTL2    -0.180000       12.0110           0
     35360 MEMB     302      POPE     H13X     HAL2     0.900000E-01   1.00800           0
     35361 MEMB     302      POPE     H13Y     HAL2     0.900000E-01   1.00800           0
     35362 MEMB     302      POPE     C314     CTL2    -0.180000       12.0110           0
     35363 MEMB     302      POPE     H14X     HAL2     0.900000E-01   1.00800           0
     35364 MEMB     302      POPE     H14Y     HAL2     0.900000E-01   1.00800           0
     35365 MEMB     302      POPE     C315     CTL2    -0.180000       12.0110           0
     35366 MEMB     302      POPE     H15X     HAL2     0.900000E-01   1.00800           0
     35367 MEMB     302      POPE     H15Y     HAL2     0.900000E-01   1.00800           0
     35368 MEMB     302      POPE     C316     CTL3    -0.270000       12.0110           0
     35369 MEMB     302      POPE     H16X     HAL3     0.900000E-01   1.00800           0
     35370 MEMB     302      POPE     H16Y     HAL3     0.900000E-01   1.00800           0
     35371 MEMB     302      POPE     H16Z     HAL3     0.900000E-01   1.00800           0
     35372 MEMB     303      POPE     N        NH3L    -0.300000       14.0070           0
     35373 MEMB     303      POPE     HN1      HCL      0.330000       1.00800           0
     35374 MEMB     303      POPE     HN2      HCL      0.330000       1.00800           0
     35375 MEMB     303      POPE     HN3      HCL      0.330000       1.00800           0
     35376 MEMB     303      POPE     C12      CTL2     0.130000       12.0110           0
     35377 MEMB     303      POPE     H12A     HAL2     0.900000E-01   1.00800           0
     35378 MEMB     303      POPE     H12B     HAL2     0.900000E-01   1.00800           0
     35379 MEMB     303      POPE     C11      CTL2    -0.800000E-01   12.0110           0
     35380 MEMB     303      POPE     H11A     HAL2     0.900000E-01   1.00800           0
     35381 MEMB     303      POPE     H11B     HAL2     0.900000E-01   1.00800           0
     35382 MEMB     303      POPE     P        PL        1.50000       30.9740           0
     35383 MEMB     303      POPE     O13      O2L     -0.780000       15.9994           0
     35384 MEMB     303      POPE     O14      O2L     -0.780000       15.9994           0
     35385 MEMB     303      POPE     O11      OSLP    -0.570000       15.9994           0
     35386 MEMB     303      POPE     O12      OSLP    -0.570000       15.9994           0
     35387 MEMB     303      POPE     C1       CTL2    -0.800000E-01   12.0110           0
     35388 MEMB     303      POPE     HA       HAL2     0.900000E-01   1.00800           0
     35389 MEMB     303      POPE     HB       HAL2     0.900000E-01   1.00800           0
     35390 MEMB     303      POPE     C2       CTL1     0.170000       12.0110           0
     35391 MEMB     303      POPE     HS       HAL1     0.900000E-01   1.00800           0
     35392 MEMB     303      POPE     O21      OSL     -0.490000       15.9994           0
     35393 MEMB     303      POPE     C21      CL       0.900000       12.0110           0
     35394 MEMB     303      POPE     O22      OBL     -0.630000       15.9994           0
     35395 MEMB     303      POPE     C22      CTL2    -0.220000       12.0110           0
     35396 MEMB     303      POPE     H2R      HAL2     0.900000E-01   1.00800           0
     35397 MEMB     303      POPE     H2S      HAL2     0.900000E-01   1.00800           0
     35398 MEMB     303      POPE     C3       CTL2     0.800000E-01   12.0110           0
     35399 MEMB     303      POPE     HX       HAL2     0.900000E-01   1.00800           0
     35400 MEMB     303      POPE     HY       HAL2     0.900000E-01   1.00800           0
     35401 MEMB     303      POPE     O31      OSL     -0.490000       15.9994           0
     35402 MEMB     303      POPE     C31      CL       0.900000       12.0110           0
     35403 MEMB     303      POPE     O32      OBL     -0.630000       15.9994           0
     35404 MEMB     303      POPE     C32      CTL2    -0.220000       12.0110           0
     35405 MEMB     303      POPE     H2X      HAL2     0.900000E-01   1.00800           0
     35406 MEMB     303      POPE     H2Y      HAL2     0.900000E-01   1.00800           0
     35407 MEMB     303      POPE     C23      CTL2    -0.180000       12.0110           0
     35408 MEMB     303      POPE     H3R      HAL2     0.900000E-01   1.00800           0
     35409 MEMB     303      POPE     H3S      HAL2     0.900000E-01   1.00800           0
     35410 MEMB     303      POPE     C24      CTL2    -0.180000       12.0110           0
     35411 MEMB     303      POPE     H4R      HAL2     0.900000E-01   1.00800           0
     35412 MEMB     303      POPE     H4S      HAL2     0.900000E-01   1.00800           0
     35413 MEMB     303      POPE     C25      CTL2    -0.180000       12.0110           0
     35414 MEMB     303      POPE     H5R      HAL2     0.900000E-01   1.00800           0
     35415 MEMB     303      POPE     H5S      HAL2     0.900000E-01   1.00800           0
     35416 MEMB     303      POPE     C26      CTL2    -0.180000       12.0110           0
     35417 MEMB     303      POPE     H6R      HAL2     0.900000E-01   1.00800           0
     35418 MEMB     303      POPE     H6S      HAL2     0.900000E-01   1.00800           0
     35419 MEMB     303      POPE     C27      CTL2    -0.180000       12.0110           0
     35420 MEMB     303      POPE     H7R      HAL2     0.900000E-01   1.00800           0
     35421 MEMB     303      POPE     H7S      HAL2     0.900000E-01   1.00800           0
     35422 MEMB     303      POPE     C28      CTL2    -0.180000       12.0110           0
     35423 MEMB     303      POPE     H8R      HAL2     0.900000E-01   1.00800           0
     35424 MEMB     303      POPE     H8S      HAL2     0.900000E-01   1.00800           0
     35425 MEMB     303      POPE     C29      CEL1    -0.150000       12.0110           0
     35426 MEMB     303      POPE     H91      HEL1     0.150000       1.00800           0
     35427 MEMB     303      POPE     C210     CEL1    -0.150000       12.0110           0
     35428 MEMB     303      POPE     H101     HEL1     0.150000       1.00800           0
     35429 MEMB     303      POPE     C211     CTL2    -0.180000       12.0110           0
     35430 MEMB     303      POPE     H11R     HAL2     0.900000E-01   1.00800           0
     35431 MEMB     303      POPE     H11S     HAL2     0.900000E-01   1.00800           0
     35432 MEMB     303      POPE     C212     CTL2    -0.180000       12.0110           0
     35433 MEMB     303      POPE     H12R     HAL2     0.900000E-01   1.00800           0
     35434 MEMB     303      POPE     H12S     HAL2     0.900000E-01   1.00800           0
     35435 MEMB     303      POPE     C213     CTL2    -0.180000       12.0110           0
     35436 MEMB     303      POPE     H13R     HAL2     0.900000E-01   1.00800           0
     35437 MEMB     303      POPE     H13S     HAL2     0.900000E-01   1.00800           0
     35438 MEMB     303      POPE     C214     CTL2    -0.180000       12.0110           0
     35439 MEMB     303      POPE     H14R     HAL2     0.900000E-01   1.00800           0
     35440 MEMB     303      POPE     H14S     HAL2     0.900000E-01   1.00800           0
     35441 MEMB     303      POPE     C215     CTL2    -0.180000       12.0110           0
     35442 MEMB     303      POPE     H15R     HAL2     0.900000E-01   1.00800           0
     35443 MEMB     303      POPE     H15S     HAL2     0.900000E-01   1.00800           0
     35444 MEMB     303      POPE     C216     CTL2    -0.180000       12.0110           0
     35445 MEMB     303      POPE     H16R     HAL2     0.900000E-01   1.00800           0
     35446 MEMB     303      POPE     H16S     HAL2     0.900000E-01   1.00800           0
     35447 MEMB     303      POPE     C217     CTL2    -0.180000       12.0110           0
     35448 MEMB     303      POPE     H17R     HAL2     0.900000E-01   1.00800           0
     35449 MEMB     303      POPE     H17S     HAL2     0.900000E-01   1.00800           0
     35450 MEMB     303      POPE     C218     CTL3    -0.270000       12.0110           0
     35451 MEMB     303      POPE     H18R     HAL3     0.900000E-01   1.00800           0
     35452 MEMB     303      POPE     H18S     HAL3     0.900000E-01   1.00800           0
     35453 MEMB     303      POPE     H18T     HAL3     0.900000E-01   1.00800           0
     35454 MEMB     303      POPE     C33      CTL2    -0.180000       12.0110           0
     35455 MEMB     303      POPE     H3X      HAL2     0.900000E-01   1.00800           0
     35456 MEMB     303      POPE     H3Y      HAL2     0.900000E-01   1.00800           0
     35457 MEMB     303      POPE     C34      CTL2    -0.180000       12.0110           0
     35458 MEMB     303      POPE     H4X      HAL2     0.900000E-01   1.00800           0
     35459 MEMB     303      POPE     H4Y      HAL2     0.900000E-01   1.00800           0
     35460 MEMB     303      POPE     C35      CTL2    -0.180000       12.0110           0
     35461 MEMB     303      POPE     H5X      HAL2     0.900000E-01   1.00800           0
     35462 MEMB     303      POPE     H5Y      HAL2     0.900000E-01   1.00800           0
     35463 MEMB     303      POPE     C36      CTL2    -0.180000       12.0110           0
     35464 MEMB     303      POPE     H6X      HAL2     0.900000E-01   1.00800           0
     35465 MEMB     303      POPE     H6Y      HAL2     0.900000E-01   1.00800           0
     35466 MEMB     303      POPE     C37      CTL2    -0.180000       12.0110           0
     35467 MEMB     303      POPE     H7X      HAL2     0.900000E-01   1.00800           0
     35468 MEMB     303      POPE     H7Y      HAL2     0.900000E-01   1.00800           0
     35469 MEMB     303      POPE     C38      CTL2    -0.180000       12.0110           0
     35470 MEMB     303      POPE     H8X      HAL2     0.900000E-01   1.00800           0
     35471 MEMB     303      POPE     H8Y      HAL2     0.900000E-01   1.00800           0
     35472 MEMB     303      POPE     C39      CTL2    -0.180000       12.0110           0
     35473 MEMB     303      POPE     H9X      HAL2     0.900000E-01   1.00800           0
     35474 MEMB     303      POPE     H9Y      HAL2     0.900000E-01   1.00800           0
     35475 MEMB     303      POPE     C310     CTL2    -0.180000       12.0110           0
     35476 MEMB     303      POPE     H10X     HAL2     0.900000E-01   1.00800           0
     35477 MEMB     303      POPE     H10Y     HAL2     0.900000E-01   1.00800           0
     35478 MEMB     303      POPE     C311     CTL2    -0.180000       12.0110           0
     35479 MEMB     303      POPE     H11X     HAL2     0.900000E-01   1.00800           0
     35480 MEMB     303      POPE     H11Y     HAL2     0.900000E-01   1.00800           0
     35481 MEMB     303      POPE     C312     CTL2    -0.180000       12.0110           0
     35482 MEMB     303      POPE     H12X     HAL2     0.900000E-01   1.00800           0
     35483 MEMB     303      POPE     H12Y     HAL2     0.900000E-01   1.00800           0
     35484 MEMB     303      POPE     C313     CTL2    -0.180000       12.0110           0
     35485 MEMB     303      POPE     H13X     HAL2     0.900000E-01   1.00800           0
     35486 MEMB     303      POPE     H13Y     HAL2     0.900000E-01   1.00800           0
     35487 MEMB     303      POPE     C314     CTL2    -0.180000       12.0110           0
     35488 MEMB     303      POPE     H14X     HAL2     0.900000E-01   1.00800           0
     35489 MEMB     303      POPE     H14Y     HAL2     0.900000E-01   1.00800           0
     35490 MEMB     303      POPE     C315     CTL2    -0.180000       12.0110           0
     35491 MEMB     303      POPE     H15X     HAL2     0.900000E-01   1.00800           0
     35492 MEMB     303      POPE     H15Y     HAL2     0.900000E-01   1.00800           0
     35493 MEMB     303      POPE     C316     CTL3    -0.270000       12.0110           0
     35494 MEMB     303      POPE     H16X     HAL3     0.900000E-01   1.00800           0
     35495 MEMB     303      POPE     H16Y     HAL3     0.900000E-01   1.00800           0
     35496 MEMB     303      POPE     H16Z     HAL3     0.900000E-01   1.00800           0
     35497 MEMB     304      POPC     N        NTL     -0.600000       14.0070           0
     35498 MEMB     304      POPC     C12      CTL2    -0.100000       12.0110           0
     35499 MEMB     304      POPC     H12A     HL       0.250000       1.00800           0
     35500 MEMB     304      POPC     H12B     HL       0.250000       1.00800           0
     35501 MEMB     304      POPC     C13      CTL5    -0.350000       12.0110           0
     35502 MEMB     304      POPC     H13A     HL       0.250000       1.00800           0
     35503 MEMB     304      POPC     H13B     HL       0.250000       1.00800           0
     35504 MEMB     304      POPC     H13C     HL       0.250000       1.00800           0
     35505 MEMB     304      POPC     C14      CTL5    -0.350000       12.0110           0
     35506 MEMB     304      POPC     H14A     HL       0.250000       1.00800           0
     35507 MEMB     304      POPC     H14B     HL       0.250000       1.00800           0
     35508 MEMB     304      POPC     H14C     HL       0.250000       1.00800           0
     35509 MEMB     304      POPC     C15      CTL5    -0.350000       12.0110           0
     35510 MEMB     304      POPC     H15A     HL       0.250000       1.00800           0
     35511 MEMB     304      POPC     H15B     HL       0.250000       1.00800           0
     35512 MEMB     304      POPC     H15C     HL       0.250000       1.00800           0
     35513 MEMB     304      POPC     C11      CTL2    -0.800000E-01   12.0110           0
     35514 MEMB     304      POPC     H11A     HAL2     0.900000E-01   1.00800           0
     35515 MEMB     304      POPC     H11B     HAL2     0.900000E-01   1.00800           0
     35516 MEMB     304      POPC     P        PL        1.50000       30.9740           0
     35517 MEMB     304      POPC     O13      O2L     -0.780000       15.9994           0
     35518 MEMB     304      POPC     O14      O2L     -0.780000       15.9994           0
     35519 MEMB     304      POPC     O12      OSLP    -0.570000       15.9994           0
     35520 MEMB     304      POPC     O11      OSLP    -0.570000       15.9994           0
     35521 MEMB     304      POPC     C1       CTL2    -0.800000E-01   12.0110           0
     35522 MEMB     304      POPC     HA       HAL2     0.900000E-01   1.00800           0
     35523 MEMB     304      POPC     HB       HAL2     0.900000E-01   1.00800           0
     35524 MEMB     304      POPC     C2       CTL1     0.170000       12.0110           0
     35525 MEMB     304      POPC     HS       HAL1     0.900000E-01   1.00800           0
     35526 MEMB     304      POPC     O21      OSL     -0.490000       15.9994           0
     35527 MEMB     304      POPC     C21      CL       0.900000       12.0110           0
     35528 MEMB     304      POPC     O22      OBL     -0.630000       15.9994           0
     35529 MEMB     304      POPC     C22      CTL2    -0.220000       12.0110           0
     35530 MEMB     304      POPC     H2R      HAL2     0.900000E-01   1.00800           0
     35531 MEMB     304      POPC     H2S      HAL2     0.900000E-01   1.00800           0
     35532 MEMB     304      POPC     C3       CTL2     0.800000E-01   12.0110           0
     35533 MEMB     304      POPC     HX       HAL2     0.900000E-01   1.00800           0
     35534 MEMB     304      POPC     HY       HAL2     0.900000E-01   1.00800           0
     35535 MEMB     304      POPC     O31      OSL     -0.490000       15.9994           0
     35536 MEMB     304      POPC     C31      CL       0.900000       12.0110           0
     35537 MEMB     304      POPC     O32      OBL     -0.630000       15.9994           0
     35538 MEMB     304      POPC     C32      CTL2    -0.220000       12.0110           0
     35539 MEMB     304      POPC     H2X      HAL2     0.900000E-01   1.00800           0
     35540 MEMB     304      POPC     H2Y      HAL2     0.900000E-01   1.00800           0
     35541 MEMB     304      POPC     C23      CTL2    -0.180000       12.0110           0
     35542 MEMB     304      POPC     H3R      HAL2     0.900000E-01   1.00800           0
     35543 MEMB     304      POPC     H3S      HAL2     0.900000E-01   1.00800           0
     35544 MEMB     304      POPC     C24      CTL2    -0.180000       12.0110           0
     35545 MEMB     304      POPC     H4R      HAL2     0.900000E-01   1.00800           0
     35546 MEMB     304      POPC     H4S      HAL2     0.900000E-01   1.00800           0
     35547 MEMB     304      POPC     C25      CTL2    -0.180000       12.0110           0
     35548 MEMB     304      POPC     H5R      HAL2     0.900000E-01   1.00800           0
     35549 MEMB     304      POPC     H5S      HAL2     0.900000E-01   1.00800           0
     35550 MEMB     304      POPC     C26      CTL2    -0.180000       12.0110           0
     35551 MEMB     304      POPC     H6R      HAL2     0.900000E-01   1.00800           0
     35552 MEMB     304      POPC     H6S      HAL2     0.900000E-01   1.00800           0
     35553 MEMB     304      POPC     C27      CTL2    -0.180000       12.0110           0
     35554 MEMB     304      POPC     H7R      HAL2     0.900000E-01   1.00800           0
     35555 MEMB     304      POPC     H7S      HAL2     0.900000E-01   1.00800           0
     35556 MEMB     304      POPC     C28      CTL2    -0.180000       12.0110           0
     35557 MEMB     304      POPC     H8R      HAL2     0.900000E-01   1.00800           0
     35558 MEMB     304      POPC     H8S      HAL2     0.900000E-01   1.00800           0
     35559 MEMB     304      POPC     C29      CEL1    -0.150000       12.0110           0
     35560 MEMB     304      POPC     H91      HEL1     0.150000       1.00800           0
     35561 MEMB     304      POPC     C210     CEL1    -0.150000       12.0110           0
     35562 MEMB     304      POPC     H101     HEL1     0.150000       1.00800           0
     35563 MEMB     304      POPC     C211     CTL2    -0.180000       12.0110           0
     35564 MEMB     304      POPC     H11R     HAL2     0.900000E-01   1.00800           0
     35565 MEMB     304      POPC     H11S     HAL2     0.900000E-01   1.00800           0
     35566 MEMB     304      POPC     C212     CTL2    -0.180000       12.0110           0
     35567 MEMB     304      POPC     H12R     HAL2     0.900000E-01   1.00800           0
     35568 MEMB     304      POPC     H12S     HAL2     0.900000E-01   1.00800           0
     35569 MEMB     304      POPC     C213     CTL2    -0.180000       12.0110           0
     35570 MEMB     304      POPC     H13R     HAL2     0.900000E-01   1.00800           0
     35571 MEMB     304      POPC     H13S     HAL2     0.900000E-01   1.00800           0
     35572 MEMB     304      POPC     C214     CTL2    -0.180000       12.0110           0
     35573 MEMB     304      POPC     H14R     HAL2     0.900000E-01   1.00800           0
     35574 MEMB     304      POPC     H14S     HAL2     0.900000E-01   1.00800           0
     35575 MEMB     304      POPC     C215     CTL2    -0.180000       12.0110           0
     35576 MEMB     304      POPC     H15R     HAL2     0.900000E-01   1.00800           0
     35577 MEMB     304      POPC     H15S     HAL2     0.900000E-01   1.00800           0
     35578 MEMB     304      POPC     C216     CTL2    -0.180000       12.0110           0
     35579 MEMB     304      POPC     H16R     HAL2     0.900000E-01   1.00800           0
     35580 MEMB     304      POPC     H16S     HAL2     0.900000E-01   1.00800           0
     35581 MEMB     304      POPC     C217     CTL2    -0.180000       12.0110           0
     35582 MEMB     304      POPC     H17R     HAL2     0.900000E-01   1.00800           0
     35583 MEMB     304      POPC     H17S     HAL2     0.900000E-01   1.00800           0
     35584 MEMB     304      POPC     C218     CTL3    -0.270000       12.0110           0
     35585 MEMB     304      POPC     H18R     HAL3     0.900000E-01   1.00800           0
     35586 MEMB     304      POPC     H18S     HAL3     0.900000E-01   1.00800           0
     35587 MEMB     304      POPC     H18T     HAL3     0.900000E-01   1.00800           0
     35588 MEMB     304      POPC     C33      CTL2    -0.180000       12.0110           0
     35589 MEMB     304      POPC     H3X      HAL2     0.900000E-01   1.00800           0
     35590 MEMB     304      POPC     H3Y      HAL2     0.900000E-01   1.00800           0
     35591 MEMB     304      POPC     C34      CTL2    -0.180000       12.0110           0
     35592 MEMB     304      POPC     H4X      HAL2     0.900000E-01   1.00800           0
     35593 MEMB     304      POPC     H4Y      HAL2     0.900000E-01   1.00800           0
     35594 MEMB     304      POPC     C35      CTL2    -0.180000       12.0110           0
     35595 MEMB     304      POPC     H5X      HAL2     0.900000E-01   1.00800           0
     35596 MEMB     304      POPC     H5Y      HAL2     0.900000E-01   1.00800           0
     35597 MEMB     304      POPC     C36      CTL2    -0.180000       12.0110           0
     35598 MEMB     304      POPC     H6X      HAL2     0.900000E-01   1.00800           0
     35599 MEMB     304      POPC     H6Y      HAL2     0.900000E-01   1.00800           0
     35600 MEMB     304      POPC     C37      CTL2    -0.180000       12.0110           0
     35601 MEMB     304      POPC     H7X      HAL2     0.900000E-01   1.00800           0
     35602 MEMB     304      POPC     H7Y      HAL2     0.900000E-01   1.00800           0
     35603 MEMB     304      POPC     C38      CTL2    -0.180000       12.0110           0
     35604 MEMB     304      POPC     H8X      HAL2     0.900000E-01   1.00800           0
     35605 MEMB     304      POPC     H8Y      HAL2     0.900000E-01   1.00800           0
     35606 MEMB     304      POPC     C39      CTL2    -0.180000       12.0110           0
     35607 MEMB     304      POPC     H9X      HAL2     0.900000E-01   1.00800           0
     35608 MEMB     304      POPC     H9Y      HAL2     0.900000E-01   1.00800           0
     35609 MEMB     304      POPC     C310     CTL2    -0.180000       12.0110           0
     35610 MEMB     304      POPC     H10X     HAL2     0.900000E-01   1.00800           0
     35611 MEMB     304      POPC     H10Y     HAL2     0.900000E-01   1.00800           0
     35612 MEMB     304      POPC     C311     CTL2    -0.180000       12.0110           0
     35613 MEMB     304      POPC     H11X     HAL2     0.900000E-01   1.00800           0
     35614 MEMB     304      POPC     H11Y     HAL2     0.900000E-01   1.00800           0
     35615 MEMB     304      POPC     C312     CTL2    -0.180000       12.0110           0
     35616 MEMB     304      POPC     H12X     HAL2     0.900000E-01   1.00800           0
     35617 MEMB     304      POPC     H12Y     HAL2     0.900000E-01   1.00800           0
     35618 MEMB     304      POPC     C313     CTL2    -0.180000       12.0110           0
     35619 MEMB     304      POPC     H13X     HAL2     0.900000E-01   1.00800           0
     35620 MEMB     304      POPC     H13Y     HAL2     0.900000E-01   1.00800           0
     35621 MEMB     304      POPC     C314     CTL2    -0.180000       12.0110           0
     35622 MEMB     304      POPC     H14X     HAL2     0.900000E-01   1.00800           0
     35623 MEMB     304      POPC     H14Y     HAL2     0.900000E-01   1.00800           0
     35624 MEMB     304      POPC     C315     CTL2    -0.180000       12.0110           0
     35625 MEMB     304      POPC     H15X     HAL2     0.900000E-01   1.00800           0
     35626 MEMB     304      POPC     H15Y     HAL2     0.900000E-01   1.00800           0
     35627 MEMB     304      POPC     C316     CTL3    -0.270000       12.0110           0
     35628 MEMB     304      POPC     H16X     HAL3     0.900000E-01   1.00800           0
     35629 MEMB     304      POPC     H16Y     HAL3     0.900000E-01   1.00800           0
     35630 MEMB     304      POPC     H16Z     HAL3     0.900000E-01   1.00800           0
     35631 MEMB     305      POPE     N        NH3L    -0.300000       14.0070           0
     35632 MEMB     305      POPE     HN1      HCL      0.330000       1.00800           0
     35633 MEMB     305      POPE     HN2      HCL      0.330000       1.00800           0
     35634 MEMB     305      POPE     HN3      HCL      0.330000       1.00800           0
     35635 MEMB     305      POPE     C12      CTL2     0.130000       12.0110           0
     35636 MEMB     305      POPE     H12A     HAL2     0.900000E-01   1.00800           0
     35637 MEMB     305      POPE     H12B     HAL2     0.900000E-01   1.00800           0
     35638 MEMB     305      POPE     C11      CTL2    -0.800000E-01   12.0110           0
     35639 MEMB     305      POPE     H11A     HAL2     0.900000E-01   1.00800           0
     35640 MEMB     305      POPE     H11B     HAL2     0.900000E-01   1.00800           0
     35641 MEMB     305      POPE     P        PL        1.50000       30.9740           0
     35642 MEMB     305      POPE     O13      O2L     -0.780000       15.9994           0
     35643 MEMB     305      POPE     O14      O2L     -0.780000       15.9994           0
     35644 MEMB     305      POPE     O11      OSLP    -0.570000       15.9994           0
     35645 MEMB     305      POPE     O12      OSLP    -0.570000       15.9994           0
     35646 MEMB     305      POPE     C1       CTL2    -0.800000E-01   12.0110           0
     35647 MEMB     305      POPE     HA       HAL2     0.900000E-01   1.00800           0
     35648 MEMB     305      POPE     HB       HAL2     0.900000E-01   1.00800           0
     35649 MEMB     305      POPE     C2       CTL1     0.170000       12.0110           0
     35650 MEMB     305      POPE     HS       HAL1     0.900000E-01   1.00800           0
     35651 MEMB     305      POPE     O21      OSL     -0.490000       15.9994           0
     35652 MEMB     305      POPE     C21      CL       0.900000       12.0110           0
     35653 MEMB     305      POPE     O22      OBL     -0.630000       15.9994           0
     35654 MEMB     305      POPE     C22      CTL2    -0.220000       12.0110           0
     35655 MEMB     305      POPE     H2R      HAL2     0.900000E-01   1.00800           0
     35656 MEMB     305      POPE     H2S      HAL2     0.900000E-01   1.00800           0
     35657 MEMB     305      POPE     C3       CTL2     0.800000E-01   12.0110           0
     35658 MEMB     305      POPE     HX       HAL2     0.900000E-01   1.00800           0
     35659 MEMB     305      POPE     HY       HAL2     0.900000E-01   1.00800           0
     35660 MEMB     305      POPE     O31      OSL     -0.490000       15.9994           0
     35661 MEMB     305      POPE     C31      CL       0.900000       12.0110           0
     35662 MEMB     305      POPE     O32      OBL     -0.630000       15.9994           0
     35663 MEMB     305      POPE     C32      CTL2    -0.220000       12.0110           0
     35664 MEMB     305      POPE     H2X      HAL2     0.900000E-01   1.00800           0
     35665 MEMB     305      POPE     H2Y      HAL2     0.900000E-01   1.00800           0
     35666 MEMB     305      POPE     C23      CTL2    -0.180000       12.0110           0
     35667 MEMB     305      POPE     H3R      HAL2     0.900000E-01   1.00800           0
     35668 MEMB     305      POPE     H3S      HAL2     0.900000E-01   1.00800           0
     35669 MEMB     305      POPE     C24      CTL2    -0.180000       12.0110           0
     35670 MEMB     305      POPE     H4R      HAL2     0.900000E-01   1.00800           0
     35671 MEMB     305      POPE     H4S      HAL2     0.900000E-01   1.00800           0
     35672 MEMB     305      POPE     C25      CTL2    -0.180000       12.0110           0
     35673 MEMB     305      POPE     H5R      HAL2     0.900000E-01   1.00800           0
     35674 MEMB     305      POPE     H5S      HAL2     0.900000E-01   1.00800           0
     35675 MEMB     305      POPE     C26      CTL2    -0.180000       12.0110           0
     35676 MEMB     305      POPE     H6R      HAL2     0.900000E-01   1.00800           0
     35677 MEMB     305      POPE     H6S      HAL2     0.900000E-01   1.00800           0
     35678 MEMB     305      POPE     C27      CTL2    -0.180000       12.0110           0
     35679 MEMB     305      POPE     H7R      HAL2     0.900000E-01   1.00800           0
     35680 MEMB     305      POPE     H7S      HAL2     0.900000E-01   1.00800           0
     35681 MEMB     305      POPE     C28      CTL2    -0.180000       12.0110           0
     35682 MEMB     305      POPE     H8R      HAL2     0.900000E-01   1.00800           0
     35683 MEMB     305      POPE     H8S      HAL2     0.900000E-01   1.00800           0
     35684 MEMB     305      POPE     C29      CEL1    -0.150000       12.0110           0
     35685 MEMB     305      POPE     H91      HEL1     0.150000       1.00800           0
     35686 MEMB     305      POPE     C210     CEL1    -0.150000       12.0110           0
     35687 MEMB     305      POPE     H101     HEL1     0.150000       1.00800           0
     35688 MEMB     305      POPE     C211     CTL2    -0.180000       12.0110           0
     35689 MEMB     305      POPE     H11R     HAL2     0.900000E-01   1.00800           0
     35690 MEMB     305      POPE     H11S     HAL2     0.900000E-01   1.00800           0
     35691 MEMB     305      POPE     C212     CTL2    -0.180000       12.0110           0
     35692 MEMB     305      POPE     H12R     HAL2     0.900000E-01   1.00800           0
     35693 MEMB     305      POPE     H12S     HAL2     0.900000E-01   1.00800           0
     35694 MEMB     305      POPE     C213     CTL2    -0.180000       12.0110           0
     35695 MEMB     305      POPE     H13R     HAL2     0.900000E-01   1.00800           0
     35696 MEMB     305      POPE     H13S     HAL2     0.900000E-01   1.00800           0
     35697 MEMB     305      POPE     C214     CTL2    -0.180000       12.0110           0
     35698 MEMB     305      POPE     H14R     HAL2     0.900000E-01   1.00800           0
     35699 MEMB     305      POPE     H14S     HAL2     0.900000E-01   1.00800           0
     35700 MEMB     305      POPE     C215     CTL2    -0.180000       12.0110           0
     35701 MEMB     305      POPE     H15R     HAL2     0.900000E-01   1.00800           0
     35702 MEMB     305      POPE     H15S     HAL2     0.900000E-01   1.00800           0
     35703 MEMB     305      POPE     C216     CTL2    -0.180000       12.0110           0
     35704 MEMB     305      POPE     H16R     HAL2     0.900000E-01   1.00800           0
     35705 MEMB     305      POPE     H16S     HAL2     0.900000E-01   1.00800           0
     35706 MEMB     305      POPE     C217     CTL2    -0.180000       12.0110           0
     35707 MEMB     305      POPE     H17R     HAL2     0.900000E-01   1.00800           0
     35708 MEMB     305      POPE     H17S     HAL2     0.900000E-01   1.00800           0
     35709 MEMB     305      POPE     C218     CTL3    -0.270000       12.0110           0
     35710 MEMB     305      POPE     H18R     HAL3     0.900000E-01   1.00800           0
     35711 MEMB     305      POPE     H18S     HAL3     0.900000E-01   1.00800           0
     35712 MEMB     305      POPE     H18T     HAL3     0.900000E-01   1.00800           0
     35713 MEMB     305      POPE     C33      CTL2    -0.180000       12.0110           0
     35714 MEMB     305      POPE     H3X      HAL2     0.900000E-01   1.00800           0
     35715 MEMB     305      POPE     H3Y      HAL2     0.900000E-01   1.00800           0
     35716 MEMB     305      POPE     C34      CTL2    -0.180000       12.0110           0
     35717 MEMB     305      POPE     H4X      HAL2     0.900000E-01   1.00800           0
     35718 MEMB     305      POPE     H4Y      HAL2     0.900000E-01   1.00800           0
     35719 MEMB     305      POPE     C35      CTL2    -0.180000       12.0110           0
     35720 MEMB     305      POPE     H5X      HAL2     0.900000E-01   1.00800           0
     35721 MEMB     305      POPE     H5Y      HAL2     0.900000E-01   1.00800           0
     35722 MEMB     305      POPE     C36      CTL2    -0.180000       12.0110           0
     35723 MEMB     305      POPE     H6X      HAL2     0.900000E-01   1.00800           0
     35724 MEMB     305      POPE     H6Y      HAL2     0.900000E-01   1.00800           0
     35725 MEMB     305      POPE     C37      CTL2    -0.180000       12.0110           0
     35726 MEMB     305      POPE     H7X      HAL2     0.900000E-01   1.00800           0
     35727 MEMB     305      POPE     H7Y      HAL2     0.900000E-01   1.00800           0
     35728 MEMB     305      POPE     C38      CTL2    -0.180000       12.0110           0
     35729 MEMB     305      POPE     H8X      HAL2     0.900000E-01   1.00800           0
     35730 MEMB     305      POPE     H8Y      HAL2     0.900000E-01   1.00800           0
     35731 MEMB     305      POPE     C39      CTL2    -0.180000       12.0110           0
     35732 MEMB     305      POPE     H9X      HAL2     0.900000E-01   1.00800           0
     35733 MEMB     305      POPE     H9Y      HAL2     0.900000E-01   1.00800           0
     35734 MEMB     305      POPE     C310     CTL2    -0.180000       12.0110           0
     35735 MEMB     305      POPE     H10X     HAL2     0.900000E-01   1.00800           0
     35736 MEMB     305      POPE     H10Y     HAL2     0.900000E-01   1.00800           0
     35737 MEMB     305      POPE     C311     CTL2    -0.180000       12.0110           0
     35738 MEMB     305      POPE     H11X     HAL2     0.900000E-01   1.00800           0
     35739 MEMB     305      POPE     H11Y     HAL2     0.900000E-01   1.00800           0
     35740 MEMB     305      POPE     C312     CTL2    -0.180000       12.0110           0
     35741 MEMB     305      POPE     H12X     HAL2     0.900000E-01   1.00800           0
     35742 MEMB     305      POPE     H12Y     HAL2     0.900000E-01   1.00800           0
     35743 MEMB     305      POPE     C313     CTL2    -0.180000       12.0110           0
     35744 MEMB     305      POPE     H13X     HAL2     0.900000E-01   1.00800           0
     35745 MEMB     305      POPE     H13Y     HAL2     0.900000E-01   1.00800           0
     35746 MEMB     305      POPE     C314     CTL2    -0.180000       12.0110           0
     35747 MEMB     305      POPE     H14X     HAL2     0.900000E-01   1.00800           0
     35748 MEMB     305      POPE     H14Y     HAL2     0.900000E-01   1.00800           0
     35749 MEMB     305      POPE     C315     CTL2    -0.180000       12.0110           0
     35750 MEMB     305      POPE     H15X     HAL2     0.900000E-01   1.00800           0
     35751 MEMB     305      POPE     H15Y     HAL2     0.900000E-01   1.00800           0
     35752 MEMB     305      POPE     C316     CTL3    -0.270000       12.0110           0
     35753 MEMB     305      POPE     H16X     HAL3     0.900000E-01   1.00800           0
     35754 MEMB     305      POPE     H16Y     HAL3     0.900000E-01   1.00800           0
     35755 MEMB     305      POPE     H16Z     HAL3     0.900000E-01   1.00800           0
     35756 MEMB     306      POPC     N        NTL     -0.600000       14.0070           0
     35757 MEMB     306      POPC     C12      CTL2    -0.100000       12.0110           0
     35758 MEMB     306      POPC     H12A     HL       0.250000       1.00800           0
     35759 MEMB     306      POPC     H12B     HL       0.250000       1.00800           0
     35760 MEMB     306      POPC     C13      CTL5    -0.350000       12.0110           0
     35761 MEMB     306      POPC     H13A     HL       0.250000       1.00800           0
     35762 MEMB     306      POPC     H13B     HL       0.250000       1.00800           0
     35763 MEMB     306      POPC     H13C     HL       0.250000       1.00800           0
     35764 MEMB     306      POPC     C14      CTL5    -0.350000       12.0110           0
     35765 MEMB     306      POPC     H14A     HL       0.250000       1.00800           0
     35766 MEMB     306      POPC     H14B     HL       0.250000       1.00800           0
     35767 MEMB     306      POPC     H14C     HL       0.250000       1.00800           0
     35768 MEMB     306      POPC     C15      CTL5    -0.350000       12.0110           0
     35769 MEMB     306      POPC     H15A     HL       0.250000       1.00800           0
     35770 MEMB     306      POPC     H15B     HL       0.250000       1.00800           0
     35771 MEMB     306      POPC     H15C     HL       0.250000       1.00800           0
     35772 MEMB     306      POPC     C11      CTL2    -0.800000E-01   12.0110           0
     35773 MEMB     306      POPC     H11A     HAL2     0.900000E-01   1.00800           0
     35774 MEMB     306      POPC     H11B     HAL2     0.900000E-01   1.00800           0
     35775 MEMB     306      POPC     P        PL        1.50000       30.9740           0
     35776 MEMB     306      POPC     O13      O2L     -0.780000       15.9994           0
     35777 MEMB     306      POPC     O14      O2L     -0.780000       15.9994           0
     35778 MEMB     306      POPC     O12      OSLP    -0.570000       15.9994           0
     35779 MEMB     306      POPC     O11      OSLP    -0.570000       15.9994           0
     35780 MEMB     306      POPC     C1       CTL2    -0.800000E-01   12.0110           0
     35781 MEMB     306      POPC     HA       HAL2     0.900000E-01   1.00800           0
     35782 MEMB     306      POPC     HB       HAL2     0.900000E-01   1.00800           0
     35783 MEMB     306      POPC     C2       CTL1     0.170000       12.0110           0
     35784 MEMB     306      POPC     HS       HAL1     0.900000E-01   1.00800           0
     35785 MEMB     306      POPC     O21      OSL     -0.490000       15.9994           0
     35786 MEMB     306      POPC     C21      CL       0.900000       12.0110           0
     35787 MEMB     306      POPC     O22      OBL     -0.630000       15.9994           0
     35788 MEMB     306      POPC     C22      CTL2    -0.220000       12.0110           0
     35789 MEMB     306      POPC     H2R      HAL2     0.900000E-01   1.00800           0
     35790 MEMB     306      POPC     H2S      HAL2     0.900000E-01   1.00800           0
     35791 MEMB     306      POPC     C3       CTL2     0.800000E-01   12.0110           0
     35792 MEMB     306      POPC     HX       HAL2     0.900000E-01   1.00800           0
     35793 MEMB     306      POPC     HY       HAL2     0.900000E-01   1.00800           0
     35794 MEMB     306      POPC     O31      OSL     -0.490000       15.9994           0
     35795 MEMB     306      POPC     C31      CL       0.900000       12.0110           0
     35796 MEMB     306      POPC     O32      OBL     -0.630000       15.9994           0
     35797 MEMB     306      POPC     C32      CTL2    -0.220000       12.0110           0
     35798 MEMB     306      POPC     H2X      HAL2     0.900000E-01   1.00800           0
     35799 MEMB     306      POPC     H2Y      HAL2     0.900000E-01   1.00800           0
     35800 MEMB     306      POPC     C23      CTL2    -0.180000       12.0110           0
     35801 MEMB     306      POPC     H3R      HAL2     0.900000E-01   1.00800           0
     35802 MEMB     306      POPC     H3S      HAL2     0.900000E-01   1.00800           0
     35803 MEMB     306      POPC     C24      CTL2    -0.180000       12.0110           0
     35804 MEMB     306      POPC     H4R      HAL2     0.900000E-01   1.00800           0
     35805 MEMB     306      POPC     H4S      HAL2     0.900000E-01   1.00800           0
     35806 MEMB     306      POPC     C25      CTL2    -0.180000       12.0110           0
     35807 MEMB     306      POPC     H5R      HAL2     0.900000E-01   1.00800           0
     35808 MEMB     306      POPC     H5S      HAL2     0.900000E-01   1.00800           0
     35809 MEMB     306      POPC     C26      CTL2    -0.180000       12.0110           0
     35810 MEMB     306      POPC     H6R      HAL2     0.900000E-01   1.00800           0
     35811 MEMB     306      POPC     H6S      HAL2     0.900000E-01   1.00800           0
     35812 MEMB     306      POPC     C27      CTL2    -0.180000       12.0110           0
     35813 MEMB     306      POPC     H7R      HAL2     0.900000E-01   1.00800           0
     35814 MEMB     306      POPC     H7S      HAL2     0.900000E-01   1.00800           0
     35815 MEMB     306      POPC     C28      CTL2    -0.180000       12.0110           0
     35816 MEMB     306      POPC     H8R      HAL2     0.900000E-01   1.00800           0
     35817 MEMB     306      POPC     H8S      HAL2     0.900000E-01   1.00800           0
     35818 MEMB     306      POPC     C29      CEL1    -0.150000       12.0110           0
     35819 MEMB     306      POPC     H91      HEL1     0.150000       1.00800           0
     35820 MEMB     306      POPC     C210     CEL1    -0.150000       12.0110           0
     35821 MEMB     306      POPC     H101     HEL1     0.150000       1.00800           0
     35822 MEMB     306      POPC     C211     CTL2    -0.180000       12.0110           0
     35823 MEMB     306      POPC     H11R     HAL2     0.900000E-01   1.00800           0
     35824 MEMB     306      POPC     H11S     HAL2     0.900000E-01   1.00800           0
     35825 MEMB     306      POPC     C212     CTL2    -0.180000       12.0110           0
     35826 MEMB     306      POPC     H12R     HAL2     0.900000E-01   1.00800           0
     35827 MEMB     306      POPC     H12S     HAL2     0.900000E-01   1.00800           0
     35828 MEMB     306      POPC     C213     CTL2    -0.180000       12.0110           0
     35829 MEMB     306      POPC     H13R     HAL2     0.900000E-01   1.00800           0
     35830 MEMB     306      POPC     H13S     HAL2     0.900000E-01   1.00800           0
     35831 MEMB     306      POPC     C214     CTL2    -0.180000       12.0110           0
     35832 MEMB     306      POPC     H14R     HAL2     0.900000E-01   1.00800           0
     35833 MEMB     306      POPC     H14S     HAL2     0.900000E-01   1.00800           0
     35834 MEMB     306      POPC     C215     CTL2    -0.180000       12.0110           0
     35835 MEMB     306      POPC     H15R     HAL2     0.900000E-01   1.00800           0
     35836 MEMB     306      POPC     H15S     HAL2     0.900000E-01   1.00800           0
     35837 MEMB     306      POPC     C216     CTL2    -0.180000       12.0110           0
     35838 MEMB     306      POPC     H16R     HAL2     0.900000E-01   1.00800           0
     35839 MEMB     306      POPC     H16S     HAL2     0.900000E-01   1.00800           0
     35840 MEMB     306      POPC     C217     CTL2    -0.180000       12.0110           0
     35841 MEMB     306      POPC     H17R     HAL2     0.900000E-01   1.00800           0
     35842 MEMB     306      POPC     H17S     HAL2     0.900000E-01   1.00800           0
     35843 MEMB     306      POPC     C218     CTL3    -0.270000       12.0110           0
     35844 MEMB     306      POPC     H18R     HAL3     0.900000E-01   1.00800           0
     35845 MEMB     306      POPC     H18S     HAL3     0.900000E-01   1.00800           0
     35846 MEMB     306      POPC     H18T     HAL3     0.900000E-01   1.00800           0
     35847 MEMB     306      POPC     C33      CTL2    -0.180000       12.0110           0
     35848 MEMB     306      POPC     H3X      HAL2     0.900000E-01   1.00800           0
     35849 MEMB     306      POPC     H3Y      HAL2     0.900000E-01   1.00800           0
     35850 MEMB     306      POPC     C34      CTL2    -0.180000       12.0110           0
     35851 MEMB     306      POPC     H4X      HAL2     0.900000E-01   1.00800           0
     35852 MEMB     306      POPC     H4Y      HAL2     0.900000E-01   1.00800           0
     35853 MEMB     306      POPC     C35      CTL2    -0.180000       12.0110           0
     35854 MEMB     306      POPC     H5X      HAL2     0.900000E-01   1.00800           0
     35855 MEMB     306      POPC     H5Y      HAL2     0.900000E-01   1.00800           0
     35856 MEMB     306      POPC     C36      CTL2    -0.180000       12.0110           0
     35857 MEMB     306      POPC     H6X      HAL2     0.900000E-01   1.00800           0
     35858 MEMB     306      POPC     H6Y      HAL2     0.900000E-01   1.00800           0
     35859 MEMB     306      POPC     C37      CTL2    -0.180000       12.0110           0
     35860 MEMB     306      POPC     H7X      HAL2     0.900000E-01   1.00800           0
     35861 MEMB     306      POPC     H7Y      HAL2     0.900000E-01   1.00800           0
     35862 MEMB     306      POPC     C38      CTL2    -0.180000       12.0110           0
     35863 MEMB     306      POPC     H8X      HAL2     0.900000E-01   1.00800           0
     35864 MEMB     306      POPC     H8Y      HAL2     0.900000E-01   1.00800           0
     35865 MEMB     306      POPC     C39      CTL2    -0.180000       12.0110           0
     35866 MEMB     306      POPC     H9X      HAL2     0.900000E-01   1.00800           0
     35867 MEMB     306      POPC     H9Y      HAL2     0.900000E-01   1.00800           0
     35868 MEMB     306      POPC     C310     CTL2    -0.180000       12.0110           0
     35869 MEMB     306      POPC     H10X     HAL2     0.900000E-01   1.00800           0
     35870 MEMB     306      POPC     H10Y     HAL2     0.900000E-01   1.00800           0
     35871 MEMB     306      POPC     C311     CTL2    -0.180000       12.0110           0
     35872 MEMB     306      POPC     H11X     HAL2     0.900000E-01   1.00800           0
     35873 MEMB     306      POPC     H11Y     HAL2     0.900000E-01   1.00800           0
     35874 MEMB     306      POPC     C312     CTL2    -0.180000       12.0110           0
     35875 MEMB     306      POPC     H12X     HAL2     0.900000E-01   1.00800           0
     35876 MEMB     306      POPC     H12Y     HAL2     0.900000E-01   1.00800           0
     35877 MEMB     306      POPC     C313     CTL2    -0.180000       12.0110           0
     35878 MEMB     306      POPC     H13X     HAL2     0.900000E-01   1.00800           0
     35879 MEMB     306      POPC     H13Y     HAL2     0.900000E-01   1.00800           0
     35880 MEMB     306      POPC     C314     CTL2    -0.180000       12.0110           0
     35881 MEMB     306      POPC     H14X     HAL2     0.900000E-01   1.00800           0
     35882 MEMB     306      POPC     H14Y     HAL2     0.900000E-01   1.00800           0
     35883 MEMB     306      POPC     C315     CTL2    -0.180000       12.0110           0
     35884 MEMB     306      POPC     H15X     HAL2     0.900000E-01   1.00800           0
     35885 MEMB     306      POPC     H15Y     HAL2     0.900000E-01   1.00800           0
     35886 MEMB     306      POPC     C316     CTL3    -0.270000       12.0110           0
     35887 MEMB     306      POPC     H16X     HAL3     0.900000E-01   1.00800           0
     35888 MEMB     306      POPC     H16Y     HAL3     0.900000E-01   1.00800           0
     35889 MEMB     306      POPC     H16Z     HAL3     0.900000E-01   1.00800           0
     35890 MEMB     307      POPE     N        NH3L    -0.300000       14.0070           0
     35891 MEMB     307      POPE     HN1      HCL      0.330000       1.00800           0
     35892 MEMB     307      POPE     HN2      HCL      0.330000       1.00800           0
     35893 MEMB     307      POPE     HN3      HCL      0.330000       1.00800           0
     35894 MEMB     307      POPE     C12      CTL2     0.130000       12.0110           0
     35895 MEMB     307      POPE     H12A     HAL2     0.900000E-01   1.00800           0
     35896 MEMB     307      POPE     H12B     HAL2     0.900000E-01   1.00800           0
     35897 MEMB     307      POPE     C11      CTL2    -0.800000E-01   12.0110           0
     35898 MEMB     307      POPE     H11A     HAL2     0.900000E-01   1.00800           0
     35899 MEMB     307      POPE     H11B     HAL2     0.900000E-01   1.00800           0
     35900 MEMB     307      POPE     P        PL        1.50000       30.9740           0
     35901 MEMB     307      POPE     O13      O2L     -0.780000       15.9994           0
     35902 MEMB     307      POPE     O14      O2L     -0.780000       15.9994           0
     35903 MEMB     307      POPE     O11      OSLP    -0.570000       15.9994           0
     35904 MEMB     307      POPE     O12      OSLP    -0.570000       15.9994           0
     35905 MEMB     307      POPE     C1       CTL2    -0.800000E-01   12.0110           0
     35906 MEMB     307      POPE     HA       HAL2     0.900000E-01   1.00800           0
     35907 MEMB     307      POPE     HB       HAL2     0.900000E-01   1.00800           0
     35908 MEMB     307      POPE     C2       CTL1     0.170000       12.0110           0
     35909 MEMB     307      POPE     HS       HAL1     0.900000E-01   1.00800           0
     35910 MEMB     307      POPE     O21      OSL     -0.490000       15.9994           0
     35911 MEMB     307      POPE     C21      CL       0.900000       12.0110           0
     35912 MEMB     307      POPE     O22      OBL     -0.630000       15.9994           0
     35913 MEMB     307      POPE     C22      CTL2    -0.220000       12.0110           0
     35914 MEMB     307      POPE     H2R      HAL2     0.900000E-01   1.00800           0
     35915 MEMB     307      POPE     H2S      HAL2     0.900000E-01   1.00800           0
     35916 MEMB     307      POPE     C3       CTL2     0.800000E-01   12.0110           0
     35917 MEMB     307      POPE     HX       HAL2     0.900000E-01   1.00800           0
     35918 MEMB     307      POPE     HY       HAL2     0.900000E-01   1.00800           0
     35919 MEMB     307      POPE     O31      OSL     -0.490000       15.9994           0
     35920 MEMB     307      POPE     C31      CL       0.900000       12.0110           0
     35921 MEMB     307      POPE     O32      OBL     -0.630000       15.9994           0
     35922 MEMB     307      POPE     C32      CTL2    -0.220000       12.0110           0
     35923 MEMB     307      POPE     H2X      HAL2     0.900000E-01   1.00800           0
     35924 MEMB     307      POPE     H2Y      HAL2     0.900000E-01   1.00800           0
     35925 MEMB     307      POPE     C23      CTL2    -0.180000       12.0110           0
     35926 MEMB     307      POPE     H3R      HAL2     0.900000E-01   1.00800           0
     35927 MEMB     307      POPE     H3S      HAL2     0.900000E-01   1.00800           0
     35928 MEMB     307      POPE     C24      CTL2    -0.180000       12.0110           0
     35929 MEMB     307      POPE     H4R      HAL2     0.900000E-01   1.00800           0
     35930 MEMB     307      POPE     H4S      HAL2     0.900000E-01   1.00800           0
     35931 MEMB     307      POPE     C25      CTL2    -0.180000       12.0110           0
     35932 MEMB     307      POPE     H5R      HAL2     0.900000E-01   1.00800           0
     35933 MEMB     307      POPE     H5S      HAL2     0.900000E-01   1.00800           0
     35934 MEMB     307      POPE     C26      CTL2    -0.180000       12.0110           0
     35935 MEMB     307      POPE     H6R      HAL2     0.900000E-01   1.00800           0
     35936 MEMB     307      POPE     H6S      HAL2     0.900000E-01   1.00800           0
     35937 MEMB     307      POPE     C27      CTL2    -0.180000       12.0110           0
     35938 MEMB     307      POPE     H7R      HAL2     0.900000E-01   1.00800           0
     35939 MEMB     307      POPE     H7S      HAL2     0.900000E-01   1.00800           0
     35940 MEMB     307      POPE     C28      CTL2    -0.180000       12.0110           0
     35941 MEMB     307      POPE     H8R      HAL2     0.900000E-01   1.00800           0
     35942 MEMB     307      POPE     H8S      HAL2     0.900000E-01   1.00800           0
     35943 MEMB     307      POPE     C29      CEL1    -0.150000       12.0110           0
     35944 MEMB     307      POPE     H91      HEL1     0.150000       1.00800           0
     35945 MEMB     307      POPE     C210     CEL1    -0.150000       12.0110           0
     35946 MEMB     307      POPE     H101     HEL1     0.150000       1.00800           0
     35947 MEMB     307      POPE     C211     CTL2    -0.180000       12.0110           0
     35948 MEMB     307      POPE     H11R     HAL2     0.900000E-01   1.00800           0
     35949 MEMB     307      POPE     H11S     HAL2     0.900000E-01   1.00800           0
     35950 MEMB     307      POPE     C212     CTL2    -0.180000       12.0110           0
     35951 MEMB     307      POPE     H12R     HAL2     0.900000E-01   1.00800           0
     35952 MEMB     307      POPE     H12S     HAL2     0.900000E-01   1.00800           0
     35953 MEMB     307      POPE     C213     CTL2    -0.180000       12.0110           0
     35954 MEMB     307      POPE     H13R     HAL2     0.900000E-01   1.00800           0
     35955 MEMB     307      POPE     H13S     HAL2     0.900000E-01   1.00800           0
     35956 MEMB     307      POPE     C214     CTL2    -0.180000       12.0110           0
     35957 MEMB     307      POPE     H14R     HAL2     0.900000E-01   1.00800           0
     35958 MEMB     307      POPE     H14S     HAL2     0.900000E-01   1.00800           0
     35959 MEMB     307      POPE     C215     CTL2    -0.180000       12.0110           0
     35960 MEMB     307      POPE     H15R     HAL2     0.900000E-01   1.00800           0
     35961 MEMB     307      POPE     H15S     HAL2     0.900000E-01   1.00800           0
     35962 MEMB     307      POPE     C216     CTL2    -0.180000       12.0110           0
     35963 MEMB     307      POPE     H16R     HAL2     0.900000E-01   1.00800           0
     35964 MEMB     307      POPE     H16S     HAL2     0.900000E-01   1.00800           0
     35965 MEMB     307      POPE     C217     CTL2    -0.180000       12.0110           0
     35966 MEMB     307      POPE     H17R     HAL2     0.900000E-01   1.00800           0
     35967 MEMB     307      POPE     H17S     HAL2     0.900000E-01   1.00800           0
     35968 MEMB     307      POPE     C218     CTL3    -0.270000       12.0110           0
     35969 MEMB     307      POPE     H18R     HAL3     0.900000E-01   1.00800           0
     35970 MEMB     307      POPE     H18S     HAL3     0.900000E-01   1.00800           0
     35971 MEMB     307      POPE     H18T     HAL3     0.900000E-01   1.00800           0
     35972 MEMB     307      POPE     C33      CTL2    -0.180000       12.0110           0
     35973 MEMB     307      POPE     H3X      HAL2     0.900000E-01   1.00800           0
     35974 MEMB     307      POPE     H3Y      HAL2     0.900000E-01   1.00800           0
     35975 MEMB     307      POPE     C34      CTL2    -0.180000       12.0110           0
     35976 MEMB     307      POPE     H4X      HAL2     0.900000E-01   1.00800           0
     35977 MEMB     307      POPE     H4Y      HAL2     0.900000E-01   1.00800           0
     35978 MEMB     307      POPE     C35      CTL2    -0.180000       12.0110           0
     35979 MEMB     307      POPE     H5X      HAL2     0.900000E-01   1.00800           0
     35980 MEMB     307      POPE     H5Y      HAL2     0.900000E-01   1.00800           0
     35981 MEMB     307      POPE     C36      CTL2    -0.180000       12.0110           0
     35982 MEMB     307      POPE     H6X      HAL2     0.900000E-01   1.00800           0
     35983 MEMB     307      POPE     H6Y      HAL2     0.900000E-01   1.00800           0
     35984 MEMB     307      POPE     C37      CTL2    -0.180000       12.0110           0
     35985 MEMB     307      POPE     H7X      HAL2     0.900000E-01   1.00800           0
     35986 MEMB     307      POPE     H7Y      HAL2     0.900000E-01   1.00800           0
     35987 MEMB     307      POPE     C38      CTL2    -0.180000       12.0110           0
     35988 MEMB     307      POPE     H8X      HAL2     0.900000E-01   1.00800           0
     35989 MEMB     307      POPE     H8Y      HAL2     0.900000E-01   1.00800           0
     35990 MEMB     307      POPE     C39      CTL2    -0.180000       12.0110           0
     35991 MEMB     307      POPE     H9X      HAL2     0.900000E-01   1.00800           0
     35992 MEMB     307      POPE     H9Y      HAL2     0.900000E-01   1.00800           0
     35993 MEMB     307      POPE     C310     CTL2    -0.180000       12.0110           0
     35994 MEMB     307      POPE     H10X     HAL2     0.900000E-01   1.00800           0
     35995 MEMB     307      POPE     H10Y     HAL2     0.900000E-01   1.00800           0
     35996 MEMB     307      POPE     C311     CTL2    -0.180000       12.0110           0
     35997 MEMB     307      POPE     H11X     HAL2     0.900000E-01   1.00800           0
     35998 MEMB     307      POPE     H11Y     HAL2     0.900000E-01   1.00800           0
     35999 MEMB     307      POPE     C312     CTL2    -0.180000       12.0110           0
     36000 MEMB     307      POPE     H12X     HAL2     0.900000E-01   1.00800           0
     36001 MEMB     307      POPE     H12Y     HAL2     0.900000E-01   1.00800           0
     36002 MEMB     307      POPE     C313     CTL2    -0.180000       12.0110           0
     36003 MEMB     307      POPE     H13X     HAL2     0.900000E-01   1.00800           0
     36004 MEMB     307      POPE     H13Y     HAL2     0.900000E-01   1.00800           0
     36005 MEMB     307      POPE     C314     CTL2    -0.180000       12.0110           0
     36006 MEMB     307      POPE     H14X     HAL2     0.900000E-01   1.00800           0
     36007 MEMB     307      POPE     H14Y     HAL2     0.900000E-01   1.00800           0
     36008 MEMB     307      POPE     C315     CTL2    -0.180000       12.0110           0
     36009 MEMB     307      POPE     H15X     HAL2     0.900000E-01   1.00800           0
     36010 MEMB     307      POPE     H15Y     HAL2     0.900000E-01   1.00800           0
     36011 MEMB     307      POPE     C316     CTL3    -0.270000       12.0110           0
     36012 MEMB     307      POPE     H16X     HAL3     0.900000E-01   1.00800           0
     36013 MEMB     307      POPE     H16Y     HAL3     0.900000E-01   1.00800           0
     36014 MEMB     307      POPE     H16Z     HAL3     0.900000E-01   1.00800           0
     36015 MEMB     308      POPE     N        NH3L    -0.300000       14.0070           0
     36016 MEMB     308      POPE     HN1      HCL      0.330000       1.00800           0
     36017 MEMB     308      POPE     HN2      HCL      0.330000       1.00800           0
     36018 MEMB     308      POPE     HN3      HCL      0.330000       1.00800           0
     36019 MEMB     308      POPE     C12      CTL2     0.130000       12.0110           0
     36020 MEMB     308      POPE     H12A     HAL2     0.900000E-01   1.00800           0
     36021 MEMB     308      POPE     H12B     HAL2     0.900000E-01   1.00800           0
     36022 MEMB     308      POPE     C11      CTL2    -0.800000E-01   12.0110           0
     36023 MEMB     308      POPE     H11A     HAL2     0.900000E-01   1.00800           0
     36024 MEMB     308      POPE     H11B     HAL2     0.900000E-01   1.00800           0
     36025 MEMB     308      POPE     P        PL        1.50000       30.9740           0
     36026 MEMB     308      POPE     O13      O2L     -0.780000       15.9994           0
     36027 MEMB     308      POPE     O14      O2L     -0.780000       15.9994           0
     36028 MEMB     308      POPE     O11      OSLP    -0.570000       15.9994           0
     36029 MEMB     308      POPE     O12      OSLP    -0.570000       15.9994           0
     36030 MEMB     308      POPE     C1       CTL2    -0.800000E-01   12.0110           0
     36031 MEMB     308      POPE     HA       HAL2     0.900000E-01   1.00800           0
     36032 MEMB     308      POPE     HB       HAL2     0.900000E-01   1.00800           0
     36033 MEMB     308      POPE     C2       CTL1     0.170000       12.0110           0
     36034 MEMB     308      POPE     HS       HAL1     0.900000E-01   1.00800           0
     36035 MEMB     308      POPE     O21      OSL     -0.490000       15.9994           0
     36036 MEMB     308      POPE     C21      CL       0.900000       12.0110           0
     36037 MEMB     308      POPE     O22      OBL     -0.630000       15.9994           0
     36038 MEMB     308      POPE     C22      CTL2    -0.220000       12.0110           0
     36039 MEMB     308      POPE     H2R      HAL2     0.900000E-01   1.00800           0
     36040 MEMB     308      POPE     H2S      HAL2     0.900000E-01   1.00800           0
     36041 MEMB     308      POPE     C3       CTL2     0.800000E-01   12.0110           0
     36042 MEMB     308      POPE     HX       HAL2     0.900000E-01   1.00800           0
     36043 MEMB     308      POPE     HY       HAL2     0.900000E-01   1.00800           0
     36044 MEMB     308      POPE     O31      OSL     -0.490000       15.9994           0
     36045 MEMB     308      POPE     C31      CL       0.900000       12.0110           0
     36046 MEMB     308      POPE     O32      OBL     -0.630000       15.9994           0
     36047 MEMB     308      POPE     C32      CTL2    -0.220000       12.0110           0
     36048 MEMB     308      POPE     H2X      HAL2     0.900000E-01   1.00800           0
     36049 MEMB     308      POPE     H2Y      HAL2     0.900000E-01   1.00800           0
     36050 MEMB     308      POPE     C23      CTL2    -0.180000       12.0110           0
     36051 MEMB     308      POPE     H3R      HAL2     0.900000E-01   1.00800           0
     36052 MEMB     308      POPE     H3S      HAL2     0.900000E-01   1.00800           0
     36053 MEMB     308      POPE     C24      CTL2    -0.180000       12.0110           0
     36054 MEMB     308      POPE     H4R      HAL2     0.900000E-01   1.00800           0
     36055 MEMB     308      POPE     H4S      HAL2     0.900000E-01   1.00800           0
     36056 MEMB     308      POPE     C25      CTL2    -0.180000       12.0110           0
     36057 MEMB     308      POPE     H5R      HAL2     0.900000E-01   1.00800           0
     36058 MEMB     308      POPE     H5S      HAL2     0.900000E-01   1.00800           0
     36059 MEMB     308      POPE     C26      CTL2    -0.180000       12.0110           0
     36060 MEMB     308      POPE     H6R      HAL2     0.900000E-01   1.00800           0
     36061 MEMB     308      POPE     H6S      HAL2     0.900000E-01   1.00800           0
     36062 MEMB     308      POPE     C27      CTL2    -0.180000       12.0110           0
     36063 MEMB     308      POPE     H7R      HAL2     0.900000E-01   1.00800           0
     36064 MEMB     308      POPE     H7S      HAL2     0.900000E-01   1.00800           0
     36065 MEMB     308      POPE     C28      CTL2    -0.180000       12.0110           0
     36066 MEMB     308      POPE     H8R      HAL2     0.900000E-01   1.00800           0
     36067 MEMB     308      POPE     H8S      HAL2     0.900000E-01   1.00800           0
     36068 MEMB     308      POPE     C29      CEL1    -0.150000       12.0110           0
     36069 MEMB     308      POPE     H91      HEL1     0.150000       1.00800           0
     36070 MEMB     308      POPE     C210     CEL1    -0.150000       12.0110           0
     36071 MEMB     308      POPE     H101     HEL1     0.150000       1.00800           0
     36072 MEMB     308      POPE     C211     CTL2    -0.180000       12.0110           0
     36073 MEMB     308      POPE     H11R     HAL2     0.900000E-01   1.00800           0
     36074 MEMB     308      POPE     H11S     HAL2     0.900000E-01   1.00800           0
     36075 MEMB     308      POPE     C212     CTL2    -0.180000       12.0110           0
     36076 MEMB     308      POPE     H12R     HAL2     0.900000E-01   1.00800           0
     36077 MEMB     308      POPE     H12S     HAL2     0.900000E-01   1.00800           0
     36078 MEMB     308      POPE     C213     CTL2    -0.180000       12.0110           0
     36079 MEMB     308      POPE     H13R     HAL2     0.900000E-01   1.00800           0
     36080 MEMB     308      POPE     H13S     HAL2     0.900000E-01   1.00800           0
     36081 MEMB     308      POPE     C214     CTL2    -0.180000       12.0110           0
     36082 MEMB     308      POPE     H14R     HAL2     0.900000E-01   1.00800           0
     36083 MEMB     308      POPE     H14S     HAL2     0.900000E-01   1.00800           0
     36084 MEMB     308      POPE     C215     CTL2    -0.180000       12.0110           0
     36085 MEMB     308      POPE     H15R     HAL2     0.900000E-01   1.00800           0
     36086 MEMB     308      POPE     H15S     HAL2     0.900000E-01   1.00800           0
     36087 MEMB     308      POPE     C216     CTL2    -0.180000       12.0110           0
     36088 MEMB     308      POPE     H16R     HAL2     0.900000E-01   1.00800           0
     36089 MEMB     308      POPE     H16S     HAL2     0.900000E-01   1.00800           0
     36090 MEMB     308      POPE     C217     CTL2    -0.180000       12.0110           0
     36091 MEMB     308      POPE     H17R     HAL2     0.900000E-01   1.00800           0
     36092 MEMB     308      POPE     H17S     HAL2     0.900000E-01   1.00800           0
     36093 MEMB     308      POPE     C218     CTL3    -0.270000       12.0110           0
     36094 MEMB     308      POPE     H18R     HAL3     0.900000E-01   1.00800           0
     36095 MEMB     308      POPE     H18S     HAL3     0.900000E-01   1.00800           0
     36096 MEMB     308      POPE     H18T     HAL3     0.900000E-01   1.00800           0
     36097 MEMB     308      POPE     C33      CTL2    -0.180000       12.0110           0
     36098 MEMB     308      POPE     H3X      HAL2     0.900000E-01   1.00800           0
     36099 MEMB     308      POPE     H3Y      HAL2     0.900000E-01   1.00800           0
     36100 MEMB     308      POPE     C34      CTL2    -0.180000       12.0110           0
     36101 MEMB     308      POPE     H4X      HAL2     0.900000E-01   1.00800           0
     36102 MEMB     308      POPE     H4Y      HAL2     0.900000E-01   1.00800           0
     36103 MEMB     308      POPE     C35      CTL2    -0.180000       12.0110           0
     36104 MEMB     308      POPE     H5X      HAL2     0.900000E-01   1.00800           0
     36105 MEMB     308      POPE     H5Y      HAL2     0.900000E-01   1.00800           0
     36106 MEMB     308      POPE     C36      CTL2    -0.180000       12.0110           0
     36107 MEMB     308      POPE     H6X      HAL2     0.900000E-01   1.00800           0
     36108 MEMB     308      POPE     H6Y      HAL2     0.900000E-01   1.00800           0
     36109 MEMB     308      POPE     C37      CTL2    -0.180000       12.0110           0
     36110 MEMB     308      POPE     H7X      HAL2     0.900000E-01   1.00800           0
     36111 MEMB     308      POPE     H7Y      HAL2     0.900000E-01   1.00800           0
     36112 MEMB     308      POPE     C38      CTL2    -0.180000       12.0110           0
     36113 MEMB     308      POPE     H8X      HAL2     0.900000E-01   1.00800           0
     36114 MEMB     308      POPE     H8Y      HAL2     0.900000E-01   1.00800           0
     36115 MEMB     308      POPE     C39      CTL2    -0.180000       12.0110           0
     36116 MEMB     308      POPE     H9X      HAL2     0.900000E-01   1.00800           0
     36117 MEMB     308      POPE     H9Y      HAL2     0.900000E-01   1.00800           0
     36118 MEMB     308      POPE     C310     CTL2    -0.180000       12.0110           0
     36119 MEMB     308      POPE     H10X     HAL2     0.900000E-01   1.00800           0
     36120 MEMB     308      POPE     H10Y     HAL2     0.900000E-01   1.00800           0
     36121 MEMB     308      POPE     C311     CTL2    -0.180000       12.0110           0
     36122 MEMB     308      POPE     H11X     HAL2     0.900000E-01   1.00800           0
     36123 MEMB     308      POPE     H11Y     HAL2     0.900000E-01   1.00800           0
     36124 MEMB     308      POPE     C312     CTL2    -0.180000       12.0110           0
     36125 MEMB     308      POPE     H12X     HAL2     0.900000E-01   1.00800           0
     36126 MEMB     308      POPE     H12Y     HAL2     0.900000E-01   1.00800           0
     36127 MEMB     308      POPE     C313     CTL2    -0.180000       12.0110           0
     36128 MEMB     308      POPE     H13X     HAL2     0.900000E-01   1.00800           0
     36129 MEMB     308      POPE     H13Y     HAL2     0.900000E-01   1.00800           0
     36130 MEMB     308      POPE     C314     CTL2    -0.180000       12.0110           0
     36131 MEMB     308      POPE     H14X     HAL2     0.900000E-01   1.00800           0
     36132 MEMB     308      POPE     H14Y     HAL2     0.900000E-01   1.00800           0
     36133 MEMB     308      POPE     C315     CTL2    -0.180000       12.0110           0
     36134 MEMB     308      POPE     H15X     HAL2     0.900000E-01   1.00800           0
     36135 MEMB     308      POPE     H15Y     HAL2     0.900000E-01   1.00800           0
     36136 MEMB     308      POPE     C316     CTL3    -0.270000       12.0110           0
     36137 MEMB     308      POPE     H16X     HAL3     0.900000E-01   1.00800           0
     36138 MEMB     308      POPE     H16Y     HAL3     0.900000E-01   1.00800           0
     36139 MEMB     308      POPE     H16Z     HAL3     0.900000E-01   1.00800           0
     36140 MEMB     309      POPE     N        NH3L    -0.300000       14.0070           0
     36141 MEMB     309      POPE     HN1      HCL      0.330000       1.00800           0
     36142 MEMB     309      POPE     HN2      HCL      0.330000       1.00800           0
     36143 MEMB     309      POPE     HN3      HCL      0.330000       1.00800           0
     36144 MEMB     309      POPE     C12      CTL2     0.130000       12.0110           0
     36145 MEMB     309      POPE     H12A     HAL2     0.900000E-01   1.00800           0
     36146 MEMB     309      POPE     H12B     HAL2     0.900000E-01   1.00800           0
     36147 MEMB     309      POPE     C11      CTL2    -0.800000E-01   12.0110           0
     36148 MEMB     309      POPE     H11A     HAL2     0.900000E-01   1.00800           0
     36149 MEMB     309      POPE     H11B     HAL2     0.900000E-01   1.00800           0
     36150 MEMB     309      POPE     P        PL        1.50000       30.9740           0
     36151 MEMB     309      POPE     O13      O2L     -0.780000       15.9994           0
     36152 MEMB     309      POPE     O14      O2L     -0.780000       15.9994           0
     36153 MEMB     309      POPE     O11      OSLP    -0.570000       15.9994           0
     36154 MEMB     309      POPE     O12      OSLP    -0.570000       15.9994           0
     36155 MEMB     309      POPE     C1       CTL2    -0.800000E-01   12.0110           0
     36156 MEMB     309      POPE     HA       HAL2     0.900000E-01   1.00800           0
     36157 MEMB     309      POPE     HB       HAL2     0.900000E-01   1.00800           0
     36158 MEMB     309      POPE     C2       CTL1     0.170000       12.0110           0
     36159 MEMB     309      POPE     HS       HAL1     0.900000E-01   1.00800           0
     36160 MEMB     309      POPE     O21      OSL     -0.490000       15.9994           0
     36161 MEMB     309      POPE     C21      CL       0.900000       12.0110           0
     36162 MEMB     309      POPE     O22      OBL     -0.630000       15.9994           0
     36163 MEMB     309      POPE     C22      CTL2    -0.220000       12.0110           0
     36164 MEMB     309      POPE     H2R      HAL2     0.900000E-01   1.00800           0
     36165 MEMB     309      POPE     H2S      HAL2     0.900000E-01   1.00800           0
     36166 MEMB     309      POPE     C3       CTL2     0.800000E-01   12.0110           0
     36167 MEMB     309      POPE     HX       HAL2     0.900000E-01   1.00800           0
     36168 MEMB     309      POPE     HY       HAL2     0.900000E-01   1.00800           0
     36169 MEMB     309      POPE     O31      OSL     -0.490000       15.9994           0
     36170 MEMB     309      POPE     C31      CL       0.900000       12.0110           0
     36171 MEMB     309      POPE     O32      OBL     -0.630000       15.9994           0
     36172 MEMB     309      POPE     C32      CTL2    -0.220000       12.0110           0
     36173 MEMB     309      POPE     H2X      HAL2     0.900000E-01   1.00800           0
     36174 MEMB     309      POPE     H2Y      HAL2     0.900000E-01   1.00800           0
     36175 MEMB     309      POPE     C23      CTL2    -0.180000       12.0110           0
     36176 MEMB     309      POPE     H3R      HAL2     0.900000E-01   1.00800           0
     36177 MEMB     309      POPE     H3S      HAL2     0.900000E-01   1.00800           0
     36178 MEMB     309      POPE     C24      CTL2    -0.180000       12.0110           0
     36179 MEMB     309      POPE     H4R      HAL2     0.900000E-01   1.00800           0
     36180 MEMB     309      POPE     H4S      HAL2     0.900000E-01   1.00800           0
     36181 MEMB     309      POPE     C25      CTL2    -0.180000       12.0110           0
     36182 MEMB     309      POPE     H5R      HAL2     0.900000E-01   1.00800           0
     36183 MEMB     309      POPE     H5S      HAL2     0.900000E-01   1.00800           0
     36184 MEMB     309      POPE     C26      CTL2    -0.180000       12.0110           0
     36185 MEMB     309      POPE     H6R      HAL2     0.900000E-01   1.00800           0
     36186 MEMB     309      POPE     H6S      HAL2     0.900000E-01   1.00800           0
     36187 MEMB     309      POPE     C27      CTL2    -0.180000       12.0110           0
     36188 MEMB     309      POPE     H7R      HAL2     0.900000E-01   1.00800           0
     36189 MEMB     309      POPE     H7S      HAL2     0.900000E-01   1.00800           0
     36190 MEMB     309      POPE     C28      CTL2    -0.180000       12.0110           0
     36191 MEMB     309      POPE     H8R      HAL2     0.900000E-01   1.00800           0
     36192 MEMB     309      POPE     H8S      HAL2     0.900000E-01   1.00800           0
     36193 MEMB     309      POPE     C29      CEL1    -0.150000       12.0110           0
     36194 MEMB     309      POPE     H91      HEL1     0.150000       1.00800           0
     36195 MEMB     309      POPE     C210     CEL1    -0.150000       12.0110           0
     36196 MEMB     309      POPE     H101     HEL1     0.150000       1.00800           0
     36197 MEMB     309      POPE     C211     CTL2    -0.180000       12.0110           0
     36198 MEMB     309      POPE     H11R     HAL2     0.900000E-01   1.00800           0
     36199 MEMB     309      POPE     H11S     HAL2     0.900000E-01   1.00800           0
     36200 MEMB     309      POPE     C212     CTL2    -0.180000       12.0110           0
     36201 MEMB     309      POPE     H12R     HAL2     0.900000E-01   1.00800           0
     36202 MEMB     309      POPE     H12S     HAL2     0.900000E-01   1.00800           0
     36203 MEMB     309      POPE     C213     CTL2    -0.180000       12.0110           0
     36204 MEMB     309      POPE     H13R     HAL2     0.900000E-01   1.00800           0
     36205 MEMB     309      POPE     H13S     HAL2     0.900000E-01   1.00800           0
     36206 MEMB     309      POPE     C214     CTL2    -0.180000       12.0110           0
     36207 MEMB     309      POPE     H14R     HAL2     0.900000E-01   1.00800           0
     36208 MEMB     309      POPE     H14S     HAL2     0.900000E-01   1.00800           0
     36209 MEMB     309      POPE     C215     CTL2    -0.180000       12.0110           0
     36210 MEMB     309      POPE     H15R     HAL2     0.900000E-01   1.00800           0
     36211 MEMB     309      POPE     H15S     HAL2     0.900000E-01   1.00800           0
     36212 MEMB     309      POPE     C216     CTL2    -0.180000       12.0110           0
     36213 MEMB     309      POPE     H16R     HAL2     0.900000E-01   1.00800           0
     36214 MEMB     309      POPE     H16S     HAL2     0.900000E-01   1.00800           0
     36215 MEMB     309      POPE     C217     CTL2    -0.180000       12.0110           0
     36216 MEMB     309      POPE     H17R     HAL2     0.900000E-01   1.00800           0
     36217 MEMB     309      POPE     H17S     HAL2     0.900000E-01   1.00800           0
     36218 MEMB     309      POPE     C218     CTL3    -0.270000       12.0110           0
     36219 MEMB     309      POPE     H18R     HAL3     0.900000E-01   1.00800           0
     36220 MEMB     309      POPE     H18S     HAL3     0.900000E-01   1.00800           0
     36221 MEMB     309      POPE     H18T     HAL3     0.900000E-01   1.00800           0
     36222 MEMB     309      POPE     C33      CTL2    -0.180000       12.0110           0
     36223 MEMB     309      POPE     H3X      HAL2     0.900000E-01   1.00800           0
     36224 MEMB     309      POPE     H3Y      HAL2     0.900000E-01   1.00800           0
     36225 MEMB     309      POPE     C34      CTL2    -0.180000       12.0110           0
     36226 MEMB     309      POPE     H4X      HAL2     0.900000E-01   1.00800           0
     36227 MEMB     309      POPE     H4Y      HAL2     0.900000E-01   1.00800           0
     36228 MEMB     309      POPE     C35      CTL2    -0.180000       12.0110           0
     36229 MEMB     309      POPE     H5X      HAL2     0.900000E-01   1.00800           0
     36230 MEMB     309      POPE     H5Y      HAL2     0.900000E-01   1.00800           0
     36231 MEMB     309      POPE     C36      CTL2    -0.180000       12.0110           0
     36232 MEMB     309      POPE     H6X      HAL2     0.900000E-01   1.00800           0
     36233 MEMB     309      POPE     H6Y      HAL2     0.900000E-01   1.00800           0
     36234 MEMB     309      POPE     C37      CTL2    -0.180000       12.0110           0
     36235 MEMB     309      POPE     H7X      HAL2     0.900000E-01   1.00800           0
     36236 MEMB     309      POPE     H7Y      HAL2     0.900000E-01   1.00800           0
     36237 MEMB     309      POPE     C38      CTL2    -0.180000       12.0110           0
     36238 MEMB     309      POPE     H8X      HAL2     0.900000E-01   1.00800           0
     36239 MEMB     309      POPE     H8Y      HAL2     0.900000E-01   1.00800           0
     36240 MEMB     309      POPE     C39      CTL2    -0.180000       12.0110           0
     36241 MEMB     309      POPE     H9X      HAL2     0.900000E-01   1.00800           0
     36242 MEMB     309      POPE     H9Y      HAL2     0.900000E-01   1.00800           0
     36243 MEMB     309      POPE     C310     CTL2    -0.180000       12.0110           0
     36244 MEMB     309      POPE     H10X     HAL2     0.900000E-01   1.00800           0
     36245 MEMB     309      POPE     H10Y     HAL2     0.900000E-01   1.00800           0
     36246 MEMB     309      POPE     C311     CTL2    -0.180000       12.0110           0
     36247 MEMB     309      POPE     H11X     HAL2     0.900000E-01   1.00800           0
     36248 MEMB     309      POPE     H11Y     HAL2     0.900000E-01   1.00800           0
     36249 MEMB     309      POPE     C312     CTL2    -0.180000       12.0110           0
     36250 MEMB     309      POPE     H12X     HAL2     0.900000E-01   1.00800           0
     36251 MEMB     309      POPE     H12Y     HAL2     0.900000E-01   1.00800           0
     36252 MEMB     309      POPE     C313     CTL2    -0.180000       12.0110           0
     36253 MEMB     309      POPE     H13X     HAL2     0.900000E-01   1.00800           0
     36254 MEMB     309      POPE     H13Y     HAL2     0.900000E-01   1.00800           0
     36255 MEMB     309      POPE     C314     CTL2    -0.180000       12.0110           0
     36256 MEMB     309      POPE     H14X     HAL2     0.900000E-01   1.00800           0
     36257 MEMB     309      POPE     H14Y     HAL2     0.900000E-01   1.00800           0
     36258 MEMB     309      POPE     C315     CTL2    -0.180000       12.0110           0
     36259 MEMB     309      POPE     H15X     HAL2     0.900000E-01   1.00800           0
     36260 MEMB     309      POPE     H15Y     HAL2     0.900000E-01   1.00800           0
     36261 MEMB     309      POPE     C316     CTL3    -0.270000       12.0110           0
     36262 MEMB     309      POPE     H16X     HAL3     0.900000E-01   1.00800           0
     36263 MEMB     309      POPE     H16Y     HAL3     0.900000E-01   1.00800           0
     36264 MEMB     309      POPE     H16Z     HAL3     0.900000E-01   1.00800           0
     36265 MEMB     310      POPE     N        NH3L    -0.300000       14.0070           0
     36266 MEMB     310      POPE     HN1      HCL      0.330000       1.00800           0
     36267 MEMB     310      POPE     HN2      HCL      0.330000       1.00800           0
     36268 MEMB     310      POPE     HN3      HCL      0.330000       1.00800           0
     36269 MEMB     310      POPE     C12      CTL2     0.130000       12.0110           0
     36270 MEMB     310      POPE     H12A     HAL2     0.900000E-01   1.00800           0
     36271 MEMB     310      POPE     H12B     HAL2     0.900000E-01   1.00800           0
     36272 MEMB     310      POPE     C11      CTL2    -0.800000E-01   12.0110           0
     36273 MEMB     310      POPE     H11A     HAL2     0.900000E-01   1.00800           0
     36274 MEMB     310      POPE     H11B     HAL2     0.900000E-01   1.00800           0
     36275 MEMB     310      POPE     P        PL        1.50000       30.9740           0
     36276 MEMB     310      POPE     O13      O2L     -0.780000       15.9994           0
     36277 MEMB     310      POPE     O14      O2L     -0.780000       15.9994           0
     36278 MEMB     310      POPE     O11      OSLP    -0.570000       15.9994           0
     36279 MEMB     310      POPE     O12      OSLP    -0.570000       15.9994           0
     36280 MEMB     310      POPE     C1       CTL2    -0.800000E-01   12.0110           0
     36281 MEMB     310      POPE     HA       HAL2     0.900000E-01   1.00800           0
     36282 MEMB     310      POPE     HB       HAL2     0.900000E-01   1.00800           0
     36283 MEMB     310      POPE     C2       CTL1     0.170000       12.0110           0
     36284 MEMB     310      POPE     HS       HAL1     0.900000E-01   1.00800           0
     36285 MEMB     310      POPE     O21      OSL     -0.490000       15.9994           0
     36286 MEMB     310      POPE     C21      CL       0.900000       12.0110           0
     36287 MEMB     310      POPE     O22      OBL     -0.630000       15.9994           0
     36288 MEMB     310      POPE     C22      CTL2    -0.220000       12.0110           0
     36289 MEMB     310      POPE     H2R      HAL2     0.900000E-01   1.00800           0
     36290 MEMB     310      POPE     H2S      HAL2     0.900000E-01   1.00800           0
     36291 MEMB     310      POPE     C3       CTL2     0.800000E-01   12.0110           0
     36292 MEMB     310      POPE     HX       HAL2     0.900000E-01   1.00800           0
     36293 MEMB     310      POPE     HY       HAL2     0.900000E-01   1.00800           0
     36294 MEMB     310      POPE     O31      OSL     -0.490000       15.9994           0
     36295 MEMB     310      POPE     C31      CL       0.900000       12.0110           0
     36296 MEMB     310      POPE     O32      OBL     -0.630000       15.9994           0
     36297 MEMB     310      POPE     C32      CTL2    -0.220000       12.0110           0
     36298 MEMB     310      POPE     H2X      HAL2     0.900000E-01   1.00800           0
     36299 MEMB     310      POPE     H2Y      HAL2     0.900000E-01   1.00800           0
     36300 MEMB     310      POPE     C23      CTL2    -0.180000       12.0110           0
     36301 MEMB     310      POPE     H3R      HAL2     0.900000E-01   1.00800           0
     36302 MEMB     310      POPE     H3S      HAL2     0.900000E-01   1.00800           0
     36303 MEMB     310      POPE     C24      CTL2    -0.180000       12.0110           0
     36304 MEMB     310      POPE     H4R      HAL2     0.900000E-01   1.00800           0
     36305 MEMB     310      POPE     H4S      HAL2     0.900000E-01   1.00800           0
     36306 MEMB     310      POPE     C25      CTL2    -0.180000       12.0110           0
     36307 MEMB     310      POPE     H5R      HAL2     0.900000E-01   1.00800           0
     36308 MEMB     310      POPE     H5S      HAL2     0.900000E-01   1.00800           0
     36309 MEMB     310      POPE     C26      CTL2    -0.180000       12.0110           0
     36310 MEMB     310      POPE     H6R      HAL2     0.900000E-01   1.00800           0
     36311 MEMB     310      POPE     H6S      HAL2     0.900000E-01   1.00800           0
     36312 MEMB     310      POPE     C27      CTL2    -0.180000       12.0110           0
     36313 MEMB     310      POPE     H7R      HAL2     0.900000E-01   1.00800           0
     36314 MEMB     310      POPE     H7S      HAL2     0.900000E-01   1.00800           0
     36315 MEMB     310      POPE     C28      CTL2    -0.180000       12.0110           0
     36316 MEMB     310      POPE     H8R      HAL2     0.900000E-01   1.00800           0
     36317 MEMB     310      POPE     H8S      HAL2     0.900000E-01   1.00800           0
     36318 MEMB     310      POPE     C29      CEL1    -0.150000       12.0110           0
     36319 MEMB     310      POPE     H91      HEL1     0.150000       1.00800           0
     36320 MEMB     310      POPE     C210     CEL1    -0.150000       12.0110           0
     36321 MEMB     310      POPE     H101     HEL1     0.150000       1.00800           0
     36322 MEMB     310      POPE     C211     CTL2    -0.180000       12.0110           0
     36323 MEMB     310      POPE     H11R     HAL2     0.900000E-01   1.00800           0
     36324 MEMB     310      POPE     H11S     HAL2     0.900000E-01   1.00800           0
     36325 MEMB     310      POPE     C212     CTL2    -0.180000       12.0110           0
     36326 MEMB     310      POPE     H12R     HAL2     0.900000E-01   1.00800           0
     36327 MEMB     310      POPE     H12S     HAL2     0.900000E-01   1.00800           0
     36328 MEMB     310      POPE     C213     CTL2    -0.180000       12.0110           0
     36329 MEMB     310      POPE     H13R     HAL2     0.900000E-01   1.00800           0
     36330 MEMB     310      POPE     H13S     HAL2     0.900000E-01   1.00800           0
     36331 MEMB     310      POPE     C214     CTL2    -0.180000       12.0110           0
     36332 MEMB     310      POPE     H14R     HAL2     0.900000E-01   1.00800           0
     36333 MEMB     310      POPE     H14S     HAL2     0.900000E-01   1.00800           0
     36334 MEMB     310      POPE     C215     CTL2    -0.180000       12.0110           0
     36335 MEMB     310      POPE     H15R     HAL2     0.900000E-01   1.00800           0
     36336 MEMB     310      POPE     H15S     HAL2     0.900000E-01   1.00800           0
     36337 MEMB     310      POPE     C216     CTL2    -0.180000       12.0110           0
     36338 MEMB     310      POPE     H16R     HAL2     0.900000E-01   1.00800           0
     36339 MEMB     310      POPE     H16S     HAL2     0.900000E-01   1.00800           0
     36340 MEMB     310      POPE     C217     CTL2    -0.180000       12.0110           0
     36341 MEMB     310      POPE     H17R     HAL2     0.900000E-01   1.00800           0
     36342 MEMB     310      POPE     H17S     HAL2     0.900000E-01   1.00800           0
     36343 MEMB     310      POPE     C218     CTL3    -0.270000       12.0110           0
     36344 MEMB     310      POPE     H18R     HAL3     0.900000E-01   1.00800           0
     36345 MEMB     310      POPE     H18S     HAL3     0.900000E-01   1.00800           0
     36346 MEMB     310      POPE     H18T     HAL3     0.900000E-01   1.00800           0
     36347 MEMB     310      POPE     C33      CTL2    -0.180000       12.0110           0
     36348 MEMB     310      POPE     H3X      HAL2     0.900000E-01   1.00800           0
     36349 MEMB     310      POPE     H3Y      HAL2     0.900000E-01   1.00800           0
     36350 MEMB     310      POPE     C34      CTL2    -0.180000       12.0110           0
     36351 MEMB     310      POPE     H4X      HAL2     0.900000E-01   1.00800           0
     36352 MEMB     310      POPE     H4Y      HAL2     0.900000E-01   1.00800           0
     36353 MEMB     310      POPE     C35      CTL2    -0.180000       12.0110           0
     36354 MEMB     310      POPE     H5X      HAL2     0.900000E-01   1.00800           0
     36355 MEMB     310      POPE     H5Y      HAL2     0.900000E-01   1.00800           0
     36356 MEMB     310      POPE     C36      CTL2    -0.180000       12.0110           0
     36357 MEMB     310      POPE     H6X      HAL2     0.900000E-01   1.00800           0
     36358 MEMB     310      POPE     H6Y      HAL2     0.900000E-01   1.00800           0
     36359 MEMB     310      POPE     C37      CTL2    -0.180000       12.0110           0
     36360 MEMB     310      POPE     H7X      HAL2     0.900000E-01   1.00800           0
     36361 MEMB     310      POPE     H7Y      HAL2     0.900000E-01   1.00800           0
     36362 MEMB     310      POPE     C38      CTL2    -0.180000       12.0110           0
     36363 MEMB     310      POPE     H8X      HAL2     0.900000E-01   1.00800           0
     36364 MEMB     310      POPE     H8Y      HAL2     0.900000E-01   1.00800           0
     36365 MEMB     310      POPE     C39      CTL2    -0.180000       12.0110           0
     36366 MEMB     310      POPE     H9X      HAL2     0.900000E-01   1.00800           0
     36367 MEMB     310      POPE     H9Y      HAL2     0.900000E-01   1.00800           0
     36368 MEMB     310      POPE     C310     CTL2    -0.180000       12.0110           0
     36369 MEMB     310      POPE     H10X     HAL2     0.900000E-01   1.00800           0
     36370 MEMB     310      POPE     H10Y     HAL2     0.900000E-01   1.00800           0
     36371 MEMB     310      POPE     C311     CTL2    -0.180000       12.0110           0
     36372 MEMB     310      POPE     H11X     HAL2     0.900000E-01   1.00800           0
     36373 MEMB     310      POPE     H11Y     HAL2     0.900000E-01   1.00800           0
     36374 MEMB     310      POPE     C312     CTL2    -0.180000       12.0110           0
     36375 MEMB     310      POPE     H12X     HAL2     0.900000E-01   1.00800           0
     36376 MEMB     310      POPE     H12Y     HAL2     0.900000E-01   1.00800           0
     36377 MEMB     310      POPE     C313     CTL2    -0.180000       12.0110           0
     36378 MEMB     310      POPE     H13X     HAL2     0.900000E-01   1.00800           0
     36379 MEMB     310      POPE     H13Y     HAL2     0.900000E-01   1.00800           0
     36380 MEMB     310      POPE     C314     CTL2    -0.180000       12.0110           0
     36381 MEMB     310      POPE     H14X     HAL2     0.900000E-01   1.00800           0
     36382 MEMB     310      POPE     H14Y     HAL2     0.900000E-01   1.00800           0
     36383 MEMB     310      POPE     C315     CTL2    -0.180000       12.0110           0
     36384 MEMB     310      POPE     H15X     HAL2     0.900000E-01   1.00800           0
     36385 MEMB     310      POPE     H15Y     HAL2     0.900000E-01   1.00800           0
     36386 MEMB     310      POPE     C316     CTL3    -0.270000       12.0110           0
     36387 MEMB     310      POPE     H16X     HAL3     0.900000E-01   1.00800           0
     36388 MEMB     310      POPE     H16Y     HAL3     0.900000E-01   1.00800           0
     36389 MEMB     310      POPE     H16Z     HAL3     0.900000E-01   1.00800           0
     36390 MEMB     311      POPE     N        NH3L    -0.300000       14.0070           0
     36391 MEMB     311      POPE     HN1      HCL      0.330000       1.00800           0
     36392 MEMB     311      POPE     HN2      HCL      0.330000       1.00800           0
     36393 MEMB     311      POPE     HN3      HCL      0.330000       1.00800           0
     36394 MEMB     311      POPE     C12      CTL2     0.130000       12.0110           0
     36395 MEMB     311      POPE     H12A     HAL2     0.900000E-01   1.00800           0
     36396 MEMB     311      POPE     H12B     HAL2     0.900000E-01   1.00800           0
     36397 MEMB     311      POPE     C11      CTL2    -0.800000E-01   12.0110           0
     36398 MEMB     311      POPE     H11A     HAL2     0.900000E-01   1.00800           0
     36399 MEMB     311      POPE     H11B     HAL2     0.900000E-01   1.00800           0
     36400 MEMB     311      POPE     P        PL        1.50000       30.9740           0
     36401 MEMB     311      POPE     O13      O2L     -0.780000       15.9994           0
     36402 MEMB     311      POPE     O14      O2L     -0.780000       15.9994           0
     36403 MEMB     311      POPE     O11      OSLP    -0.570000       15.9994           0
     36404 MEMB     311      POPE     O12      OSLP    -0.570000       15.9994           0
     36405 MEMB     311      POPE     C1       CTL2    -0.800000E-01   12.0110           0
     36406 MEMB     311      POPE     HA       HAL2     0.900000E-01   1.00800           0
     36407 MEMB     311      POPE     HB       HAL2     0.900000E-01   1.00800           0
     36408 MEMB     311      POPE     C2       CTL1     0.170000       12.0110           0
     36409 MEMB     311      POPE     HS       HAL1     0.900000E-01   1.00800           0
     36410 MEMB     311      POPE     O21      OSL     -0.490000       15.9994           0
     36411 MEMB     311      POPE     C21      CL       0.900000       12.0110           0
     36412 MEMB     311      POPE     O22      OBL     -0.630000       15.9994           0
     36413 MEMB     311      POPE     C22      CTL2    -0.220000       12.0110           0
     36414 MEMB     311      POPE     H2R      HAL2     0.900000E-01   1.00800           0
     36415 MEMB     311      POPE     H2S      HAL2     0.900000E-01   1.00800           0
     36416 MEMB     311      POPE     C3       CTL2     0.800000E-01   12.0110           0
     36417 MEMB     311      POPE     HX       HAL2     0.900000E-01   1.00800           0
     36418 MEMB     311      POPE     HY       HAL2     0.900000E-01   1.00800           0
     36419 MEMB     311      POPE     O31      OSL     -0.490000       15.9994           0
     36420 MEMB     311      POPE     C31      CL       0.900000       12.0110           0
     36421 MEMB     311      POPE     O32      OBL     -0.630000       15.9994           0
     36422 MEMB     311      POPE     C32      CTL2    -0.220000       12.0110           0
     36423 MEMB     311      POPE     H2X      HAL2     0.900000E-01   1.00800           0
     36424 MEMB     311      POPE     H2Y      HAL2     0.900000E-01   1.00800           0
     36425 MEMB     311      POPE     C23      CTL2    -0.180000       12.0110           0
     36426 MEMB     311      POPE     H3R      HAL2     0.900000E-01   1.00800           0
     36427 MEMB     311      POPE     H3S      HAL2     0.900000E-01   1.00800           0
     36428 MEMB     311      POPE     C24      CTL2    -0.180000       12.0110           0
     36429 MEMB     311      POPE     H4R      HAL2     0.900000E-01   1.00800           0
     36430 MEMB     311      POPE     H4S      HAL2     0.900000E-01   1.00800           0
     36431 MEMB     311      POPE     C25      CTL2    -0.180000       12.0110           0
     36432 MEMB     311      POPE     H5R      HAL2     0.900000E-01   1.00800           0
     36433 MEMB     311      POPE     H5S      HAL2     0.900000E-01   1.00800           0
     36434 MEMB     311      POPE     C26      CTL2    -0.180000       12.0110           0
     36435 MEMB     311      POPE     H6R      HAL2     0.900000E-01   1.00800           0
     36436 MEMB     311      POPE     H6S      HAL2     0.900000E-01   1.00800           0
     36437 MEMB     311      POPE     C27      CTL2    -0.180000       12.0110           0
     36438 MEMB     311      POPE     H7R      HAL2     0.900000E-01   1.00800           0
     36439 MEMB     311      POPE     H7S      HAL2     0.900000E-01   1.00800           0
     36440 MEMB     311      POPE     C28      CTL2    -0.180000       12.0110           0
     36441 MEMB     311      POPE     H8R      HAL2     0.900000E-01   1.00800           0
     36442 MEMB     311      POPE     H8S      HAL2     0.900000E-01   1.00800           0
     36443 MEMB     311      POPE     C29      CEL1    -0.150000       12.0110           0
     36444 MEMB     311      POPE     H91      HEL1     0.150000       1.00800           0
     36445 MEMB     311      POPE     C210     CEL1    -0.150000       12.0110           0
     36446 MEMB     311      POPE     H101     HEL1     0.150000       1.00800           0
     36447 MEMB     311      POPE     C211     CTL2    -0.180000       12.0110           0
     36448 MEMB     311      POPE     H11R     HAL2     0.900000E-01   1.00800           0
     36449 MEMB     311      POPE     H11S     HAL2     0.900000E-01   1.00800           0
     36450 MEMB     311      POPE     C212     CTL2    -0.180000       12.0110           0
     36451 MEMB     311      POPE     H12R     HAL2     0.900000E-01   1.00800           0
     36452 MEMB     311      POPE     H12S     HAL2     0.900000E-01   1.00800           0
     36453 MEMB     311      POPE     C213     CTL2    -0.180000       12.0110           0
     36454 MEMB     311      POPE     H13R     HAL2     0.900000E-01   1.00800           0
     36455 MEMB     311      POPE     H13S     HAL2     0.900000E-01   1.00800           0
     36456 MEMB     311      POPE     C214     CTL2    -0.180000       12.0110           0
     36457 MEMB     311      POPE     H14R     HAL2     0.900000E-01   1.00800           0
     36458 MEMB     311      POPE     H14S     HAL2     0.900000E-01   1.00800           0
     36459 MEMB     311      POPE     C215     CTL2    -0.180000       12.0110           0
     36460 MEMB     311      POPE     H15R     HAL2     0.900000E-01   1.00800           0
     36461 MEMB     311      POPE     H15S     HAL2     0.900000E-01   1.00800           0
     36462 MEMB     311      POPE     C216     CTL2    -0.180000       12.0110           0
     36463 MEMB     311      POPE     H16R     HAL2     0.900000E-01   1.00800           0
     36464 MEMB     311      POPE     H16S     HAL2     0.900000E-01   1.00800           0
     36465 MEMB     311      POPE     C217     CTL2    -0.180000       12.0110           0
     36466 MEMB     311      POPE     H17R     HAL2     0.900000E-01   1.00800           0
     36467 MEMB     311      POPE     H17S     HAL2     0.900000E-01   1.00800           0
     36468 MEMB     311      POPE     C218     CTL3    -0.270000       12.0110           0
     36469 MEMB     311      POPE     H18R     HAL3     0.900000E-01   1.00800           0
     36470 MEMB     311      POPE     H18S     HAL3     0.900000E-01   1.00800           0
     36471 MEMB     311      POPE     H18T     HAL3     0.900000E-01   1.00800           0
     36472 MEMB     311      POPE     C33      CTL2    -0.180000       12.0110           0
     36473 MEMB     311      POPE     H3X      HAL2     0.900000E-01   1.00800           0
     36474 MEMB     311      POPE     H3Y      HAL2     0.900000E-01   1.00800           0
     36475 MEMB     311      POPE     C34      CTL2    -0.180000       12.0110           0
     36476 MEMB     311      POPE     H4X      HAL2     0.900000E-01   1.00800           0
     36477 MEMB     311      POPE     H4Y      HAL2     0.900000E-01   1.00800           0
     36478 MEMB     311      POPE     C35      CTL2    -0.180000       12.0110           0
     36479 MEMB     311      POPE     H5X      HAL2     0.900000E-01   1.00800           0
     36480 MEMB     311      POPE     H5Y      HAL2     0.900000E-01   1.00800           0
     36481 MEMB     311      POPE     C36      CTL2    -0.180000       12.0110           0
     36482 MEMB     311      POPE     H6X      HAL2     0.900000E-01   1.00800           0
     36483 MEMB     311      POPE     H6Y      HAL2     0.900000E-01   1.00800           0
     36484 MEMB     311      POPE     C37      CTL2    -0.180000       12.0110           0
     36485 MEMB     311      POPE     H7X      HAL2     0.900000E-01   1.00800           0
     36486 MEMB     311      POPE     H7Y      HAL2     0.900000E-01   1.00800           0
     36487 MEMB     311      POPE     C38      CTL2    -0.180000       12.0110           0
     36488 MEMB     311      POPE     H8X      HAL2     0.900000E-01   1.00800           0
     36489 MEMB     311      POPE     H8Y      HAL2     0.900000E-01   1.00800           0
     36490 MEMB     311      POPE     C39      CTL2    -0.180000       12.0110           0
     36491 MEMB     311      POPE     H9X      HAL2     0.900000E-01   1.00800           0
     36492 MEMB     311      POPE     H9Y      HAL2     0.900000E-01   1.00800           0
     36493 MEMB     311      POPE     C310     CTL2    -0.180000       12.0110           0
     36494 MEMB     311      POPE     H10X     HAL2     0.900000E-01   1.00800           0
     36495 MEMB     311      POPE     H10Y     HAL2     0.900000E-01   1.00800           0
     36496 MEMB     311      POPE     C311     CTL2    -0.180000       12.0110           0
     36497 MEMB     311      POPE     H11X     HAL2     0.900000E-01   1.00800           0
     36498 MEMB     311      POPE     H11Y     HAL2     0.900000E-01   1.00800           0
     36499 MEMB     311      POPE     C312     CTL2    -0.180000       12.0110           0
     36500 MEMB     311      POPE     H12X     HAL2     0.900000E-01   1.00800           0
     36501 MEMB     311      POPE     H12Y     HAL2     0.900000E-01   1.00800           0
     36502 MEMB     311      POPE     C313     CTL2    -0.180000       12.0110           0
     36503 MEMB     311      POPE     H13X     HAL2     0.900000E-01   1.00800           0
     36504 MEMB     311      POPE     H13Y     HAL2     0.900000E-01   1.00800           0
     36505 MEMB     311      POPE     C314     CTL2    -0.180000       12.0110           0
     36506 MEMB     311      POPE     H14X     HAL2     0.900000E-01   1.00800           0
     36507 MEMB     311      POPE     H14Y     HAL2     0.900000E-01   1.00800           0
     36508 MEMB     311      POPE     C315     CTL2    -0.180000       12.0110           0
     36509 MEMB     311      POPE     H15X     HAL2     0.900000E-01   1.00800           0
     36510 MEMB     311      POPE     H15Y     HAL2     0.900000E-01   1.00800           0
     36511 MEMB     311      POPE     C316     CTL3    -0.270000       12.0110           0
     36512 MEMB     311      POPE     H16X     HAL3     0.900000E-01   1.00800           0
     36513 MEMB     311      POPE     H16Y     HAL3     0.900000E-01   1.00800           0
     36514 MEMB     311      POPE     H16Z     HAL3     0.900000E-01   1.00800           0
     36515 MEMB     312      POPC     N        NTL     -0.600000       14.0070           0
     36516 MEMB     312      POPC     C12      CTL2    -0.100000       12.0110           0
     36517 MEMB     312      POPC     H12A     HL       0.250000       1.00800           0
     36518 MEMB     312      POPC     H12B     HL       0.250000       1.00800           0
     36519 MEMB     312      POPC     C13      CTL5    -0.350000       12.0110           0
     36520 MEMB     312      POPC     H13A     HL       0.250000       1.00800           0
     36521 MEMB     312      POPC     H13B     HL       0.250000       1.00800           0
     36522 MEMB     312      POPC     H13C     HL       0.250000       1.00800           0
     36523 MEMB     312      POPC     C14      CTL5    -0.350000       12.0110           0
     36524 MEMB     312      POPC     H14A     HL       0.250000       1.00800           0
     36525 MEMB     312      POPC     H14B     HL       0.250000       1.00800           0
     36526 MEMB     312      POPC     H14C     HL       0.250000       1.00800           0
     36527 MEMB     312      POPC     C15      CTL5    -0.350000       12.0110           0
     36528 MEMB     312      POPC     H15A     HL       0.250000       1.00800           0
     36529 MEMB     312      POPC     H15B     HL       0.250000       1.00800           0
     36530 MEMB     312      POPC     H15C     HL       0.250000       1.00800           0
     36531 MEMB     312      POPC     C11      CTL2    -0.800000E-01   12.0110           0
     36532 MEMB     312      POPC     H11A     HAL2     0.900000E-01   1.00800           0
     36533 MEMB     312      POPC     H11B     HAL2     0.900000E-01   1.00800           0
     36534 MEMB     312      POPC     P        PL        1.50000       30.9740           0
     36535 MEMB     312      POPC     O13      O2L     -0.780000       15.9994           0
     36536 MEMB     312      POPC     O14      O2L     -0.780000       15.9994           0
     36537 MEMB     312      POPC     O12      OSLP    -0.570000       15.9994           0
     36538 MEMB     312      POPC     O11      OSLP    -0.570000       15.9994           0
     36539 MEMB     312      POPC     C1       CTL2    -0.800000E-01   12.0110           0
     36540 MEMB     312      POPC     HA       HAL2     0.900000E-01   1.00800           0
     36541 MEMB     312      POPC     HB       HAL2     0.900000E-01   1.00800           0
     36542 MEMB     312      POPC     C2       CTL1     0.170000       12.0110           0
     36543 MEMB     312      POPC     HS       HAL1     0.900000E-01   1.00800           0
     36544 MEMB     312      POPC     O21      OSL     -0.490000       15.9994           0
     36545 MEMB     312      POPC     C21      CL       0.900000       12.0110           0
     36546 MEMB     312      POPC     O22      OBL     -0.630000       15.9994           0
     36547 MEMB     312      POPC     C22      CTL2    -0.220000       12.0110           0
     36548 MEMB     312      POPC     H2R      HAL2     0.900000E-01   1.00800           0
     36549 MEMB     312      POPC     H2S      HAL2     0.900000E-01   1.00800           0
     36550 MEMB     312      POPC     C3       CTL2     0.800000E-01   12.0110           0
     36551 MEMB     312      POPC     HX       HAL2     0.900000E-01   1.00800           0
     36552 MEMB     312      POPC     HY       HAL2     0.900000E-01   1.00800           0
     36553 MEMB     312      POPC     O31      OSL     -0.490000       15.9994           0
     36554 MEMB     312      POPC     C31      CL       0.900000       12.0110           0
     36555 MEMB     312      POPC     O32      OBL     -0.630000       15.9994           0
     36556 MEMB     312      POPC     C32      CTL2    -0.220000       12.0110           0
     36557 MEMB     312      POPC     H2X      HAL2     0.900000E-01   1.00800           0
     36558 MEMB     312      POPC     H2Y      HAL2     0.900000E-01   1.00800           0
     36559 MEMB     312      POPC     C23      CTL2    -0.180000       12.0110           0
     36560 MEMB     312      POPC     H3R      HAL2     0.900000E-01   1.00800           0
     36561 MEMB     312      POPC     H3S      HAL2     0.900000E-01   1.00800           0
     36562 MEMB     312      POPC     C24      CTL2    -0.180000       12.0110           0
     36563 MEMB     312      POPC     H4R      HAL2     0.900000E-01   1.00800           0
     36564 MEMB     312      POPC     H4S      HAL2     0.900000E-01   1.00800           0
     36565 MEMB     312      POPC     C25      CTL2    -0.180000       12.0110           0
     36566 MEMB     312      POPC     H5R      HAL2     0.900000E-01   1.00800           0
     36567 MEMB     312      POPC     H5S      HAL2     0.900000E-01   1.00800           0
     36568 MEMB     312      POPC     C26      CTL2    -0.180000       12.0110           0
     36569 MEMB     312      POPC     H6R      HAL2     0.900000E-01   1.00800           0
     36570 MEMB     312      POPC     H6S      HAL2     0.900000E-01   1.00800           0
     36571 MEMB     312      POPC     C27      CTL2    -0.180000       12.0110           0
     36572 MEMB     312      POPC     H7R      HAL2     0.900000E-01   1.00800           0
     36573 MEMB     312      POPC     H7S      HAL2     0.900000E-01   1.00800           0
     36574 MEMB     312      POPC     C28      CTL2    -0.180000       12.0110           0
     36575 MEMB     312      POPC     H8R      HAL2     0.900000E-01   1.00800           0
     36576 MEMB     312      POPC     H8S      HAL2     0.900000E-01   1.00800           0
     36577 MEMB     312      POPC     C29      CEL1    -0.150000       12.0110           0
     36578 MEMB     312      POPC     H91      HEL1     0.150000       1.00800           0
     36579 MEMB     312      POPC     C210     CEL1    -0.150000       12.0110           0
     36580 MEMB     312      POPC     H101     HEL1     0.150000       1.00800           0
     36581 MEMB     312      POPC     C211     CTL2    -0.180000       12.0110           0
     36582 MEMB     312      POPC     H11R     HAL2     0.900000E-01   1.00800           0
     36583 MEMB     312      POPC     H11S     HAL2     0.900000E-01   1.00800           0
     36584 MEMB     312      POPC     C212     CTL2    -0.180000       12.0110           0
     36585 MEMB     312      POPC     H12R     HAL2     0.900000E-01   1.00800           0
     36586 MEMB     312      POPC     H12S     HAL2     0.900000E-01   1.00800           0
     36587 MEMB     312      POPC     C213     CTL2    -0.180000       12.0110           0
     36588 MEMB     312      POPC     H13R     HAL2     0.900000E-01   1.00800           0
     36589 MEMB     312      POPC     H13S     HAL2     0.900000E-01   1.00800           0
     36590 MEMB     312      POPC     C214     CTL2    -0.180000       12.0110           0
     36591 MEMB     312      POPC     H14R     HAL2     0.900000E-01   1.00800           0
     36592 MEMB     312      POPC     H14S     HAL2     0.900000E-01   1.00800           0
     36593 MEMB     312      POPC     C215     CTL2    -0.180000       12.0110           0
     36594 MEMB     312      POPC     H15R     HAL2     0.900000E-01   1.00800           0
     36595 MEMB     312      POPC     H15S     HAL2     0.900000E-01   1.00800           0
     36596 MEMB     312      POPC     C216     CTL2    -0.180000       12.0110           0
     36597 MEMB     312      POPC     H16R     HAL2     0.900000E-01   1.00800           0
     36598 MEMB     312      POPC     H16S     HAL2     0.900000E-01   1.00800           0
     36599 MEMB     312      POPC     C217     CTL2    -0.180000       12.0110           0
     36600 MEMB     312      POPC     H17R     HAL2     0.900000E-01   1.00800           0
     36601 MEMB     312      POPC     H17S     HAL2     0.900000E-01   1.00800           0
     36602 MEMB     312      POPC     C218     CTL3    -0.270000       12.0110           0
     36603 MEMB     312      POPC     H18R     HAL3     0.900000E-01   1.00800           0
     36604 MEMB     312      POPC     H18S     HAL3     0.900000E-01   1.00800           0
     36605 MEMB     312      POPC     H18T     HAL3     0.900000E-01   1.00800           0
     36606 MEMB     312      POPC     C33      CTL2    -0.180000       12.0110           0
     36607 MEMB     312      POPC     H3X      HAL2     0.900000E-01   1.00800           0
     36608 MEMB     312      POPC     H3Y      HAL2     0.900000E-01   1.00800           0
     36609 MEMB     312      POPC     C34      CTL2    -0.180000       12.0110           0
     36610 MEMB     312      POPC     H4X      HAL2     0.900000E-01   1.00800           0
     36611 MEMB     312      POPC     H4Y      HAL2     0.900000E-01   1.00800           0
     36612 MEMB     312      POPC     C35      CTL2    -0.180000       12.0110           0
     36613 MEMB     312      POPC     H5X      HAL2     0.900000E-01   1.00800           0
     36614 MEMB     312      POPC     H5Y      HAL2     0.900000E-01   1.00800           0
     36615 MEMB     312      POPC     C36      CTL2    -0.180000       12.0110           0
     36616 MEMB     312      POPC     H6X      HAL2     0.900000E-01   1.00800           0
     36617 MEMB     312      POPC     H6Y      HAL2     0.900000E-01   1.00800           0
     36618 MEMB     312      POPC     C37      CTL2    -0.180000       12.0110           0
     36619 MEMB     312      POPC     H7X      HAL2     0.900000E-01   1.00800           0
     36620 MEMB     312      POPC     H7Y      HAL2     0.900000E-01   1.00800           0
     36621 MEMB     312      POPC     C38      CTL2    -0.180000       12.0110           0
     36622 MEMB     312      POPC     H8X      HAL2     0.900000E-01   1.00800           0
     36623 MEMB     312      POPC     H8Y      HAL2     0.900000E-01   1.00800           0
     36624 MEMB     312      POPC     C39      CTL2    -0.180000       12.0110           0
     36625 MEMB     312      POPC     H9X      HAL2     0.900000E-01   1.00800           0
     36626 MEMB     312      POPC     H9Y      HAL2     0.900000E-01   1.00800           0
     36627 MEMB     312      POPC     C310     CTL2    -0.180000       12.0110           0
     36628 MEMB     312      POPC     H10X     HAL2     0.900000E-01   1.00800           0
     36629 MEMB     312      POPC     H10Y     HAL2     0.900000E-01   1.00800           0
     36630 MEMB     312      POPC     C311     CTL2    -0.180000       12.0110           0
     36631 MEMB     312      POPC     H11X     HAL2     0.900000E-01   1.00800           0
     36632 MEMB     312      POPC     H11Y     HAL2     0.900000E-01   1.00800           0
     36633 MEMB     312      POPC     C312     CTL2    -0.180000       12.0110           0
     36634 MEMB     312      POPC     H12X     HAL2     0.900000E-01   1.00800           0
     36635 MEMB     312      POPC     H12Y     HAL2     0.900000E-01   1.00800           0
     36636 MEMB     312      POPC     C313     CTL2    -0.180000       12.0110           0
     36637 MEMB     312      POPC     H13X     HAL2     0.900000E-01   1.00800           0
     36638 MEMB     312      POPC     H13Y     HAL2     0.900000E-01   1.00800           0
     36639 MEMB     312      POPC     C314     CTL2    -0.180000       12.0110           0
     36640 MEMB     312      POPC     H14X     HAL2     0.900000E-01   1.00800           0
     36641 MEMB     312      POPC     H14Y     HAL2     0.900000E-01   1.00800           0
     36642 MEMB     312      POPC     C315     CTL2    -0.180000       12.0110           0
     36643 MEMB     312      POPC     H15X     HAL2     0.900000E-01   1.00800           0
     36644 MEMB     312      POPC     H15Y     HAL2     0.900000E-01   1.00800           0
     36645 MEMB     312      POPC     C316     CTL3    -0.270000       12.0110           0
     36646 MEMB     312      POPC     H16X     HAL3     0.900000E-01   1.00800           0
     36647 MEMB     312      POPC     H16Y     HAL3     0.900000E-01   1.00800           0
     36648 MEMB     312      POPC     H16Z     HAL3     0.900000E-01   1.00800           0
     36649 MEMB     313      POPE     N        NH3L    -0.300000       14.0070           0
     36650 MEMB     313      POPE     HN1      HCL      0.330000       1.00800           0
     36651 MEMB     313      POPE     HN2      HCL      0.330000       1.00800           0
     36652 MEMB     313      POPE     HN3      HCL      0.330000       1.00800           0
     36653 MEMB     313      POPE     C12      CTL2     0.130000       12.0110           0
     36654 MEMB     313      POPE     H12A     HAL2     0.900000E-01   1.00800           0
     36655 MEMB     313      POPE     H12B     HAL2     0.900000E-01   1.00800           0
     36656 MEMB     313      POPE     C11      CTL2    -0.800000E-01   12.0110           0
     36657 MEMB     313      POPE     H11A     HAL2     0.900000E-01   1.00800           0
     36658 MEMB     313      POPE     H11B     HAL2     0.900000E-01   1.00800           0
     36659 MEMB     313      POPE     P        PL        1.50000       30.9740           0
     36660 MEMB     313      POPE     O13      O2L     -0.780000       15.9994           0
     36661 MEMB     313      POPE     O14      O2L     -0.780000       15.9994           0
     36662 MEMB     313      POPE     O11      OSLP    -0.570000       15.9994           0
     36663 MEMB     313      POPE     O12      OSLP    -0.570000       15.9994           0
     36664 MEMB     313      POPE     C1       CTL2    -0.800000E-01   12.0110           0
     36665 MEMB     313      POPE     HA       HAL2     0.900000E-01   1.00800           0
     36666 MEMB     313      POPE     HB       HAL2     0.900000E-01   1.00800           0
     36667 MEMB     313      POPE     C2       CTL1     0.170000       12.0110           0
     36668 MEMB     313      POPE     HS       HAL1     0.900000E-01   1.00800           0
     36669 MEMB     313      POPE     O21      OSL     -0.490000       15.9994           0
     36670 MEMB     313      POPE     C21      CL       0.900000       12.0110           0
     36671 MEMB     313      POPE     O22      OBL     -0.630000       15.9994           0
     36672 MEMB     313      POPE     C22      CTL2    -0.220000       12.0110           0
     36673 MEMB     313      POPE     H2R      HAL2     0.900000E-01   1.00800           0
     36674 MEMB     313      POPE     H2S      HAL2     0.900000E-01   1.00800           0
     36675 MEMB     313      POPE     C3       CTL2     0.800000E-01   12.0110           0
     36676 MEMB     313      POPE     HX       HAL2     0.900000E-01   1.00800           0
     36677 MEMB     313      POPE     HY       HAL2     0.900000E-01   1.00800           0
     36678 MEMB     313      POPE     O31      OSL     -0.490000       15.9994           0
     36679 MEMB     313      POPE     C31      CL       0.900000       12.0110           0
     36680 MEMB     313      POPE     O32      OBL     -0.630000       15.9994           0
     36681 MEMB     313      POPE     C32      CTL2    -0.220000       12.0110           0
     36682 MEMB     313      POPE     H2X      HAL2     0.900000E-01   1.00800           0
     36683 MEMB     313      POPE     H2Y      HAL2     0.900000E-01   1.00800           0
     36684 MEMB     313      POPE     C23      CTL2    -0.180000       12.0110           0
     36685 MEMB     313      POPE     H3R      HAL2     0.900000E-01   1.00800           0
     36686 MEMB     313      POPE     H3S      HAL2     0.900000E-01   1.00800           0
     36687 MEMB     313      POPE     C24      CTL2    -0.180000       12.0110           0
     36688 MEMB     313      POPE     H4R      HAL2     0.900000E-01   1.00800           0
     36689 MEMB     313      POPE     H4S      HAL2     0.900000E-01   1.00800           0
     36690 MEMB     313      POPE     C25      CTL2    -0.180000       12.0110           0
     36691 MEMB     313      POPE     H5R      HAL2     0.900000E-01   1.00800           0
     36692 MEMB     313      POPE     H5S      HAL2     0.900000E-01   1.00800           0
     36693 MEMB     313      POPE     C26      CTL2    -0.180000       12.0110           0
     36694 MEMB     313      POPE     H6R      HAL2     0.900000E-01   1.00800           0
     36695 MEMB     313      POPE     H6S      HAL2     0.900000E-01   1.00800           0
     36696 MEMB     313      POPE     C27      CTL2    -0.180000       12.0110           0
     36697 MEMB     313      POPE     H7R      HAL2     0.900000E-01   1.00800           0
     36698 MEMB     313      POPE     H7S      HAL2     0.900000E-01   1.00800           0
     36699 MEMB     313      POPE     C28      CTL2    -0.180000       12.0110           0
     36700 MEMB     313      POPE     H8R      HAL2     0.900000E-01   1.00800           0
     36701 MEMB     313      POPE     H8S      HAL2     0.900000E-01   1.00800           0
     36702 MEMB     313      POPE     C29      CEL1    -0.150000       12.0110           0
     36703 MEMB     313      POPE     H91      HEL1     0.150000       1.00800           0
     36704 MEMB     313      POPE     C210     CEL1    -0.150000       12.0110           0
     36705 MEMB     313      POPE     H101     HEL1     0.150000       1.00800           0
     36706 MEMB     313      POPE     C211     CTL2    -0.180000       12.0110           0
     36707 MEMB     313      POPE     H11R     HAL2     0.900000E-01   1.00800           0
     36708 MEMB     313      POPE     H11S     HAL2     0.900000E-01   1.00800           0
     36709 MEMB     313      POPE     C212     CTL2    -0.180000       12.0110           0
     36710 MEMB     313      POPE     H12R     HAL2     0.900000E-01   1.00800           0
     36711 MEMB     313      POPE     H12S     HAL2     0.900000E-01   1.00800           0
     36712 MEMB     313      POPE     C213     CTL2    -0.180000       12.0110           0
     36713 MEMB     313      POPE     H13R     HAL2     0.900000E-01   1.00800           0
     36714 MEMB     313      POPE     H13S     HAL2     0.900000E-01   1.00800           0
     36715 MEMB     313      POPE     C214     CTL2    -0.180000       12.0110           0
     36716 MEMB     313      POPE     H14R     HAL2     0.900000E-01   1.00800           0
     36717 MEMB     313      POPE     H14S     HAL2     0.900000E-01   1.00800           0
     36718 MEMB     313      POPE     C215     CTL2    -0.180000       12.0110           0
     36719 MEMB     313      POPE     H15R     HAL2     0.900000E-01   1.00800           0
     36720 MEMB     313      POPE     H15S     HAL2     0.900000E-01   1.00800           0
     36721 MEMB     313      POPE     C216     CTL2    -0.180000       12.0110           0
     36722 MEMB     313      POPE     H16R     HAL2     0.900000E-01   1.00800           0
     36723 MEMB     313      POPE     H16S     HAL2     0.900000E-01   1.00800           0
     36724 MEMB     313      POPE     C217     CTL2    -0.180000       12.0110           0
     36725 MEMB     313      POPE     H17R     HAL2     0.900000E-01   1.00800           0
     36726 MEMB     313      POPE     H17S     HAL2     0.900000E-01   1.00800           0
     36727 MEMB     313      POPE     C218     CTL3    -0.270000       12.0110           0
     36728 MEMB     313      POPE     H18R     HAL3     0.900000E-01   1.00800           0
     36729 MEMB     313      POPE     H18S     HAL3     0.900000E-01   1.00800           0
     36730 MEMB     313      POPE     H18T     HAL3     0.900000E-01   1.00800           0
     36731 MEMB     313      POPE     C33      CTL2    -0.180000       12.0110           0
     36732 MEMB     313      POPE     H3X      HAL2     0.900000E-01   1.00800           0
     36733 MEMB     313      POPE     H3Y      HAL2     0.900000E-01   1.00800           0
     36734 MEMB     313      POPE     C34      CTL2    -0.180000       12.0110           0
     36735 MEMB     313      POPE     H4X      HAL2     0.900000E-01   1.00800           0
     36736 MEMB     313      POPE     H4Y      HAL2     0.900000E-01   1.00800           0
     36737 MEMB     313      POPE     C35      CTL2    -0.180000       12.0110           0
     36738 MEMB     313      POPE     H5X      HAL2     0.900000E-01   1.00800           0
     36739 MEMB     313      POPE     H5Y      HAL2     0.900000E-01   1.00800           0
     36740 MEMB     313      POPE     C36      CTL2    -0.180000       12.0110           0
     36741 MEMB     313      POPE     H6X      HAL2     0.900000E-01   1.00800           0
     36742 MEMB     313      POPE     H6Y      HAL2     0.900000E-01   1.00800           0
     36743 MEMB     313      POPE     C37      CTL2    -0.180000       12.0110           0
     36744 MEMB     313      POPE     H7X      HAL2     0.900000E-01   1.00800           0
     36745 MEMB     313      POPE     H7Y      HAL2     0.900000E-01   1.00800           0
     36746 MEMB     313      POPE     C38      CTL2    -0.180000       12.0110           0
     36747 MEMB     313      POPE     H8X      HAL2     0.900000E-01   1.00800           0
     36748 MEMB     313      POPE     H8Y      HAL2     0.900000E-01   1.00800           0
     36749 MEMB     313      POPE     C39      CTL2    -0.180000       12.0110           0
     36750 MEMB     313      POPE     H9X      HAL2     0.900000E-01   1.00800           0
     36751 MEMB     313      POPE     H9Y      HAL2     0.900000E-01   1.00800           0
     36752 MEMB     313      POPE     C310     CTL2    -0.180000       12.0110           0
     36753 MEMB     313      POPE     H10X     HAL2     0.900000E-01   1.00800           0
     36754 MEMB     313      POPE     H10Y     HAL2     0.900000E-01   1.00800           0
     36755 MEMB     313      POPE     C311     CTL2    -0.180000       12.0110           0
     36756 MEMB     313      POPE     H11X     HAL2     0.900000E-01   1.00800           0
     36757 MEMB     313      POPE     H11Y     HAL2     0.900000E-01   1.00800           0
     36758 MEMB     313      POPE     C312     CTL2    -0.180000       12.0110           0
     36759 MEMB     313      POPE     H12X     HAL2     0.900000E-01   1.00800           0
     36760 MEMB     313      POPE     H12Y     HAL2     0.900000E-01   1.00800           0
     36761 MEMB     313      POPE     C313     CTL2    -0.180000       12.0110           0
     36762 MEMB     313      POPE     H13X     HAL2     0.900000E-01   1.00800           0
     36763 MEMB     313      POPE     H13Y     HAL2     0.900000E-01   1.00800           0
     36764 MEMB     313      POPE     C314     CTL2    -0.180000       12.0110           0
     36765 MEMB     313      POPE     H14X     HAL2     0.900000E-01   1.00800           0
     36766 MEMB     313      POPE     H14Y     HAL2     0.900000E-01   1.00800           0
     36767 MEMB     313      POPE     C315     CTL2    -0.180000       12.0110           0
     36768 MEMB     313      POPE     H15X     HAL2     0.900000E-01   1.00800           0
     36769 MEMB     313      POPE     H15Y     HAL2     0.900000E-01   1.00800           0
     36770 MEMB     313      POPE     C316     CTL3    -0.270000       12.0110           0
     36771 MEMB     313      POPE     H16X     HAL3     0.900000E-01   1.00800           0
     36772 MEMB     313      POPE     H16Y     HAL3     0.900000E-01   1.00800           0
     36773 MEMB     313      POPE     H16Z     HAL3     0.900000E-01   1.00800           0
     36774 MEMB     314      POPE     N        NH3L    -0.300000       14.0070           0
     36775 MEMB     314      POPE     HN1      HCL      0.330000       1.00800           0
     36776 MEMB     314      POPE     HN2      HCL      0.330000       1.00800           0
     36777 MEMB     314      POPE     HN3      HCL      0.330000       1.00800           0
     36778 MEMB     314      POPE     C12      CTL2     0.130000       12.0110           0
     36779 MEMB     314      POPE     H12A     HAL2     0.900000E-01   1.00800           0
     36780 MEMB     314      POPE     H12B     HAL2     0.900000E-01   1.00800           0
     36781 MEMB     314      POPE     C11      CTL2    -0.800000E-01   12.0110           0
     36782 MEMB     314      POPE     H11A     HAL2     0.900000E-01   1.00800           0
     36783 MEMB     314      POPE     H11B     HAL2     0.900000E-01   1.00800           0
     36784 MEMB     314      POPE     P        PL        1.50000       30.9740           0
     36785 MEMB     314      POPE     O13      O2L     -0.780000       15.9994           0
     36786 MEMB     314      POPE     O14      O2L     -0.780000       15.9994           0
     36787 MEMB     314      POPE     O11      OSLP    -0.570000       15.9994           0
     36788 MEMB     314      POPE     O12      OSLP    -0.570000       15.9994           0
     36789 MEMB     314      POPE     C1       CTL2    -0.800000E-01   12.0110           0
     36790 MEMB     314      POPE     HA       HAL2     0.900000E-01   1.00800           0
     36791 MEMB     314      POPE     HB       HAL2     0.900000E-01   1.00800           0
     36792 MEMB     314      POPE     C2       CTL1     0.170000       12.0110           0
     36793 MEMB     314      POPE     HS       HAL1     0.900000E-01   1.00800           0
     36794 MEMB     314      POPE     O21      OSL     -0.490000       15.9994           0
     36795 MEMB     314      POPE     C21      CL       0.900000       12.0110           0
     36796 MEMB     314      POPE     O22      OBL     -0.630000       15.9994           0
     36797 MEMB     314      POPE     C22      CTL2    -0.220000       12.0110           0
     36798 MEMB     314      POPE     H2R      HAL2     0.900000E-01   1.00800           0
     36799 MEMB     314      POPE     H2S      HAL2     0.900000E-01   1.00800           0
     36800 MEMB     314      POPE     C3       CTL2     0.800000E-01   12.0110           0
     36801 MEMB     314      POPE     HX       HAL2     0.900000E-01   1.00800           0
     36802 MEMB     314      POPE     HY       HAL2     0.900000E-01   1.00800           0
     36803 MEMB     314      POPE     O31      OSL     -0.490000       15.9994           0
     36804 MEMB     314      POPE     C31      CL       0.900000       12.0110           0
     36805 MEMB     314      POPE     O32      OBL     -0.630000       15.9994           0
     36806 MEMB     314      POPE     C32      CTL2    -0.220000       12.0110           0
     36807 MEMB     314      POPE     H2X      HAL2     0.900000E-01   1.00800           0
     36808 MEMB     314      POPE     H2Y      HAL2     0.900000E-01   1.00800           0
     36809 MEMB     314      POPE     C23      CTL2    -0.180000       12.0110           0
     36810 MEMB     314      POPE     H3R      HAL2     0.900000E-01   1.00800           0
     36811 MEMB     314      POPE     H3S      HAL2     0.900000E-01   1.00800           0
     36812 MEMB     314      POPE     C24      CTL2    -0.180000       12.0110           0
     36813 MEMB     314      POPE     H4R      HAL2     0.900000E-01   1.00800           0
     36814 MEMB     314      POPE     H4S      HAL2     0.900000E-01   1.00800           0
     36815 MEMB     314      POPE     C25      CTL2    -0.180000       12.0110           0
     36816 MEMB     314      POPE     H5R      HAL2     0.900000E-01   1.00800           0
     36817 MEMB     314      POPE     H5S      HAL2     0.900000E-01   1.00800           0
     36818 MEMB     314      POPE     C26      CTL2    -0.180000       12.0110           0
     36819 MEMB     314      POPE     H6R      HAL2     0.900000E-01   1.00800           0
     36820 MEMB     314      POPE     H6S      HAL2     0.900000E-01   1.00800           0
     36821 MEMB     314      POPE     C27      CTL2    -0.180000       12.0110           0
     36822 MEMB     314      POPE     H7R      HAL2     0.900000E-01   1.00800           0
     36823 MEMB     314      POPE     H7S      HAL2     0.900000E-01   1.00800           0
     36824 MEMB     314      POPE     C28      CTL2    -0.180000       12.0110           0
     36825 MEMB     314      POPE     H8R      HAL2     0.900000E-01   1.00800           0
     36826 MEMB     314      POPE     H8S      HAL2     0.900000E-01   1.00800           0
     36827 MEMB     314      POPE     C29      CEL1    -0.150000       12.0110           0
     36828 MEMB     314      POPE     H91      HEL1     0.150000       1.00800           0
     36829 MEMB     314      POPE     C210     CEL1    -0.150000       12.0110           0
     36830 MEMB     314      POPE     H101     HEL1     0.150000       1.00800           0
     36831 MEMB     314      POPE     C211     CTL2    -0.180000       12.0110           0
     36832 MEMB     314      POPE     H11R     HAL2     0.900000E-01   1.00800           0
     36833 MEMB     314      POPE     H11S     HAL2     0.900000E-01   1.00800           0
     36834 MEMB     314      POPE     C212     CTL2    -0.180000       12.0110           0
     36835 MEMB     314      POPE     H12R     HAL2     0.900000E-01   1.00800           0
     36836 MEMB     314      POPE     H12S     HAL2     0.900000E-01   1.00800           0
     36837 MEMB     314      POPE     C213     CTL2    -0.180000       12.0110           0
     36838 MEMB     314      POPE     H13R     HAL2     0.900000E-01   1.00800           0
     36839 MEMB     314      POPE     H13S     HAL2     0.900000E-01   1.00800           0
     36840 MEMB     314      POPE     C214     CTL2    -0.180000       12.0110           0
     36841 MEMB     314      POPE     H14R     HAL2     0.900000E-01   1.00800           0
     36842 MEMB     314      POPE     H14S     HAL2     0.900000E-01   1.00800           0
     36843 MEMB     314      POPE     C215     CTL2    -0.180000       12.0110           0
     36844 MEMB     314      POPE     H15R     HAL2     0.900000E-01   1.00800           0
     36845 MEMB     314      POPE     H15S     HAL2     0.900000E-01   1.00800           0
     36846 MEMB     314      POPE     C216     CTL2    -0.180000       12.0110           0
     36847 MEMB     314      POPE     H16R     HAL2     0.900000E-01   1.00800           0
     36848 MEMB     314      POPE     H16S     HAL2     0.900000E-01   1.00800           0
     36849 MEMB     314      POPE     C217     CTL2    -0.180000       12.0110           0
     36850 MEMB     314      POPE     H17R     HAL2     0.900000E-01   1.00800           0
     36851 MEMB     314      POPE     H17S     HAL2     0.900000E-01   1.00800           0
     36852 MEMB     314      POPE     C218     CTL3    -0.270000       12.0110           0
     36853 MEMB     314      POPE     H18R     HAL3     0.900000E-01   1.00800           0
     36854 MEMB     314      POPE     H18S     HAL3     0.900000E-01   1.00800           0
     36855 MEMB     314      POPE     H18T     HAL3     0.900000E-01   1.00800           0
     36856 MEMB     314      POPE     C33      CTL2    -0.180000       12.0110           0
     36857 MEMB     314      POPE     H3X      HAL2     0.900000E-01   1.00800           0
     36858 MEMB     314      POPE     H3Y      HAL2     0.900000E-01   1.00800           0
     36859 MEMB     314      POPE     C34      CTL2    -0.180000       12.0110           0
     36860 MEMB     314      POPE     H4X      HAL2     0.900000E-01   1.00800           0
     36861 MEMB     314      POPE     H4Y      HAL2     0.900000E-01   1.00800           0
     36862 MEMB     314      POPE     C35      CTL2    -0.180000       12.0110           0
     36863 MEMB     314      POPE     H5X      HAL2     0.900000E-01   1.00800           0
     36864 MEMB     314      POPE     H5Y      HAL2     0.900000E-01   1.00800           0
     36865 MEMB     314      POPE     C36      CTL2    -0.180000       12.0110           0
     36866 MEMB     314      POPE     H6X      HAL2     0.900000E-01   1.00800           0
     36867 MEMB     314      POPE     H6Y      HAL2     0.900000E-01   1.00800           0
     36868 MEMB     314      POPE     C37      CTL2    -0.180000       12.0110           0
     36869 MEMB     314      POPE     H7X      HAL2     0.900000E-01   1.00800           0
     36870 MEMB     314      POPE     H7Y      HAL2     0.900000E-01   1.00800           0
     36871 MEMB     314      POPE     C38      CTL2    -0.180000       12.0110           0
     36872 MEMB     314      POPE     H8X      HAL2     0.900000E-01   1.00800           0
     36873 MEMB     314      POPE     H8Y      HAL2     0.900000E-01   1.00800           0
     36874 MEMB     314      POPE     C39      CTL2    -0.180000       12.0110           0
     36875 MEMB     314      POPE     H9X      HAL2     0.900000E-01   1.00800           0
     36876 MEMB     314      POPE     H9Y      HAL2     0.900000E-01   1.00800           0
     36877 MEMB     314      POPE     C310     CTL2    -0.180000       12.0110           0
     36878 MEMB     314      POPE     H10X     HAL2     0.900000E-01   1.00800           0
     36879 MEMB     314      POPE     H10Y     HAL2     0.900000E-01   1.00800           0
     36880 MEMB     314      POPE     C311     CTL2    -0.180000       12.0110           0
     36881 MEMB     314      POPE     H11X     HAL2     0.900000E-01   1.00800           0
     36882 MEMB     314      POPE     H11Y     HAL2     0.900000E-01   1.00800           0
     36883 MEMB     314      POPE     C312     CTL2    -0.180000       12.0110           0
     36884 MEMB     314      POPE     H12X     HAL2     0.900000E-01   1.00800           0
     36885 MEMB     314      POPE     H12Y     HAL2     0.900000E-01   1.00800           0
     36886 MEMB     314      POPE     C313     CTL2    -0.180000       12.0110           0
     36887 MEMB     314      POPE     H13X     HAL2     0.900000E-01   1.00800           0
     36888 MEMB     314      POPE     H13Y     HAL2     0.900000E-01   1.00800           0
     36889 MEMB     314      POPE     C314     CTL2    -0.180000       12.0110           0
     36890 MEMB     314      POPE     H14X     HAL2     0.900000E-01   1.00800           0
     36891 MEMB     314      POPE     H14Y     HAL2     0.900000E-01   1.00800           0
     36892 MEMB     314      POPE     C315     CTL2    -0.180000       12.0110           0
     36893 MEMB     314      POPE     H15X     HAL2     0.900000E-01   1.00800           0
     36894 MEMB     314      POPE     H15Y     HAL2     0.900000E-01   1.00800           0
     36895 MEMB     314      POPE     C316     CTL3    -0.270000       12.0110           0
     36896 MEMB     314      POPE     H16X     HAL3     0.900000E-01   1.00800           0
     36897 MEMB     314      POPE     H16Y     HAL3     0.900000E-01   1.00800           0
     36898 MEMB     314      POPE     H16Z     HAL3     0.900000E-01   1.00800           0
     36899 MEMB     315      POPE     N        NH3L    -0.300000       14.0070           0
     36900 MEMB     315      POPE     HN1      HCL      0.330000       1.00800           0
     36901 MEMB     315      POPE     HN2      HCL      0.330000       1.00800           0
     36902 MEMB     315      POPE     HN3      HCL      0.330000       1.00800           0
     36903 MEMB     315      POPE     C12      CTL2     0.130000       12.0110           0
     36904 MEMB     315      POPE     H12A     HAL2     0.900000E-01   1.00800           0
     36905 MEMB     315      POPE     H12B     HAL2     0.900000E-01   1.00800           0
     36906 MEMB     315      POPE     C11      CTL2    -0.800000E-01   12.0110           0
     36907 MEMB     315      POPE     H11A     HAL2     0.900000E-01   1.00800           0
     36908 MEMB     315      POPE     H11B     HAL2     0.900000E-01   1.00800           0
     36909 MEMB     315      POPE     P        PL        1.50000       30.9740           0
     36910 MEMB     315      POPE     O13      O2L     -0.780000       15.9994           0
     36911 MEMB     315      POPE     O14      O2L     -0.780000       15.9994           0
     36912 MEMB     315      POPE     O11      OSLP    -0.570000       15.9994           0
     36913 MEMB     315      POPE     O12      OSLP    -0.570000       15.9994           0
     36914 MEMB     315      POPE     C1       CTL2    -0.800000E-01   12.0110           0
     36915 MEMB     315      POPE     HA       HAL2     0.900000E-01   1.00800           0
     36916 MEMB     315      POPE     HB       HAL2     0.900000E-01   1.00800           0
     36917 MEMB     315      POPE     C2       CTL1     0.170000       12.0110           0
     36918 MEMB     315      POPE     HS       HAL1     0.900000E-01   1.00800           0
     36919 MEMB     315      POPE     O21      OSL     -0.490000       15.9994           0
     36920 MEMB     315      POPE     C21      CL       0.900000       12.0110           0
     36921 MEMB     315      POPE     O22      OBL     -0.630000       15.9994           0
     36922 MEMB     315      POPE     C22      CTL2    -0.220000       12.0110           0
     36923 MEMB     315      POPE     H2R      HAL2     0.900000E-01   1.00800           0
     36924 MEMB     315      POPE     H2S      HAL2     0.900000E-01   1.00800           0
     36925 MEMB     315      POPE     C3       CTL2     0.800000E-01   12.0110           0
     36926 MEMB     315      POPE     HX       HAL2     0.900000E-01   1.00800           0
     36927 MEMB     315      POPE     HY       HAL2     0.900000E-01   1.00800           0
     36928 MEMB     315      POPE     O31      OSL     -0.490000       15.9994           0
     36929 MEMB     315      POPE     C31      CL       0.900000       12.0110           0
     36930 MEMB     315      POPE     O32      OBL     -0.630000       15.9994           0
     36931 MEMB     315      POPE     C32      CTL2    -0.220000       12.0110           0
     36932 MEMB     315      POPE     H2X      HAL2     0.900000E-01   1.00800           0
     36933 MEMB     315      POPE     H2Y      HAL2     0.900000E-01   1.00800           0
     36934 MEMB     315      POPE     C23      CTL2    -0.180000       12.0110           0
     36935 MEMB     315      POPE     H3R      HAL2     0.900000E-01   1.00800           0
     36936 MEMB     315      POPE     H3S      HAL2     0.900000E-01   1.00800           0
     36937 MEMB     315      POPE     C24      CTL2    -0.180000       12.0110           0
     36938 MEMB     315      POPE     H4R      HAL2     0.900000E-01   1.00800           0
     36939 MEMB     315      POPE     H4S      HAL2     0.900000E-01   1.00800           0
     36940 MEMB     315      POPE     C25      CTL2    -0.180000       12.0110           0
     36941 MEMB     315      POPE     H5R      HAL2     0.900000E-01   1.00800           0
     36942 MEMB     315      POPE     H5S      HAL2     0.900000E-01   1.00800           0
     36943 MEMB     315      POPE     C26      CTL2    -0.180000       12.0110           0
     36944 MEMB     315      POPE     H6R      HAL2     0.900000E-01   1.00800           0
     36945 MEMB     315      POPE     H6S      HAL2     0.900000E-01   1.00800           0
     36946 MEMB     315      POPE     C27      CTL2    -0.180000       12.0110           0
     36947 MEMB     315      POPE     H7R      HAL2     0.900000E-01   1.00800           0
     36948 MEMB     315      POPE     H7S      HAL2     0.900000E-01   1.00800           0
     36949 MEMB     315      POPE     C28      CTL2    -0.180000       12.0110           0
     36950 MEMB     315      POPE     H8R      HAL2     0.900000E-01   1.00800           0
     36951 MEMB     315      POPE     H8S      HAL2     0.900000E-01   1.00800           0
     36952 MEMB     315      POPE     C29      CEL1    -0.150000       12.0110           0
     36953 MEMB     315      POPE     H91      HEL1     0.150000       1.00800           0
     36954 MEMB     315      POPE     C210     CEL1    -0.150000       12.0110           0
     36955 MEMB     315      POPE     H101     HEL1     0.150000       1.00800           0
     36956 MEMB     315      POPE     C211     CTL2    -0.180000       12.0110           0
     36957 MEMB     315      POPE     H11R     HAL2     0.900000E-01   1.00800           0
     36958 MEMB     315      POPE     H11S     HAL2     0.900000E-01   1.00800           0
     36959 MEMB     315      POPE     C212     CTL2    -0.180000       12.0110           0
     36960 MEMB     315      POPE     H12R     HAL2     0.900000E-01   1.00800           0
     36961 MEMB     315      POPE     H12S     HAL2     0.900000E-01   1.00800           0
     36962 MEMB     315      POPE     C213     CTL2    -0.180000       12.0110           0
     36963 MEMB     315      POPE     H13R     HAL2     0.900000E-01   1.00800           0
     36964 MEMB     315      POPE     H13S     HAL2     0.900000E-01   1.00800           0
     36965 MEMB     315      POPE     C214     CTL2    -0.180000       12.0110           0
     36966 MEMB     315      POPE     H14R     HAL2     0.900000E-01   1.00800           0
     36967 MEMB     315      POPE     H14S     HAL2     0.900000E-01   1.00800           0
     36968 MEMB     315      POPE     C215     CTL2    -0.180000       12.0110           0
     36969 MEMB     315      POPE     H15R     HAL2     0.900000E-01   1.00800           0
     36970 MEMB     315      POPE     H15S     HAL2     0.900000E-01   1.00800           0
     36971 MEMB     315      POPE     C216     CTL2    -0.180000       12.0110           0
     36972 MEMB     315      POPE     H16R     HAL2     0.900000E-01   1.00800           0
     36973 MEMB     315      POPE     H16S     HAL2     0.900000E-01   1.00800           0
     36974 MEMB     315      POPE     C217     CTL2    -0.180000       12.0110           0
     36975 MEMB     315      POPE     H17R     HAL2     0.900000E-01   1.00800           0
     36976 MEMB     315      POPE     H17S     HAL2     0.900000E-01   1.00800           0
     36977 MEMB     315      POPE     C218     CTL3    -0.270000       12.0110           0
     36978 MEMB     315      POPE     H18R     HAL3     0.900000E-01   1.00800           0
     36979 MEMB     315      POPE     H18S     HAL3     0.900000E-01   1.00800           0
     36980 MEMB     315      POPE     H18T     HAL3     0.900000E-01   1.00800           0
     36981 MEMB     315      POPE     C33      CTL2    -0.180000       12.0110           0
     36982 MEMB     315      POPE     H3X      HAL2     0.900000E-01   1.00800           0
     36983 MEMB     315      POPE     H3Y      HAL2     0.900000E-01   1.00800           0
     36984 MEMB     315      POPE     C34      CTL2    -0.180000       12.0110           0
     36985 MEMB     315      POPE     H4X      HAL2     0.900000E-01   1.00800           0
     36986 MEMB     315      POPE     H4Y      HAL2     0.900000E-01   1.00800           0
     36987 MEMB     315      POPE     C35      CTL2    -0.180000       12.0110           0
     36988 MEMB     315      POPE     H5X      HAL2     0.900000E-01   1.00800           0
     36989 MEMB     315      POPE     H5Y      HAL2     0.900000E-01   1.00800           0
     36990 MEMB     315      POPE     C36      CTL2    -0.180000       12.0110           0
     36991 MEMB     315      POPE     H6X      HAL2     0.900000E-01   1.00800           0
     36992 MEMB     315      POPE     H6Y      HAL2     0.900000E-01   1.00800           0
     36993 MEMB     315      POPE     C37      CTL2    -0.180000       12.0110           0
     36994 MEMB     315      POPE     H7X      HAL2     0.900000E-01   1.00800           0
     36995 MEMB     315      POPE     H7Y      HAL2     0.900000E-01   1.00800           0
     36996 MEMB     315      POPE     C38      CTL2    -0.180000       12.0110           0
     36997 MEMB     315      POPE     H8X      HAL2     0.900000E-01   1.00800           0
     36998 MEMB     315      POPE     H8Y      HAL2     0.900000E-01   1.00800           0
     36999 MEMB     315      POPE     C39      CTL2    -0.180000       12.0110           0
     37000 MEMB     315      POPE     H9X      HAL2     0.900000E-01   1.00800           0
     37001 MEMB     315      POPE     H9Y      HAL2     0.900000E-01   1.00800           0
     37002 MEMB     315      POPE     C310     CTL2    -0.180000       12.0110           0
     37003 MEMB     315      POPE     H10X     HAL2     0.900000E-01   1.00800           0
     37004 MEMB     315      POPE     H10Y     HAL2     0.900000E-01   1.00800           0
     37005 MEMB     315      POPE     C311     CTL2    -0.180000       12.0110           0
     37006 MEMB     315      POPE     H11X     HAL2     0.900000E-01   1.00800           0
     37007 MEMB     315      POPE     H11Y     HAL2     0.900000E-01   1.00800           0
     37008 MEMB     315      POPE     C312     CTL2    -0.180000       12.0110           0
     37009 MEMB     315      POPE     H12X     HAL2     0.900000E-01   1.00800           0
     37010 MEMB     315      POPE     H12Y     HAL2     0.900000E-01   1.00800           0
     37011 MEMB     315      POPE     C313     CTL2    -0.180000       12.0110           0
     37012 MEMB     315      POPE     H13X     HAL2     0.900000E-01   1.00800           0
     37013 MEMB     315      POPE     H13Y     HAL2     0.900000E-01   1.00800           0
     37014 MEMB     315      POPE     C314     CTL2    -0.180000       12.0110           0
     37015 MEMB     315      POPE     H14X     HAL2     0.900000E-01   1.00800           0
     37016 MEMB     315      POPE     H14Y     HAL2     0.900000E-01   1.00800           0
     37017 MEMB     315      POPE     C315     CTL2    -0.180000       12.0110           0
     37018 MEMB     315      POPE     H15X     HAL2     0.900000E-01   1.00800           0
     37019 MEMB     315      POPE     H15Y     HAL2     0.900000E-01   1.00800           0
     37020 MEMB     315      POPE     C316     CTL3    -0.270000       12.0110           0
     37021 MEMB     315      POPE     H16X     HAL3     0.900000E-01   1.00800           0
     37022 MEMB     315      POPE     H16Y     HAL3     0.900000E-01   1.00800           0
     37023 MEMB     315      POPE     H16Z     HAL3     0.900000E-01   1.00800           0
     37024 MEMB     316      POPE     N        NH3L    -0.300000       14.0070           0
     37025 MEMB     316      POPE     HN1      HCL      0.330000       1.00800           0
     37026 MEMB     316      POPE     HN2      HCL      0.330000       1.00800           0
     37027 MEMB     316      POPE     HN3      HCL      0.330000       1.00800           0
     37028 MEMB     316      POPE     C12      CTL2     0.130000       12.0110           0
     37029 MEMB     316      POPE     H12A     HAL2     0.900000E-01   1.00800           0
     37030 MEMB     316      POPE     H12B     HAL2     0.900000E-01   1.00800           0
     37031 MEMB     316      POPE     C11      CTL2    -0.800000E-01   12.0110           0
     37032 MEMB     316      POPE     H11A     HAL2     0.900000E-01   1.00800           0
     37033 MEMB     316      POPE     H11B     HAL2     0.900000E-01   1.00800           0
     37034 MEMB     316      POPE     P        PL        1.50000       30.9740           0
     37035 MEMB     316      POPE     O13      O2L     -0.780000       15.9994           0
     37036 MEMB     316      POPE     O14      O2L     -0.780000       15.9994           0
     37037 MEMB     316      POPE     O11      OSLP    -0.570000       15.9994           0
     37038 MEMB     316      POPE     O12      OSLP    -0.570000       15.9994           0
     37039 MEMB     316      POPE     C1       CTL2    -0.800000E-01   12.0110           0
     37040 MEMB     316      POPE     HA       HAL2     0.900000E-01   1.00800           0
     37041 MEMB     316      POPE     HB       HAL2     0.900000E-01   1.00800           0
     37042 MEMB     316      POPE     C2       CTL1     0.170000       12.0110           0
     37043 MEMB     316      POPE     HS       HAL1     0.900000E-01   1.00800           0
     37044 MEMB     316      POPE     O21      OSL     -0.490000       15.9994           0
     37045 MEMB     316      POPE     C21      CL       0.900000       12.0110           0
     37046 MEMB     316      POPE     O22      OBL     -0.630000       15.9994           0
     37047 MEMB     316      POPE     C22      CTL2    -0.220000       12.0110           0
     37048 MEMB     316      POPE     H2R      HAL2     0.900000E-01   1.00800           0
     37049 MEMB     316      POPE     H2S      HAL2     0.900000E-01   1.00800           0
     37050 MEMB     316      POPE     C3       CTL2     0.800000E-01   12.0110           0
     37051 MEMB     316      POPE     HX       HAL2     0.900000E-01   1.00800           0
     37052 MEMB     316      POPE     HY       HAL2     0.900000E-01   1.00800           0
     37053 MEMB     316      POPE     O31      OSL     -0.490000       15.9994           0
     37054 MEMB     316      POPE     C31      CL       0.900000       12.0110           0
     37055 MEMB     316      POPE     O32      OBL     -0.630000       15.9994           0
     37056 MEMB     316      POPE     C32      CTL2    -0.220000       12.0110           0
     37057 MEMB     316      POPE     H2X      HAL2     0.900000E-01   1.00800           0
     37058 MEMB     316      POPE     H2Y      HAL2     0.900000E-01   1.00800           0
     37059 MEMB     316      POPE     C23      CTL2    -0.180000       12.0110           0
     37060 MEMB     316      POPE     H3R      HAL2     0.900000E-01   1.00800           0
     37061 MEMB     316      POPE     H3S      HAL2     0.900000E-01   1.00800           0
     37062 MEMB     316      POPE     C24      CTL2    -0.180000       12.0110           0
     37063 MEMB     316      POPE     H4R      HAL2     0.900000E-01   1.00800           0
     37064 MEMB     316      POPE     H4S      HAL2     0.900000E-01   1.00800           0
     37065 MEMB     316      POPE     C25      CTL2    -0.180000       12.0110           0
     37066 MEMB     316      POPE     H5R      HAL2     0.900000E-01   1.00800           0
     37067 MEMB     316      POPE     H5S      HAL2     0.900000E-01   1.00800           0
     37068 MEMB     316      POPE     C26      CTL2    -0.180000       12.0110           0
     37069 MEMB     316      POPE     H6R      HAL2     0.900000E-01   1.00800           0
     37070 MEMB     316      POPE     H6S      HAL2     0.900000E-01   1.00800           0
     37071 MEMB     316      POPE     C27      CTL2    -0.180000       12.0110           0
     37072 MEMB     316      POPE     H7R      HAL2     0.900000E-01   1.00800           0
     37073 MEMB     316      POPE     H7S      HAL2     0.900000E-01   1.00800           0
     37074 MEMB     316      POPE     C28      CTL2    -0.180000       12.0110           0
     37075 MEMB     316      POPE     H8R      HAL2     0.900000E-01   1.00800           0
     37076 MEMB     316      POPE     H8S      HAL2     0.900000E-01   1.00800           0
     37077 MEMB     316      POPE     C29      CEL1    -0.150000       12.0110           0
     37078 MEMB     316      POPE     H91      HEL1     0.150000       1.00800           0
     37079 MEMB     316      POPE     C210     CEL1    -0.150000       12.0110           0
     37080 MEMB     316      POPE     H101     HEL1     0.150000       1.00800           0
     37081 MEMB     316      POPE     C211     CTL2    -0.180000       12.0110           0
     37082 MEMB     316      POPE     H11R     HAL2     0.900000E-01   1.00800           0
     37083 MEMB     316      POPE     H11S     HAL2     0.900000E-01   1.00800           0
     37084 MEMB     316      POPE     C212     CTL2    -0.180000       12.0110           0
     37085 MEMB     316      POPE     H12R     HAL2     0.900000E-01   1.00800           0
     37086 MEMB     316      POPE     H12S     HAL2     0.900000E-01   1.00800           0
     37087 MEMB     316      POPE     C213     CTL2    -0.180000       12.0110           0
     37088 MEMB     316      POPE     H13R     HAL2     0.900000E-01   1.00800           0
     37089 MEMB     316      POPE     H13S     HAL2     0.900000E-01   1.00800           0
     37090 MEMB     316      POPE     C214     CTL2    -0.180000       12.0110           0
     37091 MEMB     316      POPE     H14R     HAL2     0.900000E-01   1.00800           0
     37092 MEMB     316      POPE     H14S     HAL2     0.900000E-01   1.00800           0
     37093 MEMB     316      POPE     C215     CTL2    -0.180000       12.0110           0
     37094 MEMB     316      POPE     H15R     HAL2     0.900000E-01   1.00800           0
     37095 MEMB     316      POPE     H15S     HAL2     0.900000E-01   1.00800           0
     37096 MEMB     316      POPE     C216     CTL2    -0.180000       12.0110           0
     37097 MEMB     316      POPE     H16R     HAL2     0.900000E-01   1.00800           0
     37098 MEMB     316      POPE     H16S     HAL2     0.900000E-01   1.00800           0
     37099 MEMB     316      POPE     C217     CTL2    -0.180000       12.0110           0
     37100 MEMB     316      POPE     H17R     HAL2     0.900000E-01   1.00800           0
     37101 MEMB     316      POPE     H17S     HAL2     0.900000E-01   1.00800           0
     37102 MEMB     316      POPE     C218     CTL3    -0.270000       12.0110           0
     37103 MEMB     316      POPE     H18R     HAL3     0.900000E-01   1.00800           0
     37104 MEMB     316      POPE     H18S     HAL3     0.900000E-01   1.00800           0
     37105 MEMB     316      POPE     H18T     HAL3     0.900000E-01   1.00800           0
     37106 MEMB     316      POPE     C33      CTL2    -0.180000       12.0110           0
     37107 MEMB     316      POPE     H3X      HAL2     0.900000E-01   1.00800           0
     37108 MEMB     316      POPE     H3Y      HAL2     0.900000E-01   1.00800           0
     37109 MEMB     316      POPE     C34      CTL2    -0.180000       12.0110           0
     37110 MEMB     316      POPE     H4X      HAL2     0.900000E-01   1.00800           0
     37111 MEMB     316      POPE     H4Y      HAL2     0.900000E-01   1.00800           0
     37112 MEMB     316      POPE     C35      CTL2    -0.180000       12.0110           0
     37113 MEMB     316      POPE     H5X      HAL2     0.900000E-01   1.00800           0
     37114 MEMB     316      POPE     H5Y      HAL2     0.900000E-01   1.00800           0
     37115 MEMB     316      POPE     C36      CTL2    -0.180000       12.0110           0
     37116 MEMB     316      POPE     H6X      HAL2     0.900000E-01   1.00800           0
     37117 MEMB     316      POPE     H6Y      HAL2     0.900000E-01   1.00800           0
     37118 MEMB     316      POPE     C37      CTL2    -0.180000       12.0110           0
     37119 MEMB     316      POPE     H7X      HAL2     0.900000E-01   1.00800           0
     37120 MEMB     316      POPE     H7Y      HAL2     0.900000E-01   1.00800           0
     37121 MEMB     316      POPE     C38      CTL2    -0.180000       12.0110           0
     37122 MEMB     316      POPE     H8X      HAL2     0.900000E-01   1.00800           0
     37123 MEMB     316      POPE     H8Y      HAL2     0.900000E-01   1.00800           0
     37124 MEMB     316      POPE     C39      CTL2    -0.180000       12.0110           0
     37125 MEMB     316      POPE     H9X      HAL2     0.900000E-01   1.00800           0
     37126 MEMB     316      POPE     H9Y      HAL2     0.900000E-01   1.00800           0
     37127 MEMB     316      POPE     C310     CTL2    -0.180000       12.0110           0
     37128 MEMB     316      POPE     H10X     HAL2     0.900000E-01   1.00800           0
     37129 MEMB     316      POPE     H10Y     HAL2     0.900000E-01   1.00800           0
     37130 MEMB     316      POPE     C311     CTL2    -0.180000       12.0110           0
     37131 MEMB     316      POPE     H11X     HAL2     0.900000E-01   1.00800           0
     37132 MEMB     316      POPE     H11Y     HAL2     0.900000E-01   1.00800           0
     37133 MEMB     316      POPE     C312     CTL2    -0.180000       12.0110           0
     37134 MEMB     316      POPE     H12X     HAL2     0.900000E-01   1.00800           0
     37135 MEMB     316      POPE     H12Y     HAL2     0.900000E-01   1.00800           0
     37136 MEMB     316      POPE     C313     CTL2    -0.180000       12.0110           0
     37137 MEMB     316      POPE     H13X     HAL2     0.900000E-01   1.00800           0
     37138 MEMB     316      POPE     H13Y     HAL2     0.900000E-01   1.00800           0
     37139 MEMB     316      POPE     C314     CTL2    -0.180000       12.0110           0
     37140 MEMB     316      POPE     H14X     HAL2     0.900000E-01   1.00800           0
     37141 MEMB     316      POPE     H14Y     HAL2     0.900000E-01   1.00800           0
     37142 MEMB     316      POPE     C315     CTL2    -0.180000       12.0110           0
     37143 MEMB     316      POPE     H15X     HAL2     0.900000E-01   1.00800           0
     37144 MEMB     316      POPE     H15Y     HAL2     0.900000E-01   1.00800           0
     37145 MEMB     316      POPE     C316     CTL3    -0.270000       12.0110           0
     37146 MEMB     316      POPE     H16X     HAL3     0.900000E-01   1.00800           0
     37147 MEMB     316      POPE     H16Y     HAL3     0.900000E-01   1.00800           0
     37148 MEMB     316      POPE     H16Z     HAL3     0.900000E-01   1.00800           0
     37149 MEMB     317      POPC     N        NTL     -0.600000       14.0070           0
     37150 MEMB     317      POPC     C12      CTL2    -0.100000       12.0110           0
     37151 MEMB     317      POPC     H12A     HL       0.250000       1.00800           0
     37152 MEMB     317      POPC     H12B     HL       0.250000       1.00800           0
     37153 MEMB     317      POPC     C13      CTL5    -0.350000       12.0110           0
     37154 MEMB     317      POPC     H13A     HL       0.250000       1.00800           0
     37155 MEMB     317      POPC     H13B     HL       0.250000       1.00800           0
     37156 MEMB     317      POPC     H13C     HL       0.250000       1.00800           0
     37157 MEMB     317      POPC     C14      CTL5    -0.350000       12.0110           0
     37158 MEMB     317      POPC     H14A     HL       0.250000       1.00800           0
     37159 MEMB     317      POPC     H14B     HL       0.250000       1.00800           0
     37160 MEMB     317      POPC     H14C     HL       0.250000       1.00800           0
     37161 MEMB     317      POPC     C15      CTL5    -0.350000       12.0110           0
     37162 MEMB     317      POPC     H15A     HL       0.250000       1.00800           0
     37163 MEMB     317      POPC     H15B     HL       0.250000       1.00800           0
     37164 MEMB     317      POPC     H15C     HL       0.250000       1.00800           0
     37165 MEMB     317      POPC     C11      CTL2    -0.800000E-01   12.0110           0
     37166 MEMB     317      POPC     H11A     HAL2     0.900000E-01   1.00800           0
     37167 MEMB     317      POPC     H11B     HAL2     0.900000E-01   1.00800           0
     37168 MEMB     317      POPC     P        PL        1.50000       30.9740           0
     37169 MEMB     317      POPC     O13      O2L     -0.780000       15.9994           0
     37170 MEMB     317      POPC     O14      O2L     -0.780000       15.9994           0
     37171 MEMB     317      POPC     O12      OSLP    -0.570000       15.9994           0
     37172 MEMB     317      POPC     O11      OSLP    -0.570000       15.9994           0
     37173 MEMB     317      POPC     C1       CTL2    -0.800000E-01   12.0110           0
     37174 MEMB     317      POPC     HA       HAL2     0.900000E-01   1.00800           0
     37175 MEMB     317      POPC     HB       HAL2     0.900000E-01   1.00800           0
     37176 MEMB     317      POPC     C2       CTL1     0.170000       12.0110           0
     37177 MEMB     317      POPC     HS       HAL1     0.900000E-01   1.00800           0
     37178 MEMB     317      POPC     O21      OSL     -0.490000       15.9994           0
     37179 MEMB     317      POPC     C21      CL       0.900000       12.0110           0
     37180 MEMB     317      POPC     O22      OBL     -0.630000       15.9994           0
     37181 MEMB     317      POPC     C22      CTL2    -0.220000       12.0110           0
     37182 MEMB     317      POPC     H2R      HAL2     0.900000E-01   1.00800           0
     37183 MEMB     317      POPC     H2S      HAL2     0.900000E-01   1.00800           0
     37184 MEMB     317      POPC     C3       CTL2     0.800000E-01   12.0110           0
     37185 MEMB     317      POPC     HX       HAL2     0.900000E-01   1.00800           0
     37186 MEMB     317      POPC     HY       HAL2     0.900000E-01   1.00800           0
     37187 MEMB     317      POPC     O31      OSL     -0.490000       15.9994           0
     37188 MEMB     317      POPC     C31      CL       0.900000       12.0110           0
     37189 MEMB     317      POPC     O32      OBL     -0.630000       15.9994           0
     37190 MEMB     317      POPC     C32      CTL2    -0.220000       12.0110           0
     37191 MEMB     317      POPC     H2X      HAL2     0.900000E-01   1.00800           0
     37192 MEMB     317      POPC     H2Y      HAL2     0.900000E-01   1.00800           0
     37193 MEMB     317      POPC     C23      CTL2    -0.180000       12.0110           0
     37194 MEMB     317      POPC     H3R      HAL2     0.900000E-01   1.00800           0
     37195 MEMB     317      POPC     H3S      HAL2     0.900000E-01   1.00800           0
     37196 MEMB     317      POPC     C24      CTL2    -0.180000       12.0110           0
     37197 MEMB     317      POPC     H4R      HAL2     0.900000E-01   1.00800           0
     37198 MEMB     317      POPC     H4S      HAL2     0.900000E-01   1.00800           0
     37199 MEMB     317      POPC     C25      CTL2    -0.180000       12.0110           0
     37200 MEMB     317      POPC     H5R      HAL2     0.900000E-01   1.00800           0
     37201 MEMB     317      POPC     H5S      HAL2     0.900000E-01   1.00800           0
     37202 MEMB     317      POPC     C26      CTL2    -0.180000       12.0110           0
     37203 MEMB     317      POPC     H6R      HAL2     0.900000E-01   1.00800           0
     37204 MEMB     317      POPC     H6S      HAL2     0.900000E-01   1.00800           0
     37205 MEMB     317      POPC     C27      CTL2    -0.180000       12.0110           0
     37206 MEMB     317      POPC     H7R      HAL2     0.900000E-01   1.00800           0
     37207 MEMB     317      POPC     H7S      HAL2     0.900000E-01   1.00800           0
     37208 MEMB     317      POPC     C28      CTL2    -0.180000       12.0110           0
     37209 MEMB     317      POPC     H8R      HAL2     0.900000E-01   1.00800           0
     37210 MEMB     317      POPC     H8S      HAL2     0.900000E-01   1.00800           0
     37211 MEMB     317      POPC     C29      CEL1    -0.150000       12.0110           0
     37212 MEMB     317      POPC     H91      HEL1     0.150000       1.00800           0
     37213 MEMB     317      POPC     C210     CEL1    -0.150000       12.0110           0
     37214 MEMB     317      POPC     H101     HEL1     0.150000       1.00800           0
     37215 MEMB     317      POPC     C211     CTL2    -0.180000       12.0110           0
     37216 MEMB     317      POPC     H11R     HAL2     0.900000E-01   1.00800           0
     37217 MEMB     317      POPC     H11S     HAL2     0.900000E-01   1.00800           0
     37218 MEMB     317      POPC     C212     CTL2    -0.180000       12.0110           0
     37219 MEMB     317      POPC     H12R     HAL2     0.900000E-01   1.00800           0
     37220 MEMB     317      POPC     H12S     HAL2     0.900000E-01   1.00800           0
     37221 MEMB     317      POPC     C213     CTL2    -0.180000       12.0110           0
     37222 MEMB     317      POPC     H13R     HAL2     0.900000E-01   1.00800           0
     37223 MEMB     317      POPC     H13S     HAL2     0.900000E-01   1.00800           0
     37224 MEMB     317      POPC     C214     CTL2    -0.180000       12.0110           0
     37225 MEMB     317      POPC     H14R     HAL2     0.900000E-01   1.00800           0
     37226 MEMB     317      POPC     H14S     HAL2     0.900000E-01   1.00800           0
     37227 MEMB     317      POPC     C215     CTL2    -0.180000       12.0110           0
     37228 MEMB     317      POPC     H15R     HAL2     0.900000E-01   1.00800           0
     37229 MEMB     317      POPC     H15S     HAL2     0.900000E-01   1.00800           0
     37230 MEMB     317      POPC     C216     CTL2    -0.180000       12.0110           0
     37231 MEMB     317      POPC     H16R     HAL2     0.900000E-01   1.00800           0
     37232 MEMB     317      POPC     H16S     HAL2     0.900000E-01   1.00800           0
     37233 MEMB     317      POPC     C217     CTL2    -0.180000       12.0110           0
     37234 MEMB     317      POPC     H17R     HAL2     0.900000E-01   1.00800           0
     37235 MEMB     317      POPC     H17S     HAL2     0.900000E-01   1.00800           0
     37236 MEMB     317      POPC     C218     CTL3    -0.270000       12.0110           0
     37237 MEMB     317      POPC     H18R     HAL3     0.900000E-01   1.00800           0
     37238 MEMB     317      POPC     H18S     HAL3     0.900000E-01   1.00800           0
     37239 MEMB     317      POPC     H18T     HAL3     0.900000E-01   1.00800           0
     37240 MEMB     317      POPC     C33      CTL2    -0.180000       12.0110           0
     37241 MEMB     317      POPC     H3X      HAL2     0.900000E-01   1.00800           0
     37242 MEMB     317      POPC     H3Y      HAL2     0.900000E-01   1.00800           0
     37243 MEMB     317      POPC     C34      CTL2    -0.180000       12.0110           0
     37244 MEMB     317      POPC     H4X      HAL2     0.900000E-01   1.00800           0
     37245 MEMB     317      POPC     H4Y      HAL2     0.900000E-01   1.00800           0
     37246 MEMB     317      POPC     C35      CTL2    -0.180000       12.0110           0
     37247 MEMB     317      POPC     H5X      HAL2     0.900000E-01   1.00800           0
     37248 MEMB     317      POPC     H5Y      HAL2     0.900000E-01   1.00800           0
     37249 MEMB     317      POPC     C36      CTL2    -0.180000       12.0110           0
     37250 MEMB     317      POPC     H6X      HAL2     0.900000E-01   1.00800           0
     37251 MEMB     317      POPC     H6Y      HAL2     0.900000E-01   1.00800           0
     37252 MEMB     317      POPC     C37      CTL2    -0.180000       12.0110           0
     37253 MEMB     317      POPC     H7X      HAL2     0.900000E-01   1.00800           0
     37254 MEMB     317      POPC     H7Y      HAL2     0.900000E-01   1.00800           0
     37255 MEMB     317      POPC     C38      CTL2    -0.180000       12.0110           0
     37256 MEMB     317      POPC     H8X      HAL2     0.900000E-01   1.00800           0
     37257 MEMB     317      POPC     H8Y      HAL2     0.900000E-01   1.00800           0
     37258 MEMB     317      POPC     C39      CTL2    -0.180000       12.0110           0
     37259 MEMB     317      POPC     H9X      HAL2     0.900000E-01   1.00800           0
     37260 MEMB     317      POPC     H9Y      HAL2     0.900000E-01   1.00800           0
     37261 MEMB     317      POPC     C310     CTL2    -0.180000       12.0110           0
     37262 MEMB     317      POPC     H10X     HAL2     0.900000E-01   1.00800           0
     37263 MEMB     317      POPC     H10Y     HAL2     0.900000E-01   1.00800           0
     37264 MEMB     317      POPC     C311     CTL2    -0.180000       12.0110           0
     37265 MEMB     317      POPC     H11X     HAL2     0.900000E-01   1.00800           0
     37266 MEMB     317      POPC     H11Y     HAL2     0.900000E-01   1.00800           0
     37267 MEMB     317      POPC     C312     CTL2    -0.180000       12.0110           0
     37268 MEMB     317      POPC     H12X     HAL2     0.900000E-01   1.00800           0
     37269 MEMB     317      POPC     H12Y     HAL2     0.900000E-01   1.00800           0
     37270 MEMB     317      POPC     C313     CTL2    -0.180000       12.0110           0
     37271 MEMB     317      POPC     H13X     HAL2     0.900000E-01   1.00800           0
     37272 MEMB     317      POPC     H13Y     HAL2     0.900000E-01   1.00800           0
     37273 MEMB     317      POPC     C314     CTL2    -0.180000       12.0110           0
     37274 MEMB     317      POPC     H14X     HAL2     0.900000E-01   1.00800           0
     37275 MEMB     317      POPC     H14Y     HAL2     0.900000E-01   1.00800           0
     37276 MEMB     317      POPC     C315     CTL2    -0.180000       12.0110           0
     37277 MEMB     317      POPC     H15X     HAL2     0.900000E-01   1.00800           0
     37278 MEMB     317      POPC     H15Y     HAL2     0.900000E-01   1.00800           0
     37279 MEMB     317      POPC     C316     CTL3    -0.270000       12.0110           0
     37280 MEMB     317      POPC     H16X     HAL3     0.900000E-01   1.00800           0
     37281 MEMB     317      POPC     H16Y     HAL3     0.900000E-01   1.00800           0
     37282 MEMB     317      POPC     H16Z     HAL3     0.900000E-01   1.00800           0
     37283 MEMB     318      POPE     N        NH3L    -0.300000       14.0070           0
     37284 MEMB     318      POPE     HN1      HCL      0.330000       1.00800           0
     37285 MEMB     318      POPE     HN2      HCL      0.330000       1.00800           0
     37286 MEMB     318      POPE     HN3      HCL      0.330000       1.00800           0
     37287 MEMB     318      POPE     C12      CTL2     0.130000       12.0110           0
     37288 MEMB     318      POPE     H12A     HAL2     0.900000E-01   1.00800           0
     37289 MEMB     318      POPE     H12B     HAL2     0.900000E-01   1.00800           0
     37290 MEMB     318      POPE     C11      CTL2    -0.800000E-01   12.0110           0
     37291 MEMB     318      POPE     H11A     HAL2     0.900000E-01   1.00800           0
     37292 MEMB     318      POPE     H11B     HAL2     0.900000E-01   1.00800           0
     37293 MEMB     318      POPE     P        PL        1.50000       30.9740           0
     37294 MEMB     318      POPE     O13      O2L     -0.780000       15.9994           0
     37295 MEMB     318      POPE     O14      O2L     -0.780000       15.9994           0
     37296 MEMB     318      POPE     O11      OSLP    -0.570000       15.9994           0
     37297 MEMB     318      POPE     O12      OSLP    -0.570000       15.9994           0
     37298 MEMB     318      POPE     C1       CTL2    -0.800000E-01   12.0110           0
     37299 MEMB     318      POPE     HA       HAL2     0.900000E-01   1.00800           0
     37300 MEMB     318      POPE     HB       HAL2     0.900000E-01   1.00800           0
     37301 MEMB     318      POPE     C2       CTL1     0.170000       12.0110           0
     37302 MEMB     318      POPE     HS       HAL1     0.900000E-01   1.00800           0
     37303 MEMB     318      POPE     O21      OSL     -0.490000       15.9994           0
     37304 MEMB     318      POPE     C21      CL       0.900000       12.0110           0
     37305 MEMB     318      POPE     O22      OBL     -0.630000       15.9994           0
     37306 MEMB     318      POPE     C22      CTL2    -0.220000       12.0110           0
     37307 MEMB     318      POPE     H2R      HAL2     0.900000E-01   1.00800           0
     37308 MEMB     318      POPE     H2S      HAL2     0.900000E-01   1.00800           0
     37309 MEMB     318      POPE     C3       CTL2     0.800000E-01   12.0110           0
     37310 MEMB     318      POPE     HX       HAL2     0.900000E-01   1.00800           0
     37311 MEMB     318      POPE     HY       HAL2     0.900000E-01   1.00800           0
     37312 MEMB     318      POPE     O31      OSL     -0.490000       15.9994           0
     37313 MEMB     318      POPE     C31      CL       0.900000       12.0110           0
     37314 MEMB     318      POPE     O32      OBL     -0.630000       15.9994           0
     37315 MEMB     318      POPE     C32      CTL2    -0.220000       12.0110           0
     37316 MEMB     318      POPE     H2X      HAL2     0.900000E-01   1.00800           0
     37317 MEMB     318      POPE     H2Y      HAL2     0.900000E-01   1.00800           0
     37318 MEMB     318      POPE     C23      CTL2    -0.180000       12.0110           0
     37319 MEMB     318      POPE     H3R      HAL2     0.900000E-01   1.00800           0
     37320 MEMB     318      POPE     H3S      HAL2     0.900000E-01   1.00800           0
     37321 MEMB     318      POPE     C24      CTL2    -0.180000       12.0110           0
     37322 MEMB     318      POPE     H4R      HAL2     0.900000E-01   1.00800           0
     37323 MEMB     318      POPE     H4S      HAL2     0.900000E-01   1.00800           0
     37324 MEMB     318      POPE     C25      CTL2    -0.180000       12.0110           0
     37325 MEMB     318      POPE     H5R      HAL2     0.900000E-01   1.00800           0
     37326 MEMB     318      POPE     H5S      HAL2     0.900000E-01   1.00800           0
     37327 MEMB     318      POPE     C26      CTL2    -0.180000       12.0110           0
     37328 MEMB     318      POPE     H6R      HAL2     0.900000E-01   1.00800           0
     37329 MEMB     318      POPE     H6S      HAL2     0.900000E-01   1.00800           0
     37330 MEMB     318      POPE     C27      CTL2    -0.180000       12.0110           0
     37331 MEMB     318      POPE     H7R      HAL2     0.900000E-01   1.00800           0
     37332 MEMB     318      POPE     H7S      HAL2     0.900000E-01   1.00800           0
     37333 MEMB     318      POPE     C28      CTL2    -0.180000       12.0110           0
     37334 MEMB     318      POPE     H8R      HAL2     0.900000E-01   1.00800           0
     37335 MEMB     318      POPE     H8S      HAL2     0.900000E-01   1.00800           0
     37336 MEMB     318      POPE     C29      CEL1    -0.150000       12.0110           0
     37337 MEMB     318      POPE     H91      HEL1     0.150000       1.00800           0
     37338 MEMB     318      POPE     C210     CEL1    -0.150000       12.0110           0
     37339 MEMB     318      POPE     H101     HEL1     0.150000       1.00800           0
     37340 MEMB     318      POPE     C211     CTL2    -0.180000       12.0110           0
     37341 MEMB     318      POPE     H11R     HAL2     0.900000E-01   1.00800           0
     37342 MEMB     318      POPE     H11S     HAL2     0.900000E-01   1.00800           0
     37343 MEMB     318      POPE     C212     CTL2    -0.180000       12.0110           0
     37344 MEMB     318      POPE     H12R     HAL2     0.900000E-01   1.00800           0
     37345 MEMB     318      POPE     H12S     HAL2     0.900000E-01   1.00800           0
     37346 MEMB     318      POPE     C213     CTL2    -0.180000       12.0110           0
     37347 MEMB     318      POPE     H13R     HAL2     0.900000E-01   1.00800           0
     37348 MEMB     318      POPE     H13S     HAL2     0.900000E-01   1.00800           0
     37349 MEMB     318      POPE     C214     CTL2    -0.180000       12.0110           0
     37350 MEMB     318      POPE     H14R     HAL2     0.900000E-01   1.00800           0
     37351 MEMB     318      POPE     H14S     HAL2     0.900000E-01   1.00800           0
     37352 MEMB     318      POPE     C215     CTL2    -0.180000       12.0110           0
     37353 MEMB     318      POPE     H15R     HAL2     0.900000E-01   1.00800           0
     37354 MEMB     318      POPE     H15S     HAL2     0.900000E-01   1.00800           0
     37355 MEMB     318      POPE     C216     CTL2    -0.180000       12.0110           0
     37356 MEMB     318      POPE     H16R     HAL2     0.900000E-01   1.00800           0
     37357 MEMB     318      POPE     H16S     HAL2     0.900000E-01   1.00800           0
     37358 MEMB     318      POPE     C217     CTL2    -0.180000       12.0110           0
     37359 MEMB     318      POPE     H17R     HAL2     0.900000E-01   1.00800           0
     37360 MEMB     318      POPE     H17S     HAL2     0.900000E-01   1.00800           0
     37361 MEMB     318      POPE     C218     CTL3    -0.270000       12.0110           0
     37362 MEMB     318      POPE     H18R     HAL3     0.900000E-01   1.00800           0
     37363 MEMB     318      POPE     H18S     HAL3     0.900000E-01   1.00800           0
     37364 MEMB     318      POPE     H18T     HAL3     0.900000E-01   1.00800           0
     37365 MEMB     318      POPE     C33      CTL2    -0.180000       12.0110           0
     37366 MEMB     318      POPE     H3X      HAL2     0.900000E-01   1.00800           0
     37367 MEMB     318      POPE     H3Y      HAL2     0.900000E-01   1.00800           0
     37368 MEMB     318      POPE     C34      CTL2    -0.180000       12.0110           0
     37369 MEMB     318      POPE     H4X      HAL2     0.900000E-01   1.00800           0
     37370 MEMB     318      POPE     H4Y      HAL2     0.900000E-01   1.00800           0
     37371 MEMB     318      POPE     C35      CTL2    -0.180000       12.0110           0
     37372 MEMB     318      POPE     H5X      HAL2     0.900000E-01   1.00800           0
     37373 MEMB     318      POPE     H5Y      HAL2     0.900000E-01   1.00800           0
     37374 MEMB     318      POPE     C36      CTL2    -0.180000       12.0110           0
     37375 MEMB     318      POPE     H6X      HAL2     0.900000E-01   1.00800           0
     37376 MEMB     318      POPE     H6Y      HAL2     0.900000E-01   1.00800           0
     37377 MEMB     318      POPE     C37      CTL2    -0.180000       12.0110           0
     37378 MEMB     318      POPE     H7X      HAL2     0.900000E-01   1.00800           0
     37379 MEMB     318      POPE     H7Y      HAL2     0.900000E-01   1.00800           0
     37380 MEMB     318      POPE     C38      CTL2    -0.180000       12.0110           0
     37381 MEMB     318      POPE     H8X      HAL2     0.900000E-01   1.00800           0
     37382 MEMB     318      POPE     H8Y      HAL2     0.900000E-01   1.00800           0
     37383 MEMB     318      POPE     C39      CTL2    -0.180000       12.0110           0
     37384 MEMB     318      POPE     H9X      HAL2     0.900000E-01   1.00800           0
     37385 MEMB     318      POPE     H9Y      HAL2     0.900000E-01   1.00800           0
     37386 MEMB     318      POPE     C310     CTL2    -0.180000       12.0110           0
     37387 MEMB     318      POPE     H10X     HAL2     0.900000E-01   1.00800           0
     37388 MEMB     318      POPE     H10Y     HAL2     0.900000E-01   1.00800           0
     37389 MEMB     318      POPE     C311     CTL2    -0.180000       12.0110           0
     37390 MEMB     318      POPE     H11X     HAL2     0.900000E-01   1.00800           0
     37391 MEMB     318      POPE     H11Y     HAL2     0.900000E-01   1.00800           0
     37392 MEMB     318      POPE     C312     CTL2    -0.180000       12.0110           0
     37393 MEMB     318      POPE     H12X     HAL2     0.900000E-01   1.00800           0
     37394 MEMB     318      POPE     H12Y     HAL2     0.900000E-01   1.00800           0
     37395 MEMB     318      POPE     C313     CTL2    -0.180000       12.0110           0
     37396 MEMB     318      POPE     H13X     HAL2     0.900000E-01   1.00800           0
     37397 MEMB     318      POPE     H13Y     HAL2     0.900000E-01   1.00800           0
     37398 MEMB     318      POPE     C314     CTL2    -0.180000       12.0110           0
     37399 MEMB     318      POPE     H14X     HAL2     0.900000E-01   1.00800           0
     37400 MEMB     318      POPE     H14Y     HAL2     0.900000E-01   1.00800           0
     37401 MEMB     318      POPE     C315     CTL2    -0.180000       12.0110           0
     37402 MEMB     318      POPE     H15X     HAL2     0.900000E-01   1.00800           0
     37403 MEMB     318      POPE     H15Y     HAL2     0.900000E-01   1.00800           0
     37404 MEMB     318      POPE     C316     CTL3    -0.270000       12.0110           0
     37405 MEMB     318      POPE     H16X     HAL3     0.900000E-01   1.00800           0
     37406 MEMB     318      POPE     H16Y     HAL3     0.900000E-01   1.00800           0
     37407 MEMB     318      POPE     H16Z     HAL3     0.900000E-01   1.00800           0
     37408 MEMB     319      POPC     N        NTL     -0.600000       14.0070           0
     37409 MEMB     319      POPC     C12      CTL2    -0.100000       12.0110           0
     37410 MEMB     319      POPC     H12A     HL       0.250000       1.00800           0
     37411 MEMB     319      POPC     H12B     HL       0.250000       1.00800           0
     37412 MEMB     319      POPC     C13      CTL5    -0.350000       12.0110           0
     37413 MEMB     319      POPC     H13A     HL       0.250000       1.00800           0
     37414 MEMB     319      POPC     H13B     HL       0.250000       1.00800           0
     37415 MEMB     319      POPC     H13C     HL       0.250000       1.00800           0
     37416 MEMB     319      POPC     C14      CTL5    -0.350000       12.0110           0
     37417 MEMB     319      POPC     H14A     HL       0.250000       1.00800           0
     37418 MEMB     319      POPC     H14B     HL       0.250000       1.00800           0
     37419 MEMB     319      POPC     H14C     HL       0.250000       1.00800           0
     37420 MEMB     319      POPC     C15      CTL5    -0.350000       12.0110           0
     37421 MEMB     319      POPC     H15A     HL       0.250000       1.00800           0
     37422 MEMB     319      POPC     H15B     HL       0.250000       1.00800           0
     37423 MEMB     319      POPC     H15C     HL       0.250000       1.00800           0
     37424 MEMB     319      POPC     C11      CTL2    -0.800000E-01   12.0110           0
     37425 MEMB     319      POPC     H11A     HAL2     0.900000E-01   1.00800           0
     37426 MEMB     319      POPC     H11B     HAL2     0.900000E-01   1.00800           0
     37427 MEMB     319      POPC     P        PL        1.50000       30.9740           0
     37428 MEMB     319      POPC     O13      O2L     -0.780000       15.9994           0
     37429 MEMB     319      POPC     O14      O2L     -0.780000       15.9994           0
     37430 MEMB     319      POPC     O12      OSLP    -0.570000       15.9994           0
     37431 MEMB     319      POPC     O11      OSLP    -0.570000       15.9994           0
     37432 MEMB     319      POPC     C1       CTL2    -0.800000E-01   12.0110           0
     37433 MEMB     319      POPC     HA       HAL2     0.900000E-01   1.00800           0
     37434 MEMB     319      POPC     HB       HAL2     0.900000E-01   1.00800           0
     37435 MEMB     319      POPC     C2       CTL1     0.170000       12.0110           0
     37436 MEMB     319      POPC     HS       HAL1     0.900000E-01   1.00800           0
     37437 MEMB     319      POPC     O21      OSL     -0.490000       15.9994           0
     37438 MEMB     319      POPC     C21      CL       0.900000       12.0110           0
     37439 MEMB     319      POPC     O22      OBL     -0.630000       15.9994           0
     37440 MEMB     319      POPC     C22      CTL2    -0.220000       12.0110           0
     37441 MEMB     319      POPC     H2R      HAL2     0.900000E-01   1.00800           0
     37442 MEMB     319      POPC     H2S      HAL2     0.900000E-01   1.00800           0
     37443 MEMB     319      POPC     C3       CTL2     0.800000E-01   12.0110           0
     37444 MEMB     319      POPC     HX       HAL2     0.900000E-01   1.00800           0
     37445 MEMB     319      POPC     HY       HAL2     0.900000E-01   1.00800           0
     37446 MEMB     319      POPC     O31      OSL     -0.490000       15.9994           0
     37447 MEMB     319      POPC     C31      CL       0.900000       12.0110           0
     37448 MEMB     319      POPC     O32      OBL     -0.630000       15.9994           0
     37449 MEMB     319      POPC     C32      CTL2    -0.220000       12.0110           0
     37450 MEMB     319      POPC     H2X      HAL2     0.900000E-01   1.00800           0
     37451 MEMB     319      POPC     H2Y      HAL2     0.900000E-01   1.00800           0
     37452 MEMB     319      POPC     C23      CTL2    -0.180000       12.0110           0
     37453 MEMB     319      POPC     H3R      HAL2     0.900000E-01   1.00800           0
     37454 MEMB     319      POPC     H3S      HAL2     0.900000E-01   1.00800           0
     37455 MEMB     319      POPC     C24      CTL2    -0.180000       12.0110           0
     37456 MEMB     319      POPC     H4R      HAL2     0.900000E-01   1.00800           0
     37457 MEMB     319      POPC     H4S      HAL2     0.900000E-01   1.00800           0
     37458 MEMB     319      POPC     C25      CTL2    -0.180000       12.0110           0
     37459 MEMB     319      POPC     H5R      HAL2     0.900000E-01   1.00800           0
     37460 MEMB     319      POPC     H5S      HAL2     0.900000E-01   1.00800           0
     37461 MEMB     319      POPC     C26      CTL2    -0.180000       12.0110           0
     37462 MEMB     319      POPC     H6R      HAL2     0.900000E-01   1.00800           0
     37463 MEMB     319      POPC     H6S      HAL2     0.900000E-01   1.00800           0
     37464 MEMB     319      POPC     C27      CTL2    -0.180000       12.0110           0
     37465 MEMB     319      POPC     H7R      HAL2     0.900000E-01   1.00800           0
     37466 MEMB     319      POPC     H7S      HAL2     0.900000E-01   1.00800           0
     37467 MEMB     319      POPC     C28      CTL2    -0.180000       12.0110           0
     37468 MEMB     319      POPC     H8R      HAL2     0.900000E-01   1.00800           0
     37469 MEMB     319      POPC     H8S      HAL2     0.900000E-01   1.00800           0
     37470 MEMB     319      POPC     C29      CEL1    -0.150000       12.0110           0
     37471 MEMB     319      POPC     H91      HEL1     0.150000       1.00800           0
     37472 MEMB     319      POPC     C210     CEL1    -0.150000       12.0110           0
     37473 MEMB     319      POPC     H101     HEL1     0.150000       1.00800           0
     37474 MEMB     319      POPC     C211     CTL2    -0.180000       12.0110           0
     37475 MEMB     319      POPC     H11R     HAL2     0.900000E-01   1.00800           0
     37476 MEMB     319      POPC     H11S     HAL2     0.900000E-01   1.00800           0
     37477 MEMB     319      POPC     C212     CTL2    -0.180000       12.0110           0
     37478 MEMB     319      POPC     H12R     HAL2     0.900000E-01   1.00800           0
     37479 MEMB     319      POPC     H12S     HAL2     0.900000E-01   1.00800           0
     37480 MEMB     319      POPC     C213     CTL2    -0.180000       12.0110           0
     37481 MEMB     319      POPC     H13R     HAL2     0.900000E-01   1.00800           0
     37482 MEMB     319      POPC     H13S     HAL2     0.900000E-01   1.00800           0
     37483 MEMB     319      POPC     C214     CTL2    -0.180000       12.0110           0
     37484 MEMB     319      POPC     H14R     HAL2     0.900000E-01   1.00800           0
     37485 MEMB     319      POPC     H14S     HAL2     0.900000E-01   1.00800           0
     37486 MEMB     319      POPC     C215     CTL2    -0.180000       12.0110           0
     37487 MEMB     319      POPC     H15R     HAL2     0.900000E-01   1.00800           0
     37488 MEMB     319      POPC     H15S     HAL2     0.900000E-01   1.00800           0
     37489 MEMB     319      POPC     C216     CTL2    -0.180000       12.0110           0
     37490 MEMB     319      POPC     H16R     HAL2     0.900000E-01   1.00800           0
     37491 MEMB     319      POPC     H16S     HAL2     0.900000E-01   1.00800           0
     37492 MEMB     319      POPC     C217     CTL2    -0.180000       12.0110           0
     37493 MEMB     319      POPC     H17R     HAL2     0.900000E-01   1.00800           0
     37494 MEMB     319      POPC     H17S     HAL2     0.900000E-01   1.00800           0
     37495 MEMB     319      POPC     C218     CTL3    -0.270000       12.0110           0
     37496 MEMB     319      POPC     H18R     HAL3     0.900000E-01   1.00800           0
     37497 MEMB     319      POPC     H18S     HAL3     0.900000E-01   1.00800           0
     37498 MEMB     319      POPC     H18T     HAL3     0.900000E-01   1.00800           0
     37499 MEMB     319      POPC     C33      CTL2    -0.180000       12.0110           0
     37500 MEMB     319      POPC     H3X      HAL2     0.900000E-01   1.00800           0
     37501 MEMB     319      POPC     H3Y      HAL2     0.900000E-01   1.00800           0
     37502 MEMB     319      POPC     C34      CTL2    -0.180000       12.0110           0
     37503 MEMB     319      POPC     H4X      HAL2     0.900000E-01   1.00800           0
     37504 MEMB     319      POPC     H4Y      HAL2     0.900000E-01   1.00800           0
     37505 MEMB     319      POPC     C35      CTL2    -0.180000       12.0110           0
     37506 MEMB     319      POPC     H5X      HAL2     0.900000E-01   1.00800           0
     37507 MEMB     319      POPC     H5Y      HAL2     0.900000E-01   1.00800           0
     37508 MEMB     319      POPC     C36      CTL2    -0.180000       12.0110           0
     37509 MEMB     319      POPC     H6X      HAL2     0.900000E-01   1.00800           0
     37510 MEMB     319      POPC     H6Y      HAL2     0.900000E-01   1.00800           0
     37511 MEMB     319      POPC     C37      CTL2    -0.180000       12.0110           0
     37512 MEMB     319      POPC     H7X      HAL2     0.900000E-01   1.00800           0
     37513 MEMB     319      POPC     H7Y      HAL2     0.900000E-01   1.00800           0
     37514 MEMB     319      POPC     C38      CTL2    -0.180000       12.0110           0
     37515 MEMB     319      POPC     H8X      HAL2     0.900000E-01   1.00800           0
     37516 MEMB     319      POPC     H8Y      HAL2     0.900000E-01   1.00800           0
     37517 MEMB     319      POPC     C39      CTL2    -0.180000       12.0110           0
     37518 MEMB     319      POPC     H9X      HAL2     0.900000E-01   1.00800           0
     37519 MEMB     319      POPC     H9Y      HAL2     0.900000E-01   1.00800           0
     37520 MEMB     319      POPC     C310     CTL2    -0.180000       12.0110           0
     37521 MEMB     319      POPC     H10X     HAL2     0.900000E-01   1.00800           0
     37522 MEMB     319      POPC     H10Y     HAL2     0.900000E-01   1.00800           0
     37523 MEMB     319      POPC     C311     CTL2    -0.180000       12.0110           0
     37524 MEMB     319      POPC     H11X     HAL2     0.900000E-01   1.00800           0
     37525 MEMB     319      POPC     H11Y     HAL2     0.900000E-01   1.00800           0
     37526 MEMB     319      POPC     C312     CTL2    -0.180000       12.0110           0
     37527 MEMB     319      POPC     H12X     HAL2     0.900000E-01   1.00800           0
     37528 MEMB     319      POPC     H12Y     HAL2     0.900000E-01   1.00800           0
     37529 MEMB     319      POPC     C313     CTL2    -0.180000       12.0110           0
     37530 MEMB     319      POPC     H13X     HAL2     0.900000E-01   1.00800           0
     37531 MEMB     319      POPC     H13Y     HAL2     0.900000E-01   1.00800           0
     37532 MEMB     319      POPC     C314     CTL2    -0.180000       12.0110           0
     37533 MEMB     319      POPC     H14X     HAL2     0.900000E-01   1.00800           0
     37534 MEMB     319      POPC     H14Y     HAL2     0.900000E-01   1.00800           0
     37535 MEMB     319      POPC     C315     CTL2    -0.180000       12.0110           0
     37536 MEMB     319      POPC     H15X     HAL2     0.900000E-01   1.00800           0
     37537 MEMB     319      POPC     H15Y     HAL2     0.900000E-01   1.00800           0
     37538 MEMB     319      POPC     C316     CTL3    -0.270000       12.0110           0
     37539 MEMB     319      POPC     H16X     HAL3     0.900000E-01   1.00800           0
     37540 MEMB     319      POPC     H16Y     HAL3     0.900000E-01   1.00800           0
     37541 MEMB     319      POPC     H16Z     HAL3     0.900000E-01   1.00800           0
     37542 MEMB     320      POPC     N        NTL     -0.600000       14.0070           0
     37543 MEMB     320      POPC     C12      CTL2    -0.100000       12.0110           0
     37544 MEMB     320      POPC     H12A     HL       0.250000       1.00800           0
     37545 MEMB     320      POPC     H12B     HL       0.250000       1.00800           0
     37546 MEMB     320      POPC     C13      CTL5    -0.350000       12.0110           0
     37547 MEMB     320      POPC     H13A     HL       0.250000       1.00800           0
     37548 MEMB     320      POPC     H13B     HL       0.250000       1.00800           0
     37549 MEMB     320      POPC     H13C     HL       0.250000       1.00800           0
     37550 MEMB     320      POPC     C14      CTL5    -0.350000       12.0110           0
     37551 MEMB     320      POPC     H14A     HL       0.250000       1.00800           0
     37552 MEMB     320      POPC     H14B     HL       0.250000       1.00800           0
     37553 MEMB     320      POPC     H14C     HL       0.250000       1.00800           0
     37554 MEMB     320      POPC     C15      CTL5    -0.350000       12.0110           0
     37555 MEMB     320      POPC     H15A     HL       0.250000       1.00800           0
     37556 MEMB     320      POPC     H15B     HL       0.250000       1.00800           0
     37557 MEMB     320      POPC     H15C     HL       0.250000       1.00800           0
     37558 MEMB     320      POPC     C11      CTL2    -0.800000E-01   12.0110           0
     37559 MEMB     320      POPC     H11A     HAL2     0.900000E-01   1.00800           0
     37560 MEMB     320      POPC     H11B     HAL2     0.900000E-01   1.00800           0
     37561 MEMB     320      POPC     P        PL        1.50000       30.9740           0
     37562 MEMB     320      POPC     O13      O2L     -0.780000       15.9994           0
     37563 MEMB     320      POPC     O14      O2L     -0.780000       15.9994           0
     37564 MEMB     320      POPC     O12      OSLP    -0.570000       15.9994           0
     37565 MEMB     320      POPC     O11      OSLP    -0.570000       15.9994           0
     37566 MEMB     320      POPC     C1       CTL2    -0.800000E-01   12.0110           0
     37567 MEMB     320      POPC     HA       HAL2     0.900000E-01   1.00800           0
     37568 MEMB     320      POPC     HB       HAL2     0.900000E-01   1.00800           0
     37569 MEMB     320      POPC     C2       CTL1     0.170000       12.0110           0
     37570 MEMB     320      POPC     HS       HAL1     0.900000E-01   1.00800           0
     37571 MEMB     320      POPC     O21      OSL     -0.490000       15.9994           0
     37572 MEMB     320      POPC     C21      CL       0.900000       12.0110           0
     37573 MEMB     320      POPC     O22      OBL     -0.630000       15.9994           0
     37574 MEMB     320      POPC     C22      CTL2    -0.220000       12.0110           0
     37575 MEMB     320      POPC     H2R      HAL2     0.900000E-01   1.00800           0
     37576 MEMB     320      POPC     H2S      HAL2     0.900000E-01   1.00800           0
     37577 MEMB     320      POPC     C3       CTL2     0.800000E-01   12.0110           0
     37578 MEMB     320      POPC     HX       HAL2     0.900000E-01   1.00800           0
     37579 MEMB     320      POPC     HY       HAL2     0.900000E-01   1.00800           0
     37580 MEMB     320      POPC     O31      OSL     -0.490000       15.9994           0
     37581 MEMB     320      POPC     C31      CL       0.900000       12.0110           0
     37582 MEMB     320      POPC     O32      OBL     -0.630000       15.9994           0
     37583 MEMB     320      POPC     C32      CTL2    -0.220000       12.0110           0
     37584 MEMB     320      POPC     H2X      HAL2     0.900000E-01   1.00800           0
     37585 MEMB     320      POPC     H2Y      HAL2     0.900000E-01   1.00800           0
     37586 MEMB     320      POPC     C23      CTL2    -0.180000       12.0110           0
     37587 MEMB     320      POPC     H3R      HAL2     0.900000E-01   1.00800           0
     37588 MEMB     320      POPC     H3S      HAL2     0.900000E-01   1.00800           0
     37589 MEMB     320      POPC     C24      CTL2    -0.180000       12.0110           0
     37590 MEMB     320      POPC     H4R      HAL2     0.900000E-01   1.00800           0
     37591 MEMB     320      POPC     H4S      HAL2     0.900000E-01   1.00800           0
     37592 MEMB     320      POPC     C25      CTL2    -0.180000       12.0110           0
     37593 MEMB     320      POPC     H5R      HAL2     0.900000E-01   1.00800           0
     37594 MEMB     320      POPC     H5S      HAL2     0.900000E-01   1.00800           0
     37595 MEMB     320      POPC     C26      CTL2    -0.180000       12.0110           0
     37596 MEMB     320      POPC     H6R      HAL2     0.900000E-01   1.00800           0
     37597 MEMB     320      POPC     H6S      HAL2     0.900000E-01   1.00800           0
     37598 MEMB     320      POPC     C27      CTL2    -0.180000       12.0110           0
     37599 MEMB     320      POPC     H7R      HAL2     0.900000E-01   1.00800           0
     37600 MEMB     320      POPC     H7S      HAL2     0.900000E-01   1.00800           0
     37601 MEMB     320      POPC     C28      CTL2    -0.180000       12.0110           0
     37602 MEMB     320      POPC     H8R      HAL2     0.900000E-01   1.00800           0
     37603 MEMB     320      POPC     H8S      HAL2     0.900000E-01   1.00800           0
     37604 MEMB     320      POPC     C29      CEL1    -0.150000       12.0110           0
     37605 MEMB     320      POPC     H91      HEL1     0.150000       1.00800           0
     37606 MEMB     320      POPC     C210     CEL1    -0.150000       12.0110           0
     37607 MEMB     320      POPC     H101     HEL1     0.150000       1.00800           0
     37608 MEMB     320      POPC     C211     CTL2    -0.180000       12.0110           0
     37609 MEMB     320      POPC     H11R     HAL2     0.900000E-01   1.00800           0
     37610 MEMB     320      POPC     H11S     HAL2     0.900000E-01   1.00800           0
     37611 MEMB     320      POPC     C212     CTL2    -0.180000       12.0110           0
     37612 MEMB     320      POPC     H12R     HAL2     0.900000E-01   1.00800           0
     37613 MEMB     320      POPC     H12S     HAL2     0.900000E-01   1.00800           0
     37614 MEMB     320      POPC     C213     CTL2    -0.180000       12.0110           0
     37615 MEMB     320      POPC     H13R     HAL2     0.900000E-01   1.00800           0
     37616 MEMB     320      POPC     H13S     HAL2     0.900000E-01   1.00800           0
     37617 MEMB     320      POPC     C214     CTL2    -0.180000       12.0110           0
     37618 MEMB     320      POPC     H14R     HAL2     0.900000E-01   1.00800           0
     37619 MEMB     320      POPC     H14S     HAL2     0.900000E-01   1.00800           0
     37620 MEMB     320      POPC     C215     CTL2    -0.180000       12.0110           0
     37621 MEMB     320      POPC     H15R     HAL2     0.900000E-01   1.00800           0
     37622 MEMB     320      POPC     H15S     HAL2     0.900000E-01   1.00800           0
     37623 MEMB     320      POPC     C216     CTL2    -0.180000       12.0110           0
     37624 MEMB     320      POPC     H16R     HAL2     0.900000E-01   1.00800           0
     37625 MEMB     320      POPC     H16S     HAL2     0.900000E-01   1.00800           0
     37626 MEMB     320      POPC     C217     CTL2    -0.180000       12.0110           0
     37627 MEMB     320      POPC     H17R     HAL2     0.900000E-01   1.00800           0
     37628 MEMB     320      POPC     H17S     HAL2     0.900000E-01   1.00800           0
     37629 MEMB     320      POPC     C218     CTL3    -0.270000       12.0110           0
     37630 MEMB     320      POPC     H18R     HAL3     0.900000E-01   1.00800           0
     37631 MEMB     320      POPC     H18S     HAL3     0.900000E-01   1.00800           0
     37632 MEMB     320      POPC     H18T     HAL3     0.900000E-01   1.00800           0
     37633 MEMB     320      POPC     C33      CTL2    -0.180000       12.0110           0
     37634 MEMB     320      POPC     H3X      HAL2     0.900000E-01   1.00800           0
     37635 MEMB     320      POPC     H3Y      HAL2     0.900000E-01   1.00800           0
     37636 MEMB     320      POPC     C34      CTL2    -0.180000       12.0110           0
     37637 MEMB     320      POPC     H4X      HAL2     0.900000E-01   1.00800           0
     37638 MEMB     320      POPC     H4Y      HAL2     0.900000E-01   1.00800           0
     37639 MEMB     320      POPC     C35      CTL2    -0.180000       12.0110           0
     37640 MEMB     320      POPC     H5X      HAL2     0.900000E-01   1.00800           0
     37641 MEMB     320      POPC     H5Y      HAL2     0.900000E-01   1.00800           0
     37642 MEMB     320      POPC     C36      CTL2    -0.180000       12.0110           0
     37643 MEMB     320      POPC     H6X      HAL2     0.900000E-01   1.00800           0
     37644 MEMB     320      POPC     H6Y      HAL2     0.900000E-01   1.00800           0
     37645 MEMB     320      POPC     C37      CTL2    -0.180000       12.0110           0
     37646 MEMB     320      POPC     H7X      HAL2     0.900000E-01   1.00800           0
     37647 MEMB     320      POPC     H7Y      HAL2     0.900000E-01   1.00800           0
     37648 MEMB     320      POPC     C38      CTL2    -0.180000       12.0110           0
     37649 MEMB     320      POPC     H8X      HAL2     0.900000E-01   1.00800           0
     37650 MEMB     320      POPC     H8Y      HAL2     0.900000E-01   1.00800           0
     37651 MEMB     320      POPC     C39      CTL2    -0.180000       12.0110           0
     37652 MEMB     320      POPC     H9X      HAL2     0.900000E-01   1.00800           0
     37653 MEMB     320      POPC     H9Y      HAL2     0.900000E-01   1.00800           0
     37654 MEMB     320      POPC     C310     CTL2    -0.180000       12.0110           0
     37655 MEMB     320      POPC     H10X     HAL2     0.900000E-01   1.00800           0
     37656 MEMB     320      POPC     H10Y     HAL2     0.900000E-01   1.00800           0
     37657 MEMB     320      POPC     C311     CTL2    -0.180000       12.0110           0
     37658 MEMB     320      POPC     H11X     HAL2     0.900000E-01   1.00800           0
     37659 MEMB     320      POPC     H11Y     HAL2     0.900000E-01   1.00800           0
     37660 MEMB     320      POPC     C312     CTL2    -0.180000       12.0110           0
     37661 MEMB     320      POPC     H12X     HAL2     0.900000E-01   1.00800           0
     37662 MEMB     320      POPC     H12Y     HAL2     0.900000E-01   1.00800           0
     37663 MEMB     320      POPC     C313     CTL2    -0.180000       12.0110           0
     37664 MEMB     320      POPC     H13X     HAL2     0.900000E-01   1.00800           0
     37665 MEMB     320      POPC     H13Y     HAL2     0.900000E-01   1.00800           0
     37666 MEMB     320      POPC     C314     CTL2    -0.180000       12.0110           0
     37667 MEMB     320      POPC     H14X     HAL2     0.900000E-01   1.00800           0
     37668 MEMB     320      POPC     H14Y     HAL2     0.900000E-01   1.00800           0
     37669 MEMB     320      POPC     C315     CTL2    -0.180000       12.0110           0
     37670 MEMB     320      POPC     H15X     HAL2     0.900000E-01   1.00800           0
     37671 MEMB     320      POPC     H15Y     HAL2     0.900000E-01   1.00800           0
     37672 MEMB     320      POPC     C316     CTL3    -0.270000       12.0110           0
     37673 MEMB     320      POPC     H16X     HAL3     0.900000E-01   1.00800           0
     37674 MEMB     320      POPC     H16Y     HAL3     0.900000E-01   1.00800           0
     37675 MEMB     320      POPC     H16Z     HAL3     0.900000E-01   1.00800           0
     37676 MEMB     321      POPC     N        NTL     -0.600000       14.0070           0
     37677 MEMB     321      POPC     C12      CTL2    -0.100000       12.0110           0
     37678 MEMB     321      POPC     H12A     HL       0.250000       1.00800           0
     37679 MEMB     321      POPC     H12B     HL       0.250000       1.00800           0
     37680 MEMB     321      POPC     C13      CTL5    -0.350000       12.0110           0
     37681 MEMB     321      POPC     H13A     HL       0.250000       1.00800           0
     37682 MEMB     321      POPC     H13B     HL       0.250000       1.00800           0
     37683 MEMB     321      POPC     H13C     HL       0.250000       1.00800           0
     37684 MEMB     321      POPC     C14      CTL5    -0.350000       12.0110           0
     37685 MEMB     321      POPC     H14A     HL       0.250000       1.00800           0
     37686 MEMB     321      POPC     H14B     HL       0.250000       1.00800           0
     37687 MEMB     321      POPC     H14C     HL       0.250000       1.00800           0
     37688 MEMB     321      POPC     C15      CTL5    -0.350000       12.0110           0
     37689 MEMB     321      POPC     H15A     HL       0.250000       1.00800           0
     37690 MEMB     321      POPC     H15B     HL       0.250000       1.00800           0
     37691 MEMB     321      POPC     H15C     HL       0.250000       1.00800           0
     37692 MEMB     321      POPC     C11      CTL2    -0.800000E-01   12.0110           0
     37693 MEMB     321      POPC     H11A     HAL2     0.900000E-01   1.00800           0
     37694 MEMB     321      POPC     H11B     HAL2     0.900000E-01   1.00800           0
     37695 MEMB     321      POPC     P        PL        1.50000       30.9740           0
     37696 MEMB     321      POPC     O13      O2L     -0.780000       15.9994           0
     37697 MEMB     321      POPC     O14      O2L     -0.780000       15.9994           0
     37698 MEMB     321      POPC     O12      OSLP    -0.570000       15.9994           0
     37699 MEMB     321      POPC     O11      OSLP    -0.570000       15.9994           0
     37700 MEMB     321      POPC     C1       CTL2    -0.800000E-01   12.0110           0
     37701 MEMB     321      POPC     HA       HAL2     0.900000E-01   1.00800           0
     37702 MEMB     321      POPC     HB       HAL2     0.900000E-01   1.00800           0
     37703 MEMB     321      POPC     C2       CTL1     0.170000       12.0110           0
     37704 MEMB     321      POPC     HS       HAL1     0.900000E-01   1.00800           0
     37705 MEMB     321      POPC     O21      OSL     -0.490000       15.9994           0
     37706 MEMB     321      POPC     C21      CL       0.900000       12.0110           0
     37707 MEMB     321      POPC     O22      OBL     -0.630000       15.9994           0
     37708 MEMB     321      POPC     C22      CTL2    -0.220000       12.0110           0
     37709 MEMB     321      POPC     H2R      HAL2     0.900000E-01   1.00800           0
     37710 MEMB     321      POPC     H2S      HAL2     0.900000E-01   1.00800           0
     37711 MEMB     321      POPC     C3       CTL2     0.800000E-01   12.0110           0
     37712 MEMB     321      POPC     HX       HAL2     0.900000E-01   1.00800           0
     37713 MEMB     321      POPC     HY       HAL2     0.900000E-01   1.00800           0
     37714 MEMB     321      POPC     O31      OSL     -0.490000       15.9994           0
     37715 MEMB     321      POPC     C31      CL       0.900000       12.0110           0
     37716 MEMB     321      POPC     O32      OBL     -0.630000       15.9994           0
     37717 MEMB     321      POPC     C32      CTL2    -0.220000       12.0110           0
     37718 MEMB     321      POPC     H2X      HAL2     0.900000E-01   1.00800           0
     37719 MEMB     321      POPC     H2Y      HAL2     0.900000E-01   1.00800           0
     37720 MEMB     321      POPC     C23      CTL2    -0.180000       12.0110           0
     37721 MEMB     321      POPC     H3R      HAL2     0.900000E-01   1.00800           0
     37722 MEMB     321      POPC     H3S      HAL2     0.900000E-01   1.00800           0
     37723 MEMB     321      POPC     C24      CTL2    -0.180000       12.0110           0
     37724 MEMB     321      POPC     H4R      HAL2     0.900000E-01   1.00800           0
     37725 MEMB     321      POPC     H4S      HAL2     0.900000E-01   1.00800           0
     37726 MEMB     321      POPC     C25      CTL2    -0.180000       12.0110           0
     37727 MEMB     321      POPC     H5R      HAL2     0.900000E-01   1.00800           0
     37728 MEMB     321      POPC     H5S      HAL2     0.900000E-01   1.00800           0
     37729 MEMB     321      POPC     C26      CTL2    -0.180000       12.0110           0
     37730 MEMB     321      POPC     H6R      HAL2     0.900000E-01   1.00800           0
     37731 MEMB     321      POPC     H6S      HAL2     0.900000E-01   1.00800           0
     37732 MEMB     321      POPC     C27      CTL2    -0.180000       12.0110           0
     37733 MEMB     321      POPC     H7R      HAL2     0.900000E-01   1.00800           0
     37734 MEMB     321      POPC     H7S      HAL2     0.900000E-01   1.00800           0
     37735 MEMB     321      POPC     C28      CTL2    -0.180000       12.0110           0
     37736 MEMB     321      POPC     H8R      HAL2     0.900000E-01   1.00800           0
     37737 MEMB     321      POPC     H8S      HAL2     0.900000E-01   1.00800           0
     37738 MEMB     321      POPC     C29      CEL1    -0.150000       12.0110           0
     37739 MEMB     321      POPC     H91      HEL1     0.150000       1.00800           0
     37740 MEMB     321      POPC     C210     CEL1    -0.150000       12.0110           0
     37741 MEMB     321      POPC     H101     HEL1     0.150000       1.00800           0
     37742 MEMB     321      POPC     C211     CTL2    -0.180000       12.0110           0
     37743 MEMB     321      POPC     H11R     HAL2     0.900000E-01   1.00800           0
     37744 MEMB     321      POPC     H11S     HAL2     0.900000E-01   1.00800           0
     37745 MEMB     321      POPC     C212     CTL2    -0.180000       12.0110           0
     37746 MEMB     321      POPC     H12R     HAL2     0.900000E-01   1.00800           0
     37747 MEMB     321      POPC     H12S     HAL2     0.900000E-01   1.00800           0
     37748 MEMB     321      POPC     C213     CTL2    -0.180000       12.0110           0
     37749 MEMB     321      POPC     H13R     HAL2     0.900000E-01   1.00800           0
     37750 MEMB     321      POPC     H13S     HAL2     0.900000E-01   1.00800           0
     37751 MEMB     321      POPC     C214     CTL2    -0.180000       12.0110           0
     37752 MEMB     321      POPC     H14R     HAL2     0.900000E-01   1.00800           0
     37753 MEMB     321      POPC     H14S     HAL2     0.900000E-01   1.00800           0
     37754 MEMB     321      POPC     C215     CTL2    -0.180000       12.0110           0
     37755 MEMB     321      POPC     H15R     HAL2     0.900000E-01   1.00800           0
     37756 MEMB     321      POPC     H15S     HAL2     0.900000E-01   1.00800           0
     37757 MEMB     321      POPC     C216     CTL2    -0.180000       12.0110           0
     37758 MEMB     321      POPC     H16R     HAL2     0.900000E-01   1.00800           0
     37759 MEMB     321      POPC     H16S     HAL2     0.900000E-01   1.00800           0
     37760 MEMB     321      POPC     C217     CTL2    -0.180000       12.0110           0
     37761 MEMB     321      POPC     H17R     HAL2     0.900000E-01   1.00800           0
     37762 MEMB     321      POPC     H17S     HAL2     0.900000E-01   1.00800           0
     37763 MEMB     321      POPC     C218     CTL3    -0.270000       12.0110           0
     37764 MEMB     321      POPC     H18R     HAL3     0.900000E-01   1.00800           0
     37765 MEMB     321      POPC     H18S     HAL3     0.900000E-01   1.00800           0
     37766 MEMB     321      POPC     H18T     HAL3     0.900000E-01   1.00800           0
     37767 MEMB     321      POPC     C33      CTL2    -0.180000       12.0110           0
     37768 MEMB     321      POPC     H3X      HAL2     0.900000E-01   1.00800           0
     37769 MEMB     321      POPC     H3Y      HAL2     0.900000E-01   1.00800           0
     37770 MEMB     321      POPC     C34      CTL2    -0.180000       12.0110           0
     37771 MEMB     321      POPC     H4X      HAL2     0.900000E-01   1.00800           0
     37772 MEMB     321      POPC     H4Y      HAL2     0.900000E-01   1.00800           0
     37773 MEMB     321      POPC     C35      CTL2    -0.180000       12.0110           0
     37774 MEMB     321      POPC     H5X      HAL2     0.900000E-01   1.00800           0
     37775 MEMB     321      POPC     H5Y      HAL2     0.900000E-01   1.00800           0
     37776 MEMB     321      POPC     C36      CTL2    -0.180000       12.0110           0
     37777 MEMB     321      POPC     H6X      HAL2     0.900000E-01   1.00800           0
     37778 MEMB     321      POPC     H6Y      HAL2     0.900000E-01   1.00800           0
     37779 MEMB     321      POPC     C37      CTL2    -0.180000       12.0110           0
     37780 MEMB     321      POPC     H7X      HAL2     0.900000E-01   1.00800           0
     37781 MEMB     321      POPC     H7Y      HAL2     0.900000E-01   1.00800           0
     37782 MEMB     321      POPC     C38      CTL2    -0.180000       12.0110           0
     37783 MEMB     321      POPC     H8X      HAL2     0.900000E-01   1.00800           0
     37784 MEMB     321      POPC     H8Y      HAL2     0.900000E-01   1.00800           0
     37785 MEMB     321      POPC     C39      CTL2    -0.180000       12.0110           0
     37786 MEMB     321      POPC     H9X      HAL2     0.900000E-01   1.00800           0
     37787 MEMB     321      POPC     H9Y      HAL2     0.900000E-01   1.00800           0
     37788 MEMB     321      POPC     C310     CTL2    -0.180000       12.0110           0
     37789 MEMB     321      POPC     H10X     HAL2     0.900000E-01   1.00800           0
     37790 MEMB     321      POPC     H10Y     HAL2     0.900000E-01   1.00800           0
     37791 MEMB     321      POPC     C311     CTL2    -0.180000       12.0110           0
     37792 MEMB     321      POPC     H11X     HAL2     0.900000E-01   1.00800           0
     37793 MEMB     321      POPC     H11Y     HAL2     0.900000E-01   1.00800           0
     37794 MEMB     321      POPC     C312     CTL2    -0.180000       12.0110           0
     37795 MEMB     321      POPC     H12X     HAL2     0.900000E-01   1.00800           0
     37796 MEMB     321      POPC     H12Y     HAL2     0.900000E-01   1.00800           0
     37797 MEMB     321      POPC     C313     CTL2    -0.180000       12.0110           0
     37798 MEMB     321      POPC     H13X     HAL2     0.900000E-01   1.00800           0
     37799 MEMB     321      POPC     H13Y     HAL2     0.900000E-01   1.00800           0
     37800 MEMB     321      POPC     C314     CTL2    -0.180000       12.0110           0
     37801 MEMB     321      POPC     H14X     HAL2     0.900000E-01   1.00800           0
     37802 MEMB     321      POPC     H14Y     HAL2     0.900000E-01   1.00800           0
     37803 MEMB     321      POPC     C315     CTL2    -0.180000       12.0110           0
     37804 MEMB     321      POPC     H15X     HAL2     0.900000E-01   1.00800           0
     37805 MEMB     321      POPC     H15Y     HAL2     0.900000E-01   1.00800           0
     37806 MEMB     321      POPC     C316     CTL3    -0.270000       12.0110           0
     37807 MEMB     321      POPC     H16X     HAL3     0.900000E-01   1.00800           0
     37808 MEMB     321      POPC     H16Y     HAL3     0.900000E-01   1.00800           0
     37809 MEMB     321      POPC     H16Z     HAL3     0.900000E-01   1.00800           0
     37810 MEMB     322      POPC     N        NTL     -0.600000       14.0070           0
     37811 MEMB     322      POPC     C12      CTL2    -0.100000       12.0110           0
     37812 MEMB     322      POPC     H12A     HL       0.250000       1.00800           0
     37813 MEMB     322      POPC     H12B     HL       0.250000       1.00800           0
     37814 MEMB     322      POPC     C13      CTL5    -0.350000       12.0110           0
     37815 MEMB     322      POPC     H13A     HL       0.250000       1.00800           0
     37816 MEMB     322      POPC     H13B     HL       0.250000       1.00800           0
     37817 MEMB     322      POPC     H13C     HL       0.250000       1.00800           0
     37818 MEMB     322      POPC     C14      CTL5    -0.350000       12.0110           0
     37819 MEMB     322      POPC     H14A     HL       0.250000       1.00800           0
     37820 MEMB     322      POPC     H14B     HL       0.250000       1.00800           0
     37821 MEMB     322      POPC     H14C     HL       0.250000       1.00800           0
     37822 MEMB     322      POPC     C15      CTL5    -0.350000       12.0110           0
     37823 MEMB     322      POPC     H15A     HL       0.250000       1.00800           0
     37824 MEMB     322      POPC     H15B     HL       0.250000       1.00800           0
     37825 MEMB     322      POPC     H15C     HL       0.250000       1.00800           0
     37826 MEMB     322      POPC     C11      CTL2    -0.800000E-01   12.0110           0
     37827 MEMB     322      POPC     H11A     HAL2     0.900000E-01   1.00800           0
     37828 MEMB     322      POPC     H11B     HAL2     0.900000E-01   1.00800           0
     37829 MEMB     322      POPC     P        PL        1.50000       30.9740           0
     37830 MEMB     322      POPC     O13      O2L     -0.780000       15.9994           0
     37831 MEMB     322      POPC     O14      O2L     -0.780000       15.9994           0
     37832 MEMB     322      POPC     O12      OSLP    -0.570000       15.9994           0
     37833 MEMB     322      POPC     O11      OSLP    -0.570000       15.9994           0
     37834 MEMB     322      POPC     C1       CTL2    -0.800000E-01   12.0110           0
     37835 MEMB     322      POPC     HA       HAL2     0.900000E-01   1.00800           0
     37836 MEMB     322      POPC     HB       HAL2     0.900000E-01   1.00800           0
     37837 MEMB     322      POPC     C2       CTL1     0.170000       12.0110           0
     37838 MEMB     322      POPC     HS       HAL1     0.900000E-01   1.00800           0
     37839 MEMB     322      POPC     O21      OSL     -0.490000       15.9994           0
     37840 MEMB     322      POPC     C21      CL       0.900000       12.0110           0
     37841 MEMB     322      POPC     O22      OBL     -0.630000       15.9994           0
     37842 MEMB     322      POPC     C22      CTL2    -0.220000       12.0110           0
     37843 MEMB     322      POPC     H2R      HAL2     0.900000E-01   1.00800           0
     37844 MEMB     322      POPC     H2S      HAL2     0.900000E-01   1.00800           0
     37845 MEMB     322      POPC     C3       CTL2     0.800000E-01   12.0110           0
     37846 MEMB     322      POPC     HX       HAL2     0.900000E-01   1.00800           0
     37847 MEMB     322      POPC     HY       HAL2     0.900000E-01   1.00800           0
     37848 MEMB     322      POPC     O31      OSL     -0.490000       15.9994           0
     37849 MEMB     322      POPC     C31      CL       0.900000       12.0110           0
     37850 MEMB     322      POPC     O32      OBL     -0.630000       15.9994           0
     37851 MEMB     322      POPC     C32      CTL2    -0.220000       12.0110           0
     37852 MEMB     322      POPC     H2X      HAL2     0.900000E-01   1.00800           0
     37853 MEMB     322      POPC     H2Y      HAL2     0.900000E-01   1.00800           0
     37854 MEMB     322      POPC     C23      CTL2    -0.180000       12.0110           0
     37855 MEMB     322      POPC     H3R      HAL2     0.900000E-01   1.00800           0
     37856 MEMB     322      POPC     H3S      HAL2     0.900000E-01   1.00800           0
     37857 MEMB     322      POPC     C24      CTL2    -0.180000       12.0110           0
     37858 MEMB     322      POPC     H4R      HAL2     0.900000E-01   1.00800           0
     37859 MEMB     322      POPC     H4S      HAL2     0.900000E-01   1.00800           0
     37860 MEMB     322      POPC     C25      CTL2    -0.180000       12.0110           0
     37861 MEMB     322      POPC     H5R      HAL2     0.900000E-01   1.00800           0
     37862 MEMB     322      POPC     H5S      HAL2     0.900000E-01   1.00800           0
     37863 MEMB     322      POPC     C26      CTL2    -0.180000       12.0110           0
     37864 MEMB     322      POPC     H6R      HAL2     0.900000E-01   1.00800           0
     37865 MEMB     322      POPC     H6S      HAL2     0.900000E-01   1.00800           0
     37866 MEMB     322      POPC     C27      CTL2    -0.180000       12.0110           0
     37867 MEMB     322      POPC     H7R      HAL2     0.900000E-01   1.00800           0
     37868 MEMB     322      POPC     H7S      HAL2     0.900000E-01   1.00800           0
     37869 MEMB     322      POPC     C28      CTL2    -0.180000       12.0110           0
     37870 MEMB     322      POPC     H8R      HAL2     0.900000E-01   1.00800           0
     37871 MEMB     322      POPC     H8S      HAL2     0.900000E-01   1.00800           0
     37872 MEMB     322      POPC     C29      CEL1    -0.150000       12.0110           0
     37873 MEMB     322      POPC     H91      HEL1     0.150000       1.00800           0
     37874 MEMB     322      POPC     C210     CEL1    -0.150000       12.0110           0
     37875 MEMB     322      POPC     H101     HEL1     0.150000       1.00800           0
     37876 MEMB     322      POPC     C211     CTL2    -0.180000       12.0110           0
     37877 MEMB     322      POPC     H11R     HAL2     0.900000E-01   1.00800           0
     37878 MEMB     322      POPC     H11S     HAL2     0.900000E-01   1.00800           0
     37879 MEMB     322      POPC     C212     CTL2    -0.180000       12.0110           0
     37880 MEMB     322      POPC     H12R     HAL2     0.900000E-01   1.00800           0
     37881 MEMB     322      POPC     H12S     HAL2     0.900000E-01   1.00800           0
     37882 MEMB     322      POPC     C213     CTL2    -0.180000       12.0110           0
     37883 MEMB     322      POPC     H13R     HAL2     0.900000E-01   1.00800           0
     37884 MEMB     322      POPC     H13S     HAL2     0.900000E-01   1.00800           0
     37885 MEMB     322      POPC     C214     CTL2    -0.180000       12.0110           0
     37886 MEMB     322      POPC     H14R     HAL2     0.900000E-01   1.00800           0
     37887 MEMB     322      POPC     H14S     HAL2     0.900000E-01   1.00800           0
     37888 MEMB     322      POPC     C215     CTL2    -0.180000       12.0110           0
     37889 MEMB     322      POPC     H15R     HAL2     0.900000E-01   1.00800           0
     37890 MEMB     322      POPC     H15S     HAL2     0.900000E-01   1.00800           0
     37891 MEMB     322      POPC     C216     CTL2    -0.180000       12.0110           0
     37892 MEMB     322      POPC     H16R     HAL2     0.900000E-01   1.00800           0
     37893 MEMB     322      POPC     H16S     HAL2     0.900000E-01   1.00800           0
     37894 MEMB     322      POPC     C217     CTL2    -0.180000       12.0110           0
     37895 MEMB     322      POPC     H17R     HAL2     0.900000E-01   1.00800           0
     37896 MEMB     322      POPC     H17S     HAL2     0.900000E-01   1.00800           0
     37897 MEMB     322      POPC     C218     CTL3    -0.270000       12.0110           0
     37898 MEMB     322      POPC     H18R     HAL3     0.900000E-01   1.00800           0
     37899 MEMB     322      POPC     H18S     HAL3     0.900000E-01   1.00800           0
     37900 MEMB     322      POPC     H18T     HAL3     0.900000E-01   1.00800           0
     37901 MEMB     322      POPC     C33      CTL2    -0.180000       12.0110           0
     37902 MEMB     322      POPC     H3X      HAL2     0.900000E-01   1.00800           0
     37903 MEMB     322      POPC     H3Y      HAL2     0.900000E-01   1.00800           0
     37904 MEMB     322      POPC     C34      CTL2    -0.180000       12.0110           0
     37905 MEMB     322      POPC     H4X      HAL2     0.900000E-01   1.00800           0
     37906 MEMB     322      POPC     H4Y      HAL2     0.900000E-01   1.00800           0
     37907 MEMB     322      POPC     C35      CTL2    -0.180000       12.0110           0
     37908 MEMB     322      POPC     H5X      HAL2     0.900000E-01   1.00800           0
     37909 MEMB     322      POPC     H5Y      HAL2     0.900000E-01   1.00800           0
     37910 MEMB     322      POPC     C36      CTL2    -0.180000       12.0110           0
     37911 MEMB     322      POPC     H6X      HAL2     0.900000E-01   1.00800           0
     37912 MEMB     322      POPC     H6Y      HAL2     0.900000E-01   1.00800           0
     37913 MEMB     322      POPC     C37      CTL2    -0.180000       12.0110           0
     37914 MEMB     322      POPC     H7X      HAL2     0.900000E-01   1.00800           0
     37915 MEMB     322      POPC     H7Y      HAL2     0.900000E-01   1.00800           0
     37916 MEMB     322      POPC     C38      CTL2    -0.180000       12.0110           0
     37917 MEMB     322      POPC     H8X      HAL2     0.900000E-01   1.00800           0
     37918 MEMB     322      POPC     H8Y      HAL2     0.900000E-01   1.00800           0
     37919 MEMB     322      POPC     C39      CTL2    -0.180000       12.0110           0
     37920 MEMB     322      POPC     H9X      HAL2     0.900000E-01   1.00800           0
     37921 MEMB     322      POPC     H9Y      HAL2     0.900000E-01   1.00800           0
     37922 MEMB     322      POPC     C310     CTL2    -0.180000       12.0110           0
     37923 MEMB     322      POPC     H10X     HAL2     0.900000E-01   1.00800           0
     37924 MEMB     322      POPC     H10Y     HAL2     0.900000E-01   1.00800           0
     37925 MEMB     322      POPC     C311     CTL2    -0.180000       12.0110           0
     37926 MEMB     322      POPC     H11X     HAL2     0.900000E-01   1.00800           0
     37927 MEMB     322      POPC     H11Y     HAL2     0.900000E-01   1.00800           0
     37928 MEMB     322      POPC     C312     CTL2    -0.180000       12.0110           0
     37929 MEMB     322      POPC     H12X     HAL2     0.900000E-01   1.00800           0
     37930 MEMB     322      POPC     H12Y     HAL2     0.900000E-01   1.00800           0
     37931 MEMB     322      POPC     C313     CTL2    -0.180000       12.0110           0
     37932 MEMB     322      POPC     H13X     HAL2     0.900000E-01   1.00800           0
     37933 MEMB     322      POPC     H13Y     HAL2     0.900000E-01   1.00800           0
     37934 MEMB     322      POPC     C314     CTL2    -0.180000       12.0110           0
     37935 MEMB     322      POPC     H14X     HAL2     0.900000E-01   1.00800           0
     37936 MEMB     322      POPC     H14Y     HAL2     0.900000E-01   1.00800           0
     37937 MEMB     322      POPC     C315     CTL2    -0.180000       12.0110           0
     37938 MEMB     322      POPC     H15X     HAL2     0.900000E-01   1.00800           0
     37939 MEMB     322      POPC     H15Y     HAL2     0.900000E-01   1.00800           0
     37940 MEMB     322      POPC     C316     CTL3    -0.270000       12.0110           0
     37941 MEMB     322      POPC     H16X     HAL3     0.900000E-01   1.00800           0
     37942 MEMB     322      POPC     H16Y     HAL3     0.900000E-01   1.00800           0
     37943 MEMB     322      POPC     H16Z     HAL3     0.900000E-01   1.00800           0
     37944 MEMB     323      POPC     N        NTL     -0.600000       14.0070           0
     37945 MEMB     323      POPC     C12      CTL2    -0.100000       12.0110           0
     37946 MEMB     323      POPC     H12A     HL       0.250000       1.00800           0
     37947 MEMB     323      POPC     H12B     HL       0.250000       1.00800           0
     37948 MEMB     323      POPC     C13      CTL5    -0.350000       12.0110           0
     37949 MEMB     323      POPC     H13A     HL       0.250000       1.00800           0
     37950 MEMB     323      POPC     H13B     HL       0.250000       1.00800           0
     37951 MEMB     323      POPC     H13C     HL       0.250000       1.00800           0
     37952 MEMB     323      POPC     C14      CTL5    -0.350000       12.0110           0
     37953 MEMB     323      POPC     H14A     HL       0.250000       1.00800           0
     37954 MEMB     323      POPC     H14B     HL       0.250000       1.00800           0
     37955 MEMB     323      POPC     H14C     HL       0.250000       1.00800           0
     37956 MEMB     323      POPC     C15      CTL5    -0.350000       12.0110           0
     37957 MEMB     323      POPC     H15A     HL       0.250000       1.00800           0
     37958 MEMB     323      POPC     H15B     HL       0.250000       1.00800           0
     37959 MEMB     323      POPC     H15C     HL       0.250000       1.00800           0
     37960 MEMB     323      POPC     C11      CTL2    -0.800000E-01   12.0110           0
     37961 MEMB     323      POPC     H11A     HAL2     0.900000E-01   1.00800           0
     37962 MEMB     323      POPC     H11B     HAL2     0.900000E-01   1.00800           0
     37963 MEMB     323      POPC     P        PL        1.50000       30.9740           0
     37964 MEMB     323      POPC     O13      O2L     -0.780000       15.9994           0
     37965 MEMB     323      POPC     O14      O2L     -0.780000       15.9994           0
     37966 MEMB     323      POPC     O12      OSLP    -0.570000       15.9994           0
     37967 MEMB     323      POPC     O11      OSLP    -0.570000       15.9994           0
     37968 MEMB     323      POPC     C1       CTL2    -0.800000E-01   12.0110           0
     37969 MEMB     323      POPC     HA       HAL2     0.900000E-01   1.00800           0
     37970 MEMB     323      POPC     HB       HAL2     0.900000E-01   1.00800           0
     37971 MEMB     323      POPC     C2       CTL1     0.170000       12.0110           0
     37972 MEMB     323      POPC     HS       HAL1     0.900000E-01   1.00800           0
     37973 MEMB     323      POPC     O21      OSL     -0.490000       15.9994           0
     37974 MEMB     323      POPC     C21      CL       0.900000       12.0110           0
     37975 MEMB     323      POPC     O22      OBL     -0.630000       15.9994           0
     37976 MEMB     323      POPC     C22      CTL2    -0.220000       12.0110           0
     37977 MEMB     323      POPC     H2R      HAL2     0.900000E-01   1.00800           0
     37978 MEMB     323      POPC     H2S      HAL2     0.900000E-01   1.00800           0
     37979 MEMB     323      POPC     C3       CTL2     0.800000E-01   12.0110           0
     37980 MEMB     323      POPC     HX       HAL2     0.900000E-01   1.00800           0
     37981 MEMB     323      POPC     HY       HAL2     0.900000E-01   1.00800           0
     37982 MEMB     323      POPC     O31      OSL     -0.490000       15.9994           0
     37983 MEMB     323      POPC     C31      CL       0.900000       12.0110           0
     37984 MEMB     323      POPC     O32      OBL     -0.630000       15.9994           0
     37985 MEMB     323      POPC     C32      CTL2    -0.220000       12.0110           0
     37986 MEMB     323      POPC     H2X      HAL2     0.900000E-01   1.00800           0
     37987 MEMB     323      POPC     H2Y      HAL2     0.900000E-01   1.00800           0
     37988 MEMB     323      POPC     C23      CTL2    -0.180000       12.0110           0
     37989 MEMB     323      POPC     H3R      HAL2     0.900000E-01   1.00800           0
     37990 MEMB     323      POPC     H3S      HAL2     0.900000E-01   1.00800           0
     37991 MEMB     323      POPC     C24      CTL2    -0.180000       12.0110           0
     37992 MEMB     323      POPC     H4R      HAL2     0.900000E-01   1.00800           0
     37993 MEMB     323      POPC     H4S      HAL2     0.900000E-01   1.00800           0
     37994 MEMB     323      POPC     C25      CTL2    -0.180000       12.0110           0
     37995 MEMB     323      POPC     H5R      HAL2     0.900000E-01   1.00800           0
     37996 MEMB     323      POPC     H5S      HAL2     0.900000E-01   1.00800           0
     37997 MEMB     323      POPC     C26      CTL2    -0.180000       12.0110           0
     37998 MEMB     323      POPC     H6R      HAL2     0.900000E-01   1.00800           0
     37999 MEMB     323      POPC     H6S      HAL2     0.900000E-01   1.00800           0
     38000 MEMB     323      POPC     C27      CTL2    -0.180000       12.0110           0
     38001 MEMB     323      POPC     H7R      HAL2     0.900000E-01   1.00800           0
     38002 MEMB     323      POPC     H7S      HAL2     0.900000E-01   1.00800           0
     38003 MEMB     323      POPC     C28      CTL2    -0.180000       12.0110           0
     38004 MEMB     323      POPC     H8R      HAL2     0.900000E-01   1.00800           0
     38005 MEMB     323      POPC     H8S      HAL2     0.900000E-01   1.00800           0
     38006 MEMB     323      POPC     C29      CEL1    -0.150000       12.0110           0
     38007 MEMB     323      POPC     H91      HEL1     0.150000       1.00800           0
     38008 MEMB     323      POPC     C210     CEL1    -0.150000       12.0110           0
     38009 MEMB     323      POPC     H101     HEL1     0.150000       1.00800           0
     38010 MEMB     323      POPC     C211     CTL2    -0.180000       12.0110           0
     38011 MEMB     323      POPC     H11R     HAL2     0.900000E-01   1.00800           0
     38012 MEMB     323      POPC     H11S     HAL2     0.900000E-01   1.00800           0
     38013 MEMB     323      POPC     C212     CTL2    -0.180000       12.0110           0
     38014 MEMB     323      POPC     H12R     HAL2     0.900000E-01   1.00800           0
     38015 MEMB     323      POPC     H12S     HAL2     0.900000E-01   1.00800           0
     38016 MEMB     323      POPC     C213     CTL2    -0.180000       12.0110           0
     38017 MEMB     323      POPC     H13R     HAL2     0.900000E-01   1.00800           0
     38018 MEMB     323      POPC     H13S     HAL2     0.900000E-01   1.00800           0
     38019 MEMB     323      POPC     C214     CTL2    -0.180000       12.0110           0
     38020 MEMB     323      POPC     H14R     HAL2     0.900000E-01   1.00800           0
     38021 MEMB     323      POPC     H14S     HAL2     0.900000E-01   1.00800           0
     38022 MEMB     323      POPC     C215     CTL2    -0.180000       12.0110           0
     38023 MEMB     323      POPC     H15R     HAL2     0.900000E-01   1.00800           0
     38024 MEMB     323      POPC     H15S     HAL2     0.900000E-01   1.00800           0
     38025 MEMB     323      POPC     C216     CTL2    -0.180000       12.0110           0
     38026 MEMB     323      POPC     H16R     HAL2     0.900000E-01   1.00800           0
     38027 MEMB     323      POPC     H16S     HAL2     0.900000E-01   1.00800           0
     38028 MEMB     323      POPC     C217     CTL2    -0.180000       12.0110           0
     38029 MEMB     323      POPC     H17R     HAL2     0.900000E-01   1.00800           0
     38030 MEMB     323      POPC     H17S     HAL2     0.900000E-01   1.00800           0
     38031 MEMB     323      POPC     C218     CTL3    -0.270000       12.0110           0
     38032 MEMB     323      POPC     H18R     HAL3     0.900000E-01   1.00800           0
     38033 MEMB     323      POPC     H18S     HAL3     0.900000E-01   1.00800           0
     38034 MEMB     323      POPC     H18T     HAL3     0.900000E-01   1.00800           0
     38035 MEMB     323      POPC     C33      CTL2    -0.180000       12.0110           0
     38036 MEMB     323      POPC     H3X      HAL2     0.900000E-01   1.00800           0
     38037 MEMB     323      POPC     H3Y      HAL2     0.900000E-01   1.00800           0
     38038 MEMB     323      POPC     C34      CTL2    -0.180000       12.0110           0
     38039 MEMB     323      POPC     H4X      HAL2     0.900000E-01   1.00800           0
     38040 MEMB     323      POPC     H4Y      HAL2     0.900000E-01   1.00800           0
     38041 MEMB     323      POPC     C35      CTL2    -0.180000       12.0110           0
     38042 MEMB     323      POPC     H5X      HAL2     0.900000E-01   1.00800           0
     38043 MEMB     323      POPC     H5Y      HAL2     0.900000E-01   1.00800           0
     38044 MEMB     323      POPC     C36      CTL2    -0.180000       12.0110           0
     38045 MEMB     323      POPC     H6X      HAL2     0.900000E-01   1.00800           0
     38046 MEMB     323      POPC     H6Y      HAL2     0.900000E-01   1.00800           0
     38047 MEMB     323      POPC     C37      CTL2    -0.180000       12.0110           0
     38048 MEMB     323      POPC     H7X      HAL2     0.900000E-01   1.00800           0
     38049 MEMB     323      POPC     H7Y      HAL2     0.900000E-01   1.00800           0
     38050 MEMB     323      POPC     C38      CTL2    -0.180000       12.0110           0
     38051 MEMB     323      POPC     H8X      HAL2     0.900000E-01   1.00800           0
     38052 MEMB     323      POPC     H8Y      HAL2     0.900000E-01   1.00800           0
     38053 MEMB     323      POPC     C39      CTL2    -0.180000       12.0110           0
     38054 MEMB     323      POPC     H9X      HAL2     0.900000E-01   1.00800           0
     38055 MEMB     323      POPC     H9Y      HAL2     0.900000E-01   1.00800           0
     38056 MEMB     323      POPC     C310     CTL2    -0.180000       12.0110           0
     38057 MEMB     323      POPC     H10X     HAL2     0.900000E-01   1.00800           0
     38058 MEMB     323      POPC     H10Y     HAL2     0.900000E-01   1.00800           0
     38059 MEMB     323      POPC     C311     CTL2    -0.180000       12.0110           0
     38060 MEMB     323      POPC     H11X     HAL2     0.900000E-01   1.00800           0
     38061 MEMB     323      POPC     H11Y     HAL2     0.900000E-01   1.00800           0
     38062 MEMB     323      POPC     C312     CTL2    -0.180000       12.0110           0
     38063 MEMB     323      POPC     H12X     HAL2     0.900000E-01   1.00800           0
     38064 MEMB     323      POPC     H12Y     HAL2     0.900000E-01   1.00800           0
     38065 MEMB     323      POPC     C313     CTL2    -0.180000       12.0110           0
     38066 MEMB     323      POPC     H13X     HAL2     0.900000E-01   1.00800           0
     38067 MEMB     323      POPC     H13Y     HAL2     0.900000E-01   1.00800           0
     38068 MEMB     323      POPC     C314     CTL2    -0.180000       12.0110           0
     38069 MEMB     323      POPC     H14X     HAL2     0.900000E-01   1.00800           0
     38070 MEMB     323      POPC     H14Y     HAL2     0.900000E-01   1.00800           0
     38071 MEMB     323      POPC     C315     CTL2    -0.180000       12.0110           0
     38072 MEMB     323      POPC     H15X     HAL2     0.900000E-01   1.00800           0
     38073 MEMB     323      POPC     H15Y     HAL2     0.900000E-01   1.00800           0
     38074 MEMB     323      POPC     C316     CTL3    -0.270000       12.0110           0
     38075 MEMB     323      POPC     H16X     HAL3     0.900000E-01   1.00800           0
     38076 MEMB     323      POPC     H16Y     HAL3     0.900000E-01   1.00800           0
     38077 MEMB     323      POPC     H16Z     HAL3     0.900000E-01   1.00800           0
     38078 MEMB     324      POPE     N        NH3L    -0.300000       14.0070           0
     38079 MEMB     324      POPE     HN1      HCL      0.330000       1.00800           0
     38080 MEMB     324      POPE     HN2      HCL      0.330000       1.00800           0
     38081 MEMB     324      POPE     HN3      HCL      0.330000       1.00800           0
     38082 MEMB     324      POPE     C12      CTL2     0.130000       12.0110           0
     38083 MEMB     324      POPE     H12A     HAL2     0.900000E-01   1.00800           0
     38084 MEMB     324      POPE     H12B     HAL2     0.900000E-01   1.00800           0
     38085 MEMB     324      POPE     C11      CTL2    -0.800000E-01   12.0110           0
     38086 MEMB     324      POPE     H11A     HAL2     0.900000E-01   1.00800           0
     38087 MEMB     324      POPE     H11B     HAL2     0.900000E-01   1.00800           0
     38088 MEMB     324      POPE     P        PL        1.50000       30.9740           0
     38089 MEMB     324      POPE     O13      O2L     -0.780000       15.9994           0
     38090 MEMB     324      POPE     O14      O2L     -0.780000       15.9994           0
     38091 MEMB     324      POPE     O11      OSLP    -0.570000       15.9994           0
     38092 MEMB     324      POPE     O12      OSLP    -0.570000       15.9994           0
     38093 MEMB     324      POPE     C1       CTL2    -0.800000E-01   12.0110           0
     38094 MEMB     324      POPE     HA       HAL2     0.900000E-01   1.00800           0
     38095 MEMB     324      POPE     HB       HAL2     0.900000E-01   1.00800           0
     38096 MEMB     324      POPE     C2       CTL1     0.170000       12.0110           0
     38097 MEMB     324      POPE     HS       HAL1     0.900000E-01   1.00800           0
     38098 MEMB     324      POPE     O21      OSL     -0.490000       15.9994           0
     38099 MEMB     324      POPE     C21      CL       0.900000       12.0110           0
     38100 MEMB     324      POPE     O22      OBL     -0.630000       15.9994           0
     38101 MEMB     324      POPE     C22      CTL2    -0.220000       12.0110           0
     38102 MEMB     324      POPE     H2R      HAL2     0.900000E-01   1.00800           0
     38103 MEMB     324      POPE     H2S      HAL2     0.900000E-01   1.00800           0
     38104 MEMB     324      POPE     C3       CTL2     0.800000E-01   12.0110           0
     38105 MEMB     324      POPE     HX       HAL2     0.900000E-01   1.00800           0
     38106 MEMB     324      POPE     HY       HAL2     0.900000E-01   1.00800           0
     38107 MEMB     324      POPE     O31      OSL     -0.490000       15.9994           0
     38108 MEMB     324      POPE     C31      CL       0.900000       12.0110           0
     38109 MEMB     324      POPE     O32      OBL     -0.630000       15.9994           0
     38110 MEMB     324      POPE     C32      CTL2    -0.220000       12.0110           0
     38111 MEMB     324      POPE     H2X      HAL2     0.900000E-01   1.00800           0
     38112 MEMB     324      POPE     H2Y      HAL2     0.900000E-01   1.00800           0
     38113 MEMB     324      POPE     C23      CTL2    -0.180000       12.0110           0
     38114 MEMB     324      POPE     H3R      HAL2     0.900000E-01   1.00800           0
     38115 MEMB     324      POPE     H3S      HAL2     0.900000E-01   1.00800           0
     38116 MEMB     324      POPE     C24      CTL2    -0.180000       12.0110           0
     38117 MEMB     324      POPE     H4R      HAL2     0.900000E-01   1.00800           0
     38118 MEMB     324      POPE     H4S      HAL2     0.900000E-01   1.00800           0
     38119 MEMB     324      POPE     C25      CTL2    -0.180000       12.0110           0
     38120 MEMB     324      POPE     H5R      HAL2     0.900000E-01   1.00800           0
     38121 MEMB     324      POPE     H5S      HAL2     0.900000E-01   1.00800           0
     38122 MEMB     324      POPE     C26      CTL2    -0.180000       12.0110           0
     38123 MEMB     324      POPE     H6R      HAL2     0.900000E-01   1.00800           0
     38124 MEMB     324      POPE     H6S      HAL2     0.900000E-01   1.00800           0
     38125 MEMB     324      POPE     C27      CTL2    -0.180000       12.0110           0
     38126 MEMB     324      POPE     H7R      HAL2     0.900000E-01   1.00800           0
     38127 MEMB     324      POPE     H7S      HAL2     0.900000E-01   1.00800           0
     38128 MEMB     324      POPE     C28      CTL2    -0.180000       12.0110           0
     38129 MEMB     324      POPE     H8R      HAL2     0.900000E-01   1.00800           0
     38130 MEMB     324      POPE     H8S      HAL2     0.900000E-01   1.00800           0
     38131 MEMB     324      POPE     C29      CEL1    -0.150000       12.0110           0
     38132 MEMB     324      POPE     H91      HEL1     0.150000       1.00800           0
     38133 MEMB     324      POPE     C210     CEL1    -0.150000       12.0110           0
     38134 MEMB     324      POPE     H101     HEL1     0.150000       1.00800           0
     38135 MEMB     324      POPE     C211     CTL2    -0.180000       12.0110           0
     38136 MEMB     324      POPE     H11R     HAL2     0.900000E-01   1.00800           0
     38137 MEMB     324      POPE     H11S     HAL2     0.900000E-01   1.00800           0
     38138 MEMB     324      POPE     C212     CTL2    -0.180000       12.0110           0
     38139 MEMB     324      POPE     H12R     HAL2     0.900000E-01   1.00800           0
     38140 MEMB     324      POPE     H12S     HAL2     0.900000E-01   1.00800           0
     38141 MEMB     324      POPE     C213     CTL2    -0.180000       12.0110           0
     38142 MEMB     324      POPE     H13R     HAL2     0.900000E-01   1.00800           0
     38143 MEMB     324      POPE     H13S     HAL2     0.900000E-01   1.00800           0
     38144 MEMB     324      POPE     C214     CTL2    -0.180000       12.0110           0
     38145 MEMB     324      POPE     H14R     HAL2     0.900000E-01   1.00800           0
     38146 MEMB     324      POPE     H14S     HAL2     0.900000E-01   1.00800           0
     38147 MEMB     324      POPE     C215     CTL2    -0.180000       12.0110           0
     38148 MEMB     324      POPE     H15R     HAL2     0.900000E-01   1.00800           0
     38149 MEMB     324      POPE     H15S     HAL2     0.900000E-01   1.00800           0
     38150 MEMB     324      POPE     C216     CTL2    -0.180000       12.0110           0
     38151 MEMB     324      POPE     H16R     HAL2     0.900000E-01   1.00800           0
     38152 MEMB     324      POPE     H16S     HAL2     0.900000E-01   1.00800           0
     38153 MEMB     324      POPE     C217     CTL2    -0.180000       12.0110           0
     38154 MEMB     324      POPE     H17R     HAL2     0.900000E-01   1.00800           0
     38155 MEMB     324      POPE     H17S     HAL2     0.900000E-01   1.00800           0
     38156 MEMB     324      POPE     C218     CTL3    -0.270000       12.0110           0
     38157 MEMB     324      POPE     H18R     HAL3     0.900000E-01   1.00800           0
     38158 MEMB     324      POPE     H18S     HAL3     0.900000E-01   1.00800           0
     38159 MEMB     324      POPE     H18T     HAL3     0.900000E-01   1.00800           0
     38160 MEMB     324      POPE     C33      CTL2    -0.180000       12.0110           0
     38161 MEMB     324      POPE     H3X      HAL2     0.900000E-01   1.00800           0
     38162 MEMB     324      POPE     H3Y      HAL2     0.900000E-01   1.00800           0
     38163 MEMB     324      POPE     C34      CTL2    -0.180000       12.0110           0
     38164 MEMB     324      POPE     H4X      HAL2     0.900000E-01   1.00800           0
     38165 MEMB     324      POPE     H4Y      HAL2     0.900000E-01   1.00800           0
     38166 MEMB     324      POPE     C35      CTL2    -0.180000       12.0110           0
     38167 MEMB     324      POPE     H5X      HAL2     0.900000E-01   1.00800           0
     38168 MEMB     324      POPE     H5Y      HAL2     0.900000E-01   1.00800           0
     38169 MEMB     324      POPE     C36      CTL2    -0.180000       12.0110           0
     38170 MEMB     324      POPE     H6X      HAL2     0.900000E-01   1.00800           0
     38171 MEMB     324      POPE     H6Y      HAL2     0.900000E-01   1.00800           0
     38172 MEMB     324      POPE     C37      CTL2    -0.180000       12.0110           0
     38173 MEMB     324      POPE     H7X      HAL2     0.900000E-01   1.00800           0
     38174 MEMB     324      POPE     H7Y      HAL2     0.900000E-01   1.00800           0
     38175 MEMB     324      POPE     C38      CTL2    -0.180000       12.0110           0
     38176 MEMB     324      POPE     H8X      HAL2     0.900000E-01   1.00800           0
     38177 MEMB     324      POPE     H8Y      HAL2     0.900000E-01   1.00800           0
     38178 MEMB     324      POPE     C39      CTL2    -0.180000       12.0110           0
     38179 MEMB     324      POPE     H9X      HAL2     0.900000E-01   1.00800           0
     38180 MEMB     324      POPE     H9Y      HAL2     0.900000E-01   1.00800           0
     38181 MEMB     324      POPE     C310     CTL2    -0.180000       12.0110           0
     38182 MEMB     324      POPE     H10X     HAL2     0.900000E-01   1.00800           0
     38183 MEMB     324      POPE     H10Y     HAL2     0.900000E-01   1.00800           0
     38184 MEMB     324      POPE     C311     CTL2    -0.180000       12.0110           0
     38185 MEMB     324      POPE     H11X     HAL2     0.900000E-01   1.00800           0
     38186 MEMB     324      POPE     H11Y     HAL2     0.900000E-01   1.00800           0
     38187 MEMB     324      POPE     C312     CTL2    -0.180000       12.0110           0
     38188 MEMB     324      POPE     H12X     HAL2     0.900000E-01   1.00800           0
     38189 MEMB     324      POPE     H12Y     HAL2     0.900000E-01   1.00800           0
     38190 MEMB     324      POPE     C313     CTL2    -0.180000       12.0110           0
     38191 MEMB     324      POPE     H13X     HAL2     0.900000E-01   1.00800           0
     38192 MEMB     324      POPE     H13Y     HAL2     0.900000E-01   1.00800           0
     38193 MEMB     324      POPE     C314     CTL2    -0.180000       12.0110           0
     38194 MEMB     324      POPE     H14X     HAL2     0.900000E-01   1.00800           0
     38195 MEMB     324      POPE     H14Y     HAL2     0.900000E-01   1.00800           0
     38196 MEMB     324      POPE     C315     CTL2    -0.180000       12.0110           0
     38197 MEMB     324      POPE     H15X     HAL2     0.900000E-01   1.00800           0
     38198 MEMB     324      POPE     H15Y     HAL2     0.900000E-01   1.00800           0
     38199 MEMB     324      POPE     C316     CTL3    -0.270000       12.0110           0
     38200 MEMB     324      POPE     H16X     HAL3     0.900000E-01   1.00800           0
     38201 MEMB     324      POPE     H16Y     HAL3     0.900000E-01   1.00800           0
     38202 MEMB     324      POPE     H16Z     HAL3     0.900000E-01   1.00800           0
     38203 MEMB     325      POPE     N        NH3L    -0.300000       14.0070           0
     38204 MEMB     325      POPE     HN1      HCL      0.330000       1.00800           0
     38205 MEMB     325      POPE     HN2      HCL      0.330000       1.00800           0
     38206 MEMB     325      POPE     HN3      HCL      0.330000       1.00800           0
     38207 MEMB     325      POPE     C12      CTL2     0.130000       12.0110           0
     38208 MEMB     325      POPE     H12A     HAL2     0.900000E-01   1.00800           0
     38209 MEMB     325      POPE     H12B     HAL2     0.900000E-01   1.00800           0
     38210 MEMB     325      POPE     C11      CTL2    -0.800000E-01   12.0110           0
     38211 MEMB     325      POPE     H11A     HAL2     0.900000E-01   1.00800           0
     38212 MEMB     325      POPE     H11B     HAL2     0.900000E-01   1.00800           0
     38213 MEMB     325      POPE     P        PL        1.50000       30.9740           0
     38214 MEMB     325      POPE     O13      O2L     -0.780000       15.9994           0
     38215 MEMB     325      POPE     O14      O2L     -0.780000       15.9994           0
     38216 MEMB     325      POPE     O11      OSLP    -0.570000       15.9994           0
     38217 MEMB     325      POPE     O12      OSLP    -0.570000       15.9994           0
     38218 MEMB     325      POPE     C1       CTL2    -0.800000E-01   12.0110           0
     38219 MEMB     325      POPE     HA       HAL2     0.900000E-01   1.00800           0
     38220 MEMB     325      POPE     HB       HAL2     0.900000E-01   1.00800           0
     38221 MEMB     325      POPE     C2       CTL1     0.170000       12.0110           0
     38222 MEMB     325      POPE     HS       HAL1     0.900000E-01   1.00800           0
     38223 MEMB     325      POPE     O21      OSL     -0.490000       15.9994           0
     38224 MEMB     325      POPE     C21      CL       0.900000       12.0110           0
     38225 MEMB     325      POPE     O22      OBL     -0.630000       15.9994           0
     38226 MEMB     325      POPE     C22      CTL2    -0.220000       12.0110           0
     38227 MEMB     325      POPE     H2R      HAL2     0.900000E-01   1.00800           0
     38228 MEMB     325      POPE     H2S      HAL2     0.900000E-01   1.00800           0
     38229 MEMB     325      POPE     C3       CTL2     0.800000E-01   12.0110           0
     38230 MEMB     325      POPE     HX       HAL2     0.900000E-01   1.00800           0
     38231 MEMB     325      POPE     HY       HAL2     0.900000E-01   1.00800           0
     38232 MEMB     325      POPE     O31      OSL     -0.490000       15.9994           0
     38233 MEMB     325      POPE     C31      CL       0.900000       12.0110           0
     38234 MEMB     325      POPE     O32      OBL     -0.630000       15.9994           0
     38235 MEMB     325      POPE     C32      CTL2    -0.220000       12.0110           0
     38236 MEMB     325      POPE     H2X      HAL2     0.900000E-01   1.00800           0
     38237 MEMB     325      POPE     H2Y      HAL2     0.900000E-01   1.00800           0
     38238 MEMB     325      POPE     C23      CTL2    -0.180000       12.0110           0
     38239 MEMB     325      POPE     H3R      HAL2     0.900000E-01   1.00800           0
     38240 MEMB     325      POPE     H3S      HAL2     0.900000E-01   1.00800           0
     38241 MEMB     325      POPE     C24      CTL2    -0.180000       12.0110           0
     38242 MEMB     325      POPE     H4R      HAL2     0.900000E-01   1.00800           0
     38243 MEMB     325      POPE     H4S      HAL2     0.900000E-01   1.00800           0
     38244 MEMB     325      POPE     C25      CTL2    -0.180000       12.0110           0
     38245 MEMB     325      POPE     H5R      HAL2     0.900000E-01   1.00800           0
     38246 MEMB     325      POPE     H5S      HAL2     0.900000E-01   1.00800           0
     38247 MEMB     325      POPE     C26      CTL2    -0.180000       12.0110           0
     38248 MEMB     325      POPE     H6R      HAL2     0.900000E-01   1.00800           0
     38249 MEMB     325      POPE     H6S      HAL2     0.900000E-01   1.00800           0
     38250 MEMB     325      POPE     C27      CTL2    -0.180000       12.0110           0
     38251 MEMB     325      POPE     H7R      HAL2     0.900000E-01   1.00800           0
     38252 MEMB     325      POPE     H7S      HAL2     0.900000E-01   1.00800           0
     38253 MEMB     325      POPE     C28      CTL2    -0.180000       12.0110           0
     38254 MEMB     325      POPE     H8R      HAL2     0.900000E-01   1.00800           0
     38255 MEMB     325      POPE     H8S      HAL2     0.900000E-01   1.00800           0
     38256 MEMB     325      POPE     C29      CEL1    -0.150000       12.0110           0
     38257 MEMB     325      POPE     H91      HEL1     0.150000       1.00800           0
     38258 MEMB     325      POPE     C210     CEL1    -0.150000       12.0110           0
     38259 MEMB     325      POPE     H101     HEL1     0.150000       1.00800           0
     38260 MEMB     325      POPE     C211     CTL2    -0.180000       12.0110           0
     38261 MEMB     325      POPE     H11R     HAL2     0.900000E-01   1.00800           0
     38262 MEMB     325      POPE     H11S     HAL2     0.900000E-01   1.00800           0
     38263 MEMB     325      POPE     C212     CTL2    -0.180000       12.0110           0
     38264 MEMB     325      POPE     H12R     HAL2     0.900000E-01   1.00800           0
     38265 MEMB     325      POPE     H12S     HAL2     0.900000E-01   1.00800           0
     38266 MEMB     325      POPE     C213     CTL2    -0.180000       12.0110           0
     38267 MEMB     325      POPE     H13R     HAL2     0.900000E-01   1.00800           0
     38268 MEMB     325      POPE     H13S     HAL2     0.900000E-01   1.00800           0
     38269 MEMB     325      POPE     C214     CTL2    -0.180000       12.0110           0
     38270 MEMB     325      POPE     H14R     HAL2     0.900000E-01   1.00800           0
     38271 MEMB     325      POPE     H14S     HAL2     0.900000E-01   1.00800           0
     38272 MEMB     325      POPE     C215     CTL2    -0.180000       12.0110           0
     38273 MEMB     325      POPE     H15R     HAL2     0.900000E-01   1.00800           0
     38274 MEMB     325      POPE     H15S     HAL2     0.900000E-01   1.00800           0
     38275 MEMB     325      POPE     C216     CTL2    -0.180000       12.0110           0
     38276 MEMB     325      POPE     H16R     HAL2     0.900000E-01   1.00800           0
     38277 MEMB     325      POPE     H16S     HAL2     0.900000E-01   1.00800           0
     38278 MEMB     325      POPE     C217     CTL2    -0.180000       12.0110           0
     38279 MEMB     325      POPE     H17R     HAL2     0.900000E-01   1.00800           0
     38280 MEMB     325      POPE     H17S     HAL2     0.900000E-01   1.00800           0
     38281 MEMB     325      POPE     C218     CTL3    -0.270000       12.0110           0
     38282 MEMB     325      POPE     H18R     HAL3     0.900000E-01   1.00800           0
     38283 MEMB     325      POPE     H18S     HAL3     0.900000E-01   1.00800           0
     38284 MEMB     325      POPE     H18T     HAL3     0.900000E-01   1.00800           0
     38285 MEMB     325      POPE     C33      CTL2    -0.180000       12.0110           0
     38286 MEMB     325      POPE     H3X      HAL2     0.900000E-01   1.00800           0
     38287 MEMB     325      POPE     H3Y      HAL2     0.900000E-01   1.00800           0
     38288 MEMB     325      POPE     C34      CTL2    -0.180000       12.0110           0
     38289 MEMB     325      POPE     H4X      HAL2     0.900000E-01   1.00800           0
     38290 MEMB     325      POPE     H4Y      HAL2     0.900000E-01   1.00800           0
     38291 MEMB     325      POPE     C35      CTL2    -0.180000       12.0110           0
     38292 MEMB     325      POPE     H5X      HAL2     0.900000E-01   1.00800           0
     38293 MEMB     325      POPE     H5Y      HAL2     0.900000E-01   1.00800           0
     38294 MEMB     325      POPE     C36      CTL2    -0.180000       12.0110           0
     38295 MEMB     325      POPE     H6X      HAL2     0.900000E-01   1.00800           0
     38296 MEMB     325      POPE     H6Y      HAL2     0.900000E-01   1.00800           0
     38297 MEMB     325      POPE     C37      CTL2    -0.180000       12.0110           0
     38298 MEMB     325      POPE     H7X      HAL2     0.900000E-01   1.00800           0
     38299 MEMB     325      POPE     H7Y      HAL2     0.900000E-01   1.00800           0
     38300 MEMB     325      POPE     C38      CTL2    -0.180000       12.0110           0
     38301 MEMB     325      POPE     H8X      HAL2     0.900000E-01   1.00800           0
     38302 MEMB     325      POPE     H8Y      HAL2     0.900000E-01   1.00800           0
     38303 MEMB     325      POPE     C39      CTL2    -0.180000       12.0110           0
     38304 MEMB     325      POPE     H9X      HAL2     0.900000E-01   1.00800           0
     38305 MEMB     325      POPE     H9Y      HAL2     0.900000E-01   1.00800           0
     38306 MEMB     325      POPE     C310     CTL2    -0.180000       12.0110           0
     38307 MEMB     325      POPE     H10X     HAL2     0.900000E-01   1.00800           0
     38308 MEMB     325      POPE     H10Y     HAL2     0.900000E-01   1.00800           0
     38309 MEMB     325      POPE     C311     CTL2    -0.180000       12.0110           0
     38310 MEMB     325      POPE     H11X     HAL2     0.900000E-01   1.00800           0
     38311 MEMB     325      POPE     H11Y     HAL2     0.900000E-01   1.00800           0
     38312 MEMB     325      POPE     C312     CTL2    -0.180000       12.0110           0
     38313 MEMB     325      POPE     H12X     HAL2     0.900000E-01   1.00800           0
     38314 MEMB     325      POPE     H12Y     HAL2     0.900000E-01   1.00800           0
     38315 MEMB     325      POPE     C313     CTL2    -0.180000       12.0110           0
     38316 MEMB     325      POPE     H13X     HAL2     0.900000E-01   1.00800           0
     38317 MEMB     325      POPE     H13Y     HAL2     0.900000E-01   1.00800           0
     38318 MEMB     325      POPE     C314     CTL2    -0.180000       12.0110           0
     38319 MEMB     325      POPE     H14X     HAL2     0.900000E-01   1.00800           0
     38320 MEMB     325      POPE     H14Y     HAL2     0.900000E-01   1.00800           0
     38321 MEMB     325      POPE     C315     CTL2    -0.180000       12.0110           0
     38322 MEMB     325      POPE     H15X     HAL2     0.900000E-01   1.00800           0
     38323 MEMB     325      POPE     H15Y     HAL2     0.900000E-01   1.00800           0
     38324 MEMB     325      POPE     C316     CTL3    -0.270000       12.0110           0
     38325 MEMB     325      POPE     H16X     HAL3     0.900000E-01   1.00800           0
     38326 MEMB     325      POPE     H16Y     HAL3     0.900000E-01   1.00800           0
     38327 MEMB     325      POPE     H16Z     HAL3     0.900000E-01   1.00800           0
     38328 MEMB     326      POPC     N        NTL     -0.600000       14.0070           0
     38329 MEMB     326      POPC     C12      CTL2    -0.100000       12.0110           0
     38330 MEMB     326      POPC     H12A     HL       0.250000       1.00800           0
     38331 MEMB     326      POPC     H12B     HL       0.250000       1.00800           0
     38332 MEMB     326      POPC     C13      CTL5    -0.350000       12.0110           0
     38333 MEMB     326      POPC     H13A     HL       0.250000       1.00800           0
     38334 MEMB     326      POPC     H13B     HL       0.250000       1.00800           0
     38335 MEMB     326      POPC     H13C     HL       0.250000       1.00800           0
     38336 MEMB     326      POPC     C14      CTL5    -0.350000       12.0110           0
     38337 MEMB     326      POPC     H14A     HL       0.250000       1.00800           0
     38338 MEMB     326      POPC     H14B     HL       0.250000       1.00800           0
     38339 MEMB     326      POPC     H14C     HL       0.250000       1.00800           0
     38340 MEMB     326      POPC     C15      CTL5    -0.350000       12.0110           0
     38341 MEMB     326      POPC     H15A     HL       0.250000       1.00800           0
     38342 MEMB     326      POPC     H15B     HL       0.250000       1.00800           0
     38343 MEMB     326      POPC     H15C     HL       0.250000       1.00800           0
     38344 MEMB     326      POPC     C11      CTL2    -0.800000E-01   12.0110           0
     38345 MEMB     326      POPC     H11A     HAL2     0.900000E-01   1.00800           0
     38346 MEMB     326      POPC     H11B     HAL2     0.900000E-01   1.00800           0
     38347 MEMB     326      POPC     P        PL        1.50000       30.9740           0
     38348 MEMB     326      POPC     O13      O2L     -0.780000       15.9994           0
     38349 MEMB     326      POPC     O14      O2L     -0.780000       15.9994           0
     38350 MEMB     326      POPC     O12      OSLP    -0.570000       15.9994           0
     38351 MEMB     326      POPC     O11      OSLP    -0.570000       15.9994           0
     38352 MEMB     326      POPC     C1       CTL2    -0.800000E-01   12.0110           0
     38353 MEMB     326      POPC     HA       HAL2     0.900000E-01   1.00800           0
     38354 MEMB     326      POPC     HB       HAL2     0.900000E-01   1.00800           0
     38355 MEMB     326      POPC     C2       CTL1     0.170000       12.0110           0
     38356 MEMB     326      POPC     HS       HAL1     0.900000E-01   1.00800           0
     38357 MEMB     326      POPC     O21      OSL     -0.490000       15.9994           0
     38358 MEMB     326      POPC     C21      CL       0.900000       12.0110           0
     38359 MEMB     326      POPC     O22      OBL     -0.630000       15.9994           0
     38360 MEMB     326      POPC     C22      CTL2    -0.220000       12.0110           0
     38361 MEMB     326      POPC     H2R      HAL2     0.900000E-01   1.00800           0
     38362 MEMB     326      POPC     H2S      HAL2     0.900000E-01   1.00800           0
     38363 MEMB     326      POPC     C3       CTL2     0.800000E-01   12.0110           0
     38364 MEMB     326      POPC     HX       HAL2     0.900000E-01   1.00800           0
     38365 MEMB     326      POPC     HY       HAL2     0.900000E-01   1.00800           0
     38366 MEMB     326      POPC     O31      OSL     -0.490000       15.9994           0
     38367 MEMB     326      POPC     C31      CL       0.900000       12.0110           0
     38368 MEMB     326      POPC     O32      OBL     -0.630000       15.9994           0
     38369 MEMB     326      POPC     C32      CTL2    -0.220000       12.0110           0
     38370 MEMB     326      POPC     H2X      HAL2     0.900000E-01   1.00800           0
     38371 MEMB     326      POPC     H2Y      HAL2     0.900000E-01   1.00800           0
     38372 MEMB     326      POPC     C23      CTL2    -0.180000       12.0110           0
     38373 MEMB     326      POPC     H3R      HAL2     0.900000E-01   1.00800           0
     38374 MEMB     326      POPC     H3S      HAL2     0.900000E-01   1.00800           0
     38375 MEMB     326      POPC     C24      CTL2    -0.180000       12.0110           0
     38376 MEMB     326      POPC     H4R      HAL2     0.900000E-01   1.00800           0
     38377 MEMB     326      POPC     H4S      HAL2     0.900000E-01   1.00800           0
     38378 MEMB     326      POPC     C25      CTL2    -0.180000       12.0110           0
     38379 MEMB     326      POPC     H5R      HAL2     0.900000E-01   1.00800           0
     38380 MEMB     326      POPC     H5S      HAL2     0.900000E-01   1.00800           0
     38381 MEMB     326      POPC     C26      CTL2    -0.180000       12.0110           0
     38382 MEMB     326      POPC     H6R      HAL2     0.900000E-01   1.00800           0
     38383 MEMB     326      POPC     H6S      HAL2     0.900000E-01   1.00800           0
     38384 MEMB     326      POPC     C27      CTL2    -0.180000       12.0110           0
     38385 MEMB     326      POPC     H7R      HAL2     0.900000E-01   1.00800           0
     38386 MEMB     326      POPC     H7S      HAL2     0.900000E-01   1.00800           0
     38387 MEMB     326      POPC     C28      CTL2    -0.180000       12.0110           0
     38388 MEMB     326      POPC     H8R      HAL2     0.900000E-01   1.00800           0
     38389 MEMB     326      POPC     H8S      HAL2     0.900000E-01   1.00800           0
     38390 MEMB     326      POPC     C29      CEL1    -0.150000       12.0110           0
     38391 MEMB     326      POPC     H91      HEL1     0.150000       1.00800           0
     38392 MEMB     326      POPC     C210     CEL1    -0.150000       12.0110           0
     38393 MEMB     326      POPC     H101     HEL1     0.150000       1.00800           0
     38394 MEMB     326      POPC     C211     CTL2    -0.180000       12.0110           0
     38395 MEMB     326      POPC     H11R     HAL2     0.900000E-01   1.00800           0
     38396 MEMB     326      POPC     H11S     HAL2     0.900000E-01   1.00800           0
     38397 MEMB     326      POPC     C212     CTL2    -0.180000       12.0110           0
     38398 MEMB     326      POPC     H12R     HAL2     0.900000E-01   1.00800           0
     38399 MEMB     326      POPC     H12S     HAL2     0.900000E-01   1.00800           0
     38400 MEMB     326      POPC     C213     CTL2    -0.180000       12.0110           0
     38401 MEMB     326      POPC     H13R     HAL2     0.900000E-01   1.00800           0
     38402 MEMB     326      POPC     H13S     HAL2     0.900000E-01   1.00800           0
     38403 MEMB     326      POPC     C214     CTL2    -0.180000       12.0110           0
     38404 MEMB     326      POPC     H14R     HAL2     0.900000E-01   1.00800           0
     38405 MEMB     326      POPC     H14S     HAL2     0.900000E-01   1.00800           0
     38406 MEMB     326      POPC     C215     CTL2    -0.180000       12.0110           0
     38407 MEMB     326      POPC     H15R     HAL2     0.900000E-01   1.00800           0
     38408 MEMB     326      POPC     H15S     HAL2     0.900000E-01   1.00800           0
     38409 MEMB     326      POPC     C216     CTL2    -0.180000       12.0110           0
     38410 MEMB     326      POPC     H16R     HAL2     0.900000E-01   1.00800           0
     38411 MEMB     326      POPC     H16S     HAL2     0.900000E-01   1.00800           0
     38412 MEMB     326      POPC     C217     CTL2    -0.180000       12.0110           0
     38413 MEMB     326      POPC     H17R     HAL2     0.900000E-01   1.00800           0
     38414 MEMB     326      POPC     H17S     HAL2     0.900000E-01   1.00800           0
     38415 MEMB     326      POPC     C218     CTL3    -0.270000       12.0110           0
     38416 MEMB     326      POPC     H18R     HAL3     0.900000E-01   1.00800           0
     38417 MEMB     326      POPC     H18S     HAL3     0.900000E-01   1.00800           0
     38418 MEMB     326      POPC     H18T     HAL3     0.900000E-01   1.00800           0
     38419 MEMB     326      POPC     C33      CTL2    -0.180000       12.0110           0
     38420 MEMB     326      POPC     H3X      HAL2     0.900000E-01   1.00800           0
     38421 MEMB     326      POPC     H3Y      HAL2     0.900000E-01   1.00800           0
     38422 MEMB     326      POPC     C34      CTL2    -0.180000       12.0110           0
     38423 MEMB     326      POPC     H4X      HAL2     0.900000E-01   1.00800           0
     38424 MEMB     326      POPC     H4Y      HAL2     0.900000E-01   1.00800           0
     38425 MEMB     326      POPC     C35      CTL2    -0.180000       12.0110           0
     38426 MEMB     326      POPC     H5X      HAL2     0.900000E-01   1.00800           0
     38427 MEMB     326      POPC     H5Y      HAL2     0.900000E-01   1.00800           0
     38428 MEMB     326      POPC     C36      CTL2    -0.180000       12.0110           0
     38429 MEMB     326      POPC     H6X      HAL2     0.900000E-01   1.00800           0
     38430 MEMB     326      POPC     H6Y      HAL2     0.900000E-01   1.00800           0
     38431 MEMB     326      POPC     C37      CTL2    -0.180000       12.0110           0
     38432 MEMB     326      POPC     H7X      HAL2     0.900000E-01   1.00800           0
     38433 MEMB     326      POPC     H7Y      HAL2     0.900000E-01   1.00800           0
     38434 MEMB     326      POPC     C38      CTL2    -0.180000       12.0110           0
     38435 MEMB     326      POPC     H8X      HAL2     0.900000E-01   1.00800           0
     38436 MEMB     326      POPC     H8Y      HAL2     0.900000E-01   1.00800           0
     38437 MEMB     326      POPC     C39      CTL2    -0.180000       12.0110           0
     38438 MEMB     326      POPC     H9X      HAL2     0.900000E-01   1.00800           0
     38439 MEMB     326      POPC     H9Y      HAL2     0.900000E-01   1.00800           0
     38440 MEMB     326      POPC     C310     CTL2    -0.180000       12.0110           0
     38441 MEMB     326      POPC     H10X     HAL2     0.900000E-01   1.00800           0
     38442 MEMB     326      POPC     H10Y     HAL2     0.900000E-01   1.00800           0
     38443 MEMB     326      POPC     C311     CTL2    -0.180000       12.0110           0
     38444 MEMB     326      POPC     H11X     HAL2     0.900000E-01   1.00800           0
     38445 MEMB     326      POPC     H11Y     HAL2     0.900000E-01   1.00800           0
     38446 MEMB     326      POPC     C312     CTL2    -0.180000       12.0110           0
     38447 MEMB     326      POPC     H12X     HAL2     0.900000E-01   1.00800           0
     38448 MEMB     326      POPC     H12Y     HAL2     0.900000E-01   1.00800           0
     38449 MEMB     326      POPC     C313     CTL2    -0.180000       12.0110           0
     38450 MEMB     326      POPC     H13X     HAL2     0.900000E-01   1.00800           0
     38451 MEMB     326      POPC     H13Y     HAL2     0.900000E-01   1.00800           0
     38452 MEMB     326      POPC     C314     CTL2    -0.180000       12.0110           0
     38453 MEMB     326      POPC     H14X     HAL2     0.900000E-01   1.00800           0
     38454 MEMB     326      POPC     H14Y     HAL2     0.900000E-01   1.00800           0
     38455 MEMB     326      POPC     C315     CTL2    -0.180000       12.0110           0
     38456 MEMB     326      POPC     H15X     HAL2     0.900000E-01   1.00800           0
     38457 MEMB     326      POPC     H15Y     HAL2     0.900000E-01   1.00800           0
     38458 MEMB     326      POPC     C316     CTL3    -0.270000       12.0110           0
     38459 MEMB     326      POPC     H16X     HAL3     0.900000E-01   1.00800           0
     38460 MEMB     326      POPC     H16Y     HAL3     0.900000E-01   1.00800           0
     38461 MEMB     326      POPC     H16Z     HAL3     0.900000E-01   1.00800           0
     38462 MEMB     327      POPC     N        NTL     -0.600000       14.0070           0
     38463 MEMB     327      POPC     C12      CTL2    -0.100000       12.0110           0
     38464 MEMB     327      POPC     H12A     HL       0.250000       1.00800           0
     38465 MEMB     327      POPC     H12B     HL       0.250000       1.00800           0
     38466 MEMB     327      POPC     C13      CTL5    -0.350000       12.0110           0
     38467 MEMB     327      POPC     H13A     HL       0.250000       1.00800           0
     38468 MEMB     327      POPC     H13B     HL       0.250000       1.00800           0
     38469 MEMB     327      POPC     H13C     HL       0.250000       1.00800           0
     38470 MEMB     327      POPC     C14      CTL5    -0.350000       12.0110           0
     38471 MEMB     327      POPC     H14A     HL       0.250000       1.00800           0
     38472 MEMB     327      POPC     H14B     HL       0.250000       1.00800           0
     38473 MEMB     327      POPC     H14C     HL       0.250000       1.00800           0
     38474 MEMB     327      POPC     C15      CTL5    -0.350000       12.0110           0
     38475 MEMB     327      POPC     H15A     HL       0.250000       1.00800           0
     38476 MEMB     327      POPC     H15B     HL       0.250000       1.00800           0
     38477 MEMB     327      POPC     H15C     HL       0.250000       1.00800           0
     38478 MEMB     327      POPC     C11      CTL2    -0.800000E-01   12.0110           0
     38479 MEMB     327      POPC     H11A     HAL2     0.900000E-01   1.00800           0
     38480 MEMB     327      POPC     H11B     HAL2     0.900000E-01   1.00800           0
     38481 MEMB     327      POPC     P        PL        1.50000       30.9740           0
     38482 MEMB     327      POPC     O13      O2L     -0.780000       15.9994           0
     38483 MEMB     327      POPC     O14      O2L     -0.780000       15.9994           0
     38484 MEMB     327      POPC     O12      OSLP    -0.570000       15.9994           0
     38485 MEMB     327      POPC     O11      OSLP    -0.570000       15.9994           0
     38486 MEMB     327      POPC     C1       CTL2    -0.800000E-01   12.0110           0
     38487 MEMB     327      POPC     HA       HAL2     0.900000E-01   1.00800           0
     38488 MEMB     327      POPC     HB       HAL2     0.900000E-01   1.00800           0
     38489 MEMB     327      POPC     C2       CTL1     0.170000       12.0110           0
     38490 MEMB     327      POPC     HS       HAL1     0.900000E-01   1.00800           0
     38491 MEMB     327      POPC     O21      OSL     -0.490000       15.9994           0
     38492 MEMB     327      POPC     C21      CL       0.900000       12.0110           0
     38493 MEMB     327      POPC     O22      OBL     -0.630000       15.9994           0
     38494 MEMB     327      POPC     C22      CTL2    -0.220000       12.0110           0
     38495 MEMB     327      POPC     H2R      HAL2     0.900000E-01   1.00800           0
     38496 MEMB     327      POPC     H2S      HAL2     0.900000E-01   1.00800           0
     38497 MEMB     327      POPC     C3       CTL2     0.800000E-01   12.0110           0
     38498 MEMB     327      POPC     HX       HAL2     0.900000E-01   1.00800           0
     38499 MEMB     327      POPC     HY       HAL2     0.900000E-01   1.00800           0
     38500 MEMB     327      POPC     O31      OSL     -0.490000       15.9994           0
     38501 MEMB     327      POPC     C31      CL       0.900000       12.0110           0
     38502 MEMB     327      POPC     O32      OBL     -0.630000       15.9994           0
     38503 MEMB     327      POPC     C32      CTL2    -0.220000       12.0110           0
     38504 MEMB     327      POPC     H2X      HAL2     0.900000E-01   1.00800           0
     38505 MEMB     327      POPC     H2Y      HAL2     0.900000E-01   1.00800           0
     38506 MEMB     327      POPC     C23      CTL2    -0.180000       12.0110           0
     38507 MEMB     327      POPC     H3R      HAL2     0.900000E-01   1.00800           0
     38508 MEMB     327      POPC     H3S      HAL2     0.900000E-01   1.00800           0
     38509 MEMB     327      POPC     C24      CTL2    -0.180000       12.0110           0
     38510 MEMB     327      POPC     H4R      HAL2     0.900000E-01   1.00800           0
     38511 MEMB     327      POPC     H4S      HAL2     0.900000E-01   1.00800           0
     38512 MEMB     327      POPC     C25      CTL2    -0.180000       12.0110           0
     38513 MEMB     327      POPC     H5R      HAL2     0.900000E-01   1.00800           0
     38514 MEMB     327      POPC     H5S      HAL2     0.900000E-01   1.00800           0
     38515 MEMB     327      POPC     C26      CTL2    -0.180000       12.0110           0
     38516 MEMB     327      POPC     H6R      HAL2     0.900000E-01   1.00800           0
     38517 MEMB     327      POPC     H6S      HAL2     0.900000E-01   1.00800           0
     38518 MEMB     327      POPC     C27      CTL2    -0.180000       12.0110           0
     38519 MEMB     327      POPC     H7R      HAL2     0.900000E-01   1.00800           0
     38520 MEMB     327      POPC     H7S      HAL2     0.900000E-01   1.00800           0
     38521 MEMB     327      POPC     C28      CTL2    -0.180000       12.0110           0
     38522 MEMB     327      POPC     H8R      HAL2     0.900000E-01   1.00800           0
     38523 MEMB     327      POPC     H8S      HAL2     0.900000E-01   1.00800           0
     38524 MEMB     327      POPC     C29      CEL1    -0.150000       12.0110           0
     38525 MEMB     327      POPC     H91      HEL1     0.150000       1.00800           0
     38526 MEMB     327      POPC     C210     CEL1    -0.150000       12.0110           0
     38527 MEMB     327      POPC     H101     HEL1     0.150000       1.00800           0
     38528 MEMB     327      POPC     C211     CTL2    -0.180000       12.0110           0
     38529 MEMB     327      POPC     H11R     HAL2     0.900000E-01   1.00800           0
     38530 MEMB     327      POPC     H11S     HAL2     0.900000E-01   1.00800           0
     38531 MEMB     327      POPC     C212     CTL2    -0.180000       12.0110           0
     38532 MEMB     327      POPC     H12R     HAL2     0.900000E-01   1.00800           0
     38533 MEMB     327      POPC     H12S     HAL2     0.900000E-01   1.00800           0
     38534 MEMB     327      POPC     C213     CTL2    -0.180000       12.0110           0
     38535 MEMB     327      POPC     H13R     HAL2     0.900000E-01   1.00800           0
     38536 MEMB     327      POPC     H13S     HAL2     0.900000E-01   1.00800           0
     38537 MEMB     327      POPC     C214     CTL2    -0.180000       12.0110           0
     38538 MEMB     327      POPC     H14R     HAL2     0.900000E-01   1.00800           0
     38539 MEMB     327      POPC     H14S     HAL2     0.900000E-01   1.00800           0
     38540 MEMB     327      POPC     C215     CTL2    -0.180000       12.0110           0
     38541 MEMB     327      POPC     H15R     HAL2     0.900000E-01   1.00800           0
     38542 MEMB     327      POPC     H15S     HAL2     0.900000E-01   1.00800           0
     38543 MEMB     327      POPC     C216     CTL2    -0.180000       12.0110           0
     38544 MEMB     327      POPC     H16R     HAL2     0.900000E-01   1.00800           0
     38545 MEMB     327      POPC     H16S     HAL2     0.900000E-01   1.00800           0
     38546 MEMB     327      POPC     C217     CTL2    -0.180000       12.0110           0
     38547 MEMB     327      POPC     H17R     HAL2     0.900000E-01   1.00800           0
     38548 MEMB     327      POPC     H17S     HAL2     0.900000E-01   1.00800           0
     38549 MEMB     327      POPC     C218     CTL3    -0.270000       12.0110           0
     38550 MEMB     327      POPC     H18R     HAL3     0.900000E-01   1.00800           0
     38551 MEMB     327      POPC     H18S     HAL3     0.900000E-01   1.00800           0
     38552 MEMB     327      POPC     H18T     HAL3     0.900000E-01   1.00800           0
     38553 MEMB     327      POPC     C33      CTL2    -0.180000       12.0110           0
     38554 MEMB     327      POPC     H3X      HAL2     0.900000E-01   1.00800           0
     38555 MEMB     327      POPC     H3Y      HAL2     0.900000E-01   1.00800           0
     38556 MEMB     327      POPC     C34      CTL2    -0.180000       12.0110           0
     38557 MEMB     327      POPC     H4X      HAL2     0.900000E-01   1.00800           0
     38558 MEMB     327      POPC     H4Y      HAL2     0.900000E-01   1.00800           0
     38559 MEMB     327      POPC     C35      CTL2    -0.180000       12.0110           0
     38560 MEMB     327      POPC     H5X      HAL2     0.900000E-01   1.00800           0
     38561 MEMB     327      POPC     H5Y      HAL2     0.900000E-01   1.00800           0
     38562 MEMB     327      POPC     C36      CTL2    -0.180000       12.0110           0
     38563 MEMB     327      POPC     H6X      HAL2     0.900000E-01   1.00800           0
     38564 MEMB     327      POPC     H6Y      HAL2     0.900000E-01   1.00800           0
     38565 MEMB     327      POPC     C37      CTL2    -0.180000       12.0110           0
     38566 MEMB     327      POPC     H7X      HAL2     0.900000E-01   1.00800           0
     38567 MEMB     327      POPC     H7Y      HAL2     0.900000E-01   1.00800           0
     38568 MEMB     327      POPC     C38      CTL2    -0.180000       12.0110           0
     38569 MEMB     327      POPC     H8X      HAL2     0.900000E-01   1.00800           0
     38570 MEMB     327      POPC     H8Y      HAL2     0.900000E-01   1.00800           0
     38571 MEMB     327      POPC     C39      CTL2    -0.180000       12.0110           0
     38572 MEMB     327      POPC     H9X      HAL2     0.900000E-01   1.00800           0
     38573 MEMB     327      POPC     H9Y      HAL2     0.900000E-01   1.00800           0
     38574 MEMB     327      POPC     C310     CTL2    -0.180000       12.0110           0
     38575 MEMB     327      POPC     H10X     HAL2     0.900000E-01   1.00800           0
     38576 MEMB     327      POPC     H10Y     HAL2     0.900000E-01   1.00800           0
     38577 MEMB     327      POPC     C311     CTL2    -0.180000       12.0110           0
     38578 MEMB     327      POPC     H11X     HAL2     0.900000E-01   1.00800           0
     38579 MEMB     327      POPC     H11Y     HAL2     0.900000E-01   1.00800           0
     38580 MEMB     327      POPC     C312     CTL2    -0.180000       12.0110           0
     38581 MEMB     327      POPC     H12X     HAL2     0.900000E-01   1.00800           0
     38582 MEMB     327      POPC     H12Y     HAL2     0.900000E-01   1.00800           0
     38583 MEMB     327      POPC     C313     CTL2    -0.180000       12.0110           0
     38584 MEMB     327      POPC     H13X     HAL2     0.900000E-01   1.00800           0
     38585 MEMB     327      POPC     H13Y     HAL2     0.900000E-01   1.00800           0
     38586 MEMB     327      POPC     C314     CTL2    -0.180000       12.0110           0
     38587 MEMB     327      POPC     H14X     HAL2     0.900000E-01   1.00800           0
     38588 MEMB     327      POPC     H14Y     HAL2     0.900000E-01   1.00800           0
     38589 MEMB     327      POPC     C315     CTL2    -0.180000       12.0110           0
     38590 MEMB     327      POPC     H15X     HAL2     0.900000E-01   1.00800           0
     38591 MEMB     327      POPC     H15Y     HAL2     0.900000E-01   1.00800           0
     38592 MEMB     327      POPC     C316     CTL3    -0.270000       12.0110           0
     38593 MEMB     327      POPC     H16X     HAL3     0.900000E-01   1.00800           0
     38594 MEMB     327      POPC     H16Y     HAL3     0.900000E-01   1.00800           0
     38595 MEMB     327      POPC     H16Z     HAL3     0.900000E-01   1.00800           0
     38596 MEMB     328      POPC     N        NTL     -0.600000       14.0070           0
     38597 MEMB     328      POPC     C12      CTL2    -0.100000       12.0110           0
     38598 MEMB     328      POPC     H12A     HL       0.250000       1.00800           0
     38599 MEMB     328      POPC     H12B     HL       0.250000       1.00800           0
     38600 MEMB     328      POPC     C13      CTL5    -0.350000       12.0110           0
     38601 MEMB     328      POPC     H13A     HL       0.250000       1.00800           0
     38602 MEMB     328      POPC     H13B     HL       0.250000       1.00800           0
     38603 MEMB     328      POPC     H13C     HL       0.250000       1.00800           0
     38604 MEMB     328      POPC     C14      CTL5    -0.350000       12.0110           0
     38605 MEMB     328      POPC     H14A     HL       0.250000       1.00800           0
     38606 MEMB     328      POPC     H14B     HL       0.250000       1.00800           0
     38607 MEMB     328      POPC     H14C     HL       0.250000       1.00800           0
     38608 MEMB     328      POPC     C15      CTL5    -0.350000       12.0110           0
     38609 MEMB     328      POPC     H15A     HL       0.250000       1.00800           0
     38610 MEMB     328      POPC     H15B     HL       0.250000       1.00800           0
     38611 MEMB     328      POPC     H15C     HL       0.250000       1.00800           0
     38612 MEMB     328      POPC     C11      CTL2    -0.800000E-01   12.0110           0
     38613 MEMB     328      POPC     H11A     HAL2     0.900000E-01   1.00800           0
     38614 MEMB     328      POPC     H11B     HAL2     0.900000E-01   1.00800           0
     38615 MEMB     328      POPC     P        PL        1.50000       30.9740           0
     38616 MEMB     328      POPC     O13      O2L     -0.780000       15.9994           0
     38617 MEMB     328      POPC     O14      O2L     -0.780000       15.9994           0
     38618 MEMB     328      POPC     O12      OSLP    -0.570000       15.9994           0
     38619 MEMB     328      POPC     O11      OSLP    -0.570000       15.9994           0
     38620 MEMB     328      POPC     C1       CTL2    -0.800000E-01   12.0110           0
     38621 MEMB     328      POPC     HA       HAL2     0.900000E-01   1.00800           0
     38622 MEMB     328      POPC     HB       HAL2     0.900000E-01   1.00800           0
     38623 MEMB     328      POPC     C2       CTL1     0.170000       12.0110           0
     38624 MEMB     328      POPC     HS       HAL1     0.900000E-01   1.00800           0
     38625 MEMB     328      POPC     O21      OSL     -0.490000       15.9994           0
     38626 MEMB     328      POPC     C21      CL       0.900000       12.0110           0
     38627 MEMB     328      POPC     O22      OBL     -0.630000       15.9994           0
     38628 MEMB     328      POPC     C22      CTL2    -0.220000       12.0110           0
     38629 MEMB     328      POPC     H2R      HAL2     0.900000E-01   1.00800           0
     38630 MEMB     328      POPC     H2S      HAL2     0.900000E-01   1.00800           0
     38631 MEMB     328      POPC     C3       CTL2     0.800000E-01   12.0110           0
     38632 MEMB     328      POPC     HX       HAL2     0.900000E-01   1.00800           0
     38633 MEMB     328      POPC     HY       HAL2     0.900000E-01   1.00800           0
     38634 MEMB     328      POPC     O31      OSL     -0.490000       15.9994           0
     38635 MEMB     328      POPC     C31      CL       0.900000       12.0110           0
     38636 MEMB     328      POPC     O32      OBL     -0.630000       15.9994           0
     38637 MEMB     328      POPC     C32      CTL2    -0.220000       12.0110           0
     38638 MEMB     328      POPC     H2X      HAL2     0.900000E-01   1.00800           0
     38639 MEMB     328      POPC     H2Y      HAL2     0.900000E-01   1.00800           0
     38640 MEMB     328      POPC     C23      CTL2    -0.180000       12.0110           0
     38641 MEMB     328      POPC     H3R      HAL2     0.900000E-01   1.00800           0
     38642 MEMB     328      POPC     H3S      HAL2     0.900000E-01   1.00800           0
     38643 MEMB     328      POPC     C24      CTL2    -0.180000       12.0110           0
     38644 MEMB     328      POPC     H4R      HAL2     0.900000E-01   1.00800           0
     38645 MEMB     328      POPC     H4S      HAL2     0.900000E-01   1.00800           0
     38646 MEMB     328      POPC     C25      CTL2    -0.180000       12.0110           0
     38647 MEMB     328      POPC     H5R      HAL2     0.900000E-01   1.00800           0
     38648 MEMB     328      POPC     H5S      HAL2     0.900000E-01   1.00800           0
     38649 MEMB     328      POPC     C26      CTL2    -0.180000       12.0110           0
     38650 MEMB     328      POPC     H6R      HAL2     0.900000E-01   1.00800           0
     38651 MEMB     328      POPC     H6S      HAL2     0.900000E-01   1.00800           0
     38652 MEMB     328      POPC     C27      CTL2    -0.180000       12.0110           0
     38653 MEMB     328      POPC     H7R      HAL2     0.900000E-01   1.00800           0
     38654 MEMB     328      POPC     H7S      HAL2     0.900000E-01   1.00800           0
     38655 MEMB     328      POPC     C28      CTL2    -0.180000       12.0110           0
     38656 MEMB     328      POPC     H8R      HAL2     0.900000E-01   1.00800           0
     38657 MEMB     328      POPC     H8S      HAL2     0.900000E-01   1.00800           0
     38658 MEMB     328      POPC     C29      CEL1    -0.150000       12.0110           0
     38659 MEMB     328      POPC     H91      HEL1     0.150000       1.00800           0
     38660 MEMB     328      POPC     C210     CEL1    -0.150000       12.0110           0
     38661 MEMB     328      POPC     H101     HEL1     0.150000       1.00800           0
     38662 MEMB     328      POPC     C211     CTL2    -0.180000       12.0110           0
     38663 MEMB     328      POPC     H11R     HAL2     0.900000E-01   1.00800           0
     38664 MEMB     328      POPC     H11S     HAL2     0.900000E-01   1.00800           0
     38665 MEMB     328      POPC     C212     CTL2    -0.180000       12.0110           0
     38666 MEMB     328      POPC     H12R     HAL2     0.900000E-01   1.00800           0
     38667 MEMB     328      POPC     H12S     HAL2     0.900000E-01   1.00800           0
     38668 MEMB     328      POPC     C213     CTL2    -0.180000       12.0110           0
     38669 MEMB     328      POPC     H13R     HAL2     0.900000E-01   1.00800           0
     38670 MEMB     328      POPC     H13S     HAL2     0.900000E-01   1.00800           0
     38671 MEMB     328      POPC     C214     CTL2    -0.180000       12.0110           0
     38672 MEMB     328      POPC     H14R     HAL2     0.900000E-01   1.00800           0
     38673 MEMB     328      POPC     H14S     HAL2     0.900000E-01   1.00800           0
     38674 MEMB     328      POPC     C215     CTL2    -0.180000       12.0110           0
     38675 MEMB     328      POPC     H15R     HAL2     0.900000E-01   1.00800           0
     38676 MEMB     328      POPC     H15S     HAL2     0.900000E-01   1.00800           0
     38677 MEMB     328      POPC     C216     CTL2    -0.180000       12.0110           0
     38678 MEMB     328      POPC     H16R     HAL2     0.900000E-01   1.00800           0
     38679 MEMB     328      POPC     H16S     HAL2     0.900000E-01   1.00800           0
     38680 MEMB     328      POPC     C217     CTL2    -0.180000       12.0110           0
     38681 MEMB     328      POPC     H17R     HAL2     0.900000E-01   1.00800           0
     38682 MEMB     328      POPC     H17S     HAL2     0.900000E-01   1.00800           0
     38683 MEMB     328      POPC     C218     CTL3    -0.270000       12.0110           0
     38684 MEMB     328      POPC     H18R     HAL3     0.900000E-01   1.00800           0
     38685 MEMB     328      POPC     H18S     HAL3     0.900000E-01   1.00800           0
     38686 MEMB     328      POPC     H18T     HAL3     0.900000E-01   1.00800           0
     38687 MEMB     328      POPC     C33      CTL2    -0.180000       12.0110           0
     38688 MEMB     328      POPC     H3X      HAL2     0.900000E-01   1.00800           0
     38689 MEMB     328      POPC     H3Y      HAL2     0.900000E-01   1.00800           0
     38690 MEMB     328      POPC     C34      CTL2    -0.180000       12.0110           0
     38691 MEMB     328      POPC     H4X      HAL2     0.900000E-01   1.00800           0
     38692 MEMB     328      POPC     H4Y      HAL2     0.900000E-01   1.00800           0
     38693 MEMB     328      POPC     C35      CTL2    -0.180000       12.0110           0
     38694 MEMB     328      POPC     H5X      HAL2     0.900000E-01   1.00800           0
     38695 MEMB     328      POPC     H5Y      HAL2     0.900000E-01   1.00800           0
     38696 MEMB     328      POPC     C36      CTL2    -0.180000       12.0110           0
     38697 MEMB     328      POPC     H6X      HAL2     0.900000E-01   1.00800           0
     38698 MEMB     328      POPC     H6Y      HAL2     0.900000E-01   1.00800           0
     38699 MEMB     328      POPC     C37      CTL2    -0.180000       12.0110           0
     38700 MEMB     328      POPC     H7X      HAL2     0.900000E-01   1.00800           0
     38701 MEMB     328      POPC     H7Y      HAL2     0.900000E-01   1.00800           0
     38702 MEMB     328      POPC     C38      CTL2    -0.180000       12.0110           0
     38703 MEMB     328      POPC     H8X      HAL2     0.900000E-01   1.00800           0
     38704 MEMB     328      POPC     H8Y      HAL2     0.900000E-01   1.00800           0
     38705 MEMB     328      POPC     C39      CTL2    -0.180000       12.0110           0
     38706 MEMB     328      POPC     H9X      HAL2     0.900000E-01   1.00800           0
     38707 MEMB     328      POPC     H9Y      HAL2     0.900000E-01   1.00800           0
     38708 MEMB     328      POPC     C310     CTL2    -0.180000       12.0110           0
     38709 MEMB     328      POPC     H10X     HAL2     0.900000E-01   1.00800           0
     38710 MEMB     328      POPC     H10Y     HAL2     0.900000E-01   1.00800           0
     38711 MEMB     328      POPC     C311     CTL2    -0.180000       12.0110           0
     38712 MEMB     328      POPC     H11X     HAL2     0.900000E-01   1.00800           0
     38713 MEMB     328      POPC     H11Y     HAL2     0.900000E-01   1.00800           0
     38714 MEMB     328      POPC     C312     CTL2    -0.180000       12.0110           0
     38715 MEMB     328      POPC     H12X     HAL2     0.900000E-01   1.00800           0
     38716 MEMB     328      POPC     H12Y     HAL2     0.900000E-01   1.00800           0
     38717 MEMB     328      POPC     C313     CTL2    -0.180000       12.0110           0
     38718 MEMB     328      POPC     H13X     HAL2     0.900000E-01   1.00800           0
     38719 MEMB     328      POPC     H13Y     HAL2     0.900000E-01   1.00800           0
     38720 MEMB     328      POPC     C314     CTL2    -0.180000       12.0110           0
     38721 MEMB     328      POPC     H14X     HAL2     0.900000E-01   1.00800           0
     38722 MEMB     328      POPC     H14Y     HAL2     0.900000E-01   1.00800           0
     38723 MEMB     328      POPC     C315     CTL2    -0.180000       12.0110           0
     38724 MEMB     328      POPC     H15X     HAL2     0.900000E-01   1.00800           0
     38725 MEMB     328      POPC     H15Y     HAL2     0.900000E-01   1.00800           0
     38726 MEMB     328      POPC     C316     CTL3    -0.270000       12.0110           0
     38727 MEMB     328      POPC     H16X     HAL3     0.900000E-01   1.00800           0
     38728 MEMB     328      POPC     H16Y     HAL3     0.900000E-01   1.00800           0
     38729 MEMB     328      POPC     H16Z     HAL3     0.900000E-01   1.00800           0
     38730 MEMB     329      POPC     N        NTL     -0.600000       14.0070           0
     38731 MEMB     329      POPC     C12      CTL2    -0.100000       12.0110           0
     38732 MEMB     329      POPC     H12A     HL       0.250000       1.00800           0
     38733 MEMB     329      POPC     H12B     HL       0.250000       1.00800           0
     38734 MEMB     329      POPC     C13      CTL5    -0.350000       12.0110           0
     38735 MEMB     329      POPC     H13A     HL       0.250000       1.00800           0
     38736 MEMB     329      POPC     H13B     HL       0.250000       1.00800           0
     38737 MEMB     329      POPC     H13C     HL       0.250000       1.00800           0
     38738 MEMB     329      POPC     C14      CTL5    -0.350000       12.0110           0
     38739 MEMB     329      POPC     H14A     HL       0.250000       1.00800           0
     38740 MEMB     329      POPC     H14B     HL       0.250000       1.00800           0
     38741 MEMB     329      POPC     H14C     HL       0.250000       1.00800           0
     38742 MEMB     329      POPC     C15      CTL5    -0.350000       12.0110           0
     38743 MEMB     329      POPC     H15A     HL       0.250000       1.00800           0
     38744 MEMB     329      POPC     H15B     HL       0.250000       1.00800           0
     38745 MEMB     329      POPC     H15C     HL       0.250000       1.00800           0
     38746 MEMB     329      POPC     C11      CTL2    -0.800000E-01   12.0110           0
     38747 MEMB     329      POPC     H11A     HAL2     0.900000E-01   1.00800           0
     38748 MEMB     329      POPC     H11B     HAL2     0.900000E-01   1.00800           0
     38749 MEMB     329      POPC     P        PL        1.50000       30.9740           0
     38750 MEMB     329      POPC     O13      O2L     -0.780000       15.9994           0
     38751 MEMB     329      POPC     O14      O2L     -0.780000       15.9994           0
     38752 MEMB     329      POPC     O12      OSLP    -0.570000       15.9994           0
     38753 MEMB     329      POPC     O11      OSLP    -0.570000       15.9994           0
     38754 MEMB     329      POPC     C1       CTL2    -0.800000E-01   12.0110           0
     38755 MEMB     329      POPC     HA       HAL2     0.900000E-01   1.00800           0
     38756 MEMB     329      POPC     HB       HAL2     0.900000E-01   1.00800           0
     38757 MEMB     329      POPC     C2       CTL1     0.170000       12.0110           0
     38758 MEMB     329      POPC     HS       HAL1     0.900000E-01   1.00800           0
     38759 MEMB     329      POPC     O21      OSL     -0.490000       15.9994           0
     38760 MEMB     329      POPC     C21      CL       0.900000       12.0110           0
     38761 MEMB     329      POPC     O22      OBL     -0.630000       15.9994           0
     38762 MEMB     329      POPC     C22      CTL2    -0.220000       12.0110           0
     38763 MEMB     329      POPC     H2R      HAL2     0.900000E-01   1.00800           0
     38764 MEMB     329      POPC     H2S      HAL2     0.900000E-01   1.00800           0
     38765 MEMB     329      POPC     C3       CTL2     0.800000E-01   12.0110           0
     38766 MEMB     329      POPC     HX       HAL2     0.900000E-01   1.00800           0
     38767 MEMB     329      POPC     HY       HAL2     0.900000E-01   1.00800           0
     38768 MEMB     329      POPC     O31      OSL     -0.490000       15.9994           0
     38769 MEMB     329      POPC     C31      CL       0.900000       12.0110           0
     38770 MEMB     329      POPC     O32      OBL     -0.630000       15.9994           0
     38771 MEMB     329      POPC     C32      CTL2    -0.220000       12.0110           0
     38772 MEMB     329      POPC     H2X      HAL2     0.900000E-01   1.00800           0
     38773 MEMB     329      POPC     H2Y      HAL2     0.900000E-01   1.00800           0
     38774 MEMB     329      POPC     C23      CTL2    -0.180000       12.0110           0
     38775 MEMB     329      POPC     H3R      HAL2     0.900000E-01   1.00800           0
     38776 MEMB     329      POPC     H3S      HAL2     0.900000E-01   1.00800           0
     38777 MEMB     329      POPC     C24      CTL2    -0.180000       12.0110           0
     38778 MEMB     329      POPC     H4R      HAL2     0.900000E-01   1.00800           0
     38779 MEMB     329      POPC     H4S      HAL2     0.900000E-01   1.00800           0
     38780 MEMB     329      POPC     C25      CTL2    -0.180000       12.0110           0
     38781 MEMB     329      POPC     H5R      HAL2     0.900000E-01   1.00800           0
     38782 MEMB     329      POPC     H5S      HAL2     0.900000E-01   1.00800           0
     38783 MEMB     329      POPC     C26      CTL2    -0.180000       12.0110           0
     38784 MEMB     329      POPC     H6R      HAL2     0.900000E-01   1.00800           0
     38785 MEMB     329      POPC     H6S      HAL2     0.900000E-01   1.00800           0
     38786 MEMB     329      POPC     C27      CTL2    -0.180000       12.0110           0
     38787 MEMB     329      POPC     H7R      HAL2     0.900000E-01   1.00800           0
     38788 MEMB     329      POPC     H7S      HAL2     0.900000E-01   1.00800           0
     38789 MEMB     329      POPC     C28      CTL2    -0.180000       12.0110           0
     38790 MEMB     329      POPC     H8R      HAL2     0.900000E-01   1.00800           0
     38791 MEMB     329      POPC     H8S      HAL2     0.900000E-01   1.00800           0
     38792 MEMB     329      POPC     C29      CEL1    -0.150000       12.0110           0
     38793 MEMB     329      POPC     H91      HEL1     0.150000       1.00800           0
     38794 MEMB     329      POPC     C210     CEL1    -0.150000       12.0110           0
     38795 MEMB     329      POPC     H101     HEL1     0.150000       1.00800           0
     38796 MEMB     329      POPC     C211     CTL2    -0.180000       12.0110           0
     38797 MEMB     329      POPC     H11R     HAL2     0.900000E-01   1.00800           0
     38798 MEMB     329      POPC     H11S     HAL2     0.900000E-01   1.00800           0
     38799 MEMB     329      POPC     C212     CTL2    -0.180000       12.0110           0
     38800 MEMB     329      POPC     H12R     HAL2     0.900000E-01   1.00800           0
     38801 MEMB     329      POPC     H12S     HAL2     0.900000E-01   1.00800           0
     38802 MEMB     329      POPC     C213     CTL2    -0.180000       12.0110           0
     38803 MEMB     329      POPC     H13R     HAL2     0.900000E-01   1.00800           0
     38804 MEMB     329      POPC     H13S     HAL2     0.900000E-01   1.00800           0
     38805 MEMB     329      POPC     C214     CTL2    -0.180000       12.0110           0
     38806 MEMB     329      POPC     H14R     HAL2     0.900000E-01   1.00800           0
     38807 MEMB     329      POPC     H14S     HAL2     0.900000E-01   1.00800           0
     38808 MEMB     329      POPC     C215     CTL2    -0.180000       12.0110           0
     38809 MEMB     329      POPC     H15R     HAL2     0.900000E-01   1.00800           0
     38810 MEMB     329      POPC     H15S     HAL2     0.900000E-01   1.00800           0
     38811 MEMB     329      POPC     C216     CTL2    -0.180000       12.0110           0
     38812 MEMB     329      POPC     H16R     HAL2     0.900000E-01   1.00800           0
     38813 MEMB     329      POPC     H16S     HAL2     0.900000E-01   1.00800           0
     38814 MEMB     329      POPC     C217     CTL2    -0.180000       12.0110           0
     38815 MEMB     329      POPC     H17R     HAL2     0.900000E-01   1.00800           0
     38816 MEMB     329      POPC     H17S     HAL2     0.900000E-01   1.00800           0
     38817 MEMB     329      POPC     C218     CTL3    -0.270000       12.0110           0
     38818 MEMB     329      POPC     H18R     HAL3     0.900000E-01   1.00800           0
     38819 MEMB     329      POPC     H18S     HAL3     0.900000E-01   1.00800           0
     38820 MEMB     329      POPC     H18T     HAL3     0.900000E-01   1.00800           0
     38821 MEMB     329      POPC     C33      CTL2    -0.180000       12.0110           0
     38822 MEMB     329      POPC     H3X      HAL2     0.900000E-01   1.00800           0
     38823 MEMB     329      POPC     H3Y      HAL2     0.900000E-01   1.00800           0
     38824 MEMB     329      POPC     C34      CTL2    -0.180000       12.0110           0
     38825 MEMB     329      POPC     H4X      HAL2     0.900000E-01   1.00800           0
     38826 MEMB     329      POPC     H4Y      HAL2     0.900000E-01   1.00800           0
     38827 MEMB     329      POPC     C35      CTL2    -0.180000       12.0110           0
     38828 MEMB     329      POPC     H5X      HAL2     0.900000E-01   1.00800           0
     38829 MEMB     329      POPC     H5Y      HAL2     0.900000E-01   1.00800           0
     38830 MEMB     329      POPC     C36      CTL2    -0.180000       12.0110           0
     38831 MEMB     329      POPC     H6X      HAL2     0.900000E-01   1.00800           0
     38832 MEMB     329      POPC     H6Y      HAL2     0.900000E-01   1.00800           0
     38833 MEMB     329      POPC     C37      CTL2    -0.180000       12.0110           0
     38834 MEMB     329      POPC     H7X      HAL2     0.900000E-01   1.00800           0
     38835 MEMB     329      POPC     H7Y      HAL2     0.900000E-01   1.00800           0
     38836 MEMB     329      POPC     C38      CTL2    -0.180000       12.0110           0
     38837 MEMB     329      POPC     H8X      HAL2     0.900000E-01   1.00800           0
     38838 MEMB     329      POPC     H8Y      HAL2     0.900000E-01   1.00800           0
     38839 MEMB     329      POPC     C39      CTL2    -0.180000       12.0110           0
     38840 MEMB     329      POPC     H9X      HAL2     0.900000E-01   1.00800           0
     38841 MEMB     329      POPC     H9Y      HAL2     0.900000E-01   1.00800           0
     38842 MEMB     329      POPC     C310     CTL2    -0.180000       12.0110           0
     38843 MEMB     329      POPC     H10X     HAL2     0.900000E-01   1.00800           0
     38844 MEMB     329      POPC     H10Y     HAL2     0.900000E-01   1.00800           0
     38845 MEMB     329      POPC     C311     CTL2    -0.180000       12.0110           0
     38846 MEMB     329      POPC     H11X     HAL2     0.900000E-01   1.00800           0
     38847 MEMB     329      POPC     H11Y     HAL2     0.900000E-01   1.00800           0
     38848 MEMB     329      POPC     C312     CTL2    -0.180000       12.0110           0
     38849 MEMB     329      POPC     H12X     HAL2     0.900000E-01   1.00800           0
     38850 MEMB     329      POPC     H12Y     HAL2     0.900000E-01   1.00800           0
     38851 MEMB     329      POPC     C313     CTL2    -0.180000       12.0110           0
     38852 MEMB     329      POPC     H13X     HAL2     0.900000E-01   1.00800           0
     38853 MEMB     329      POPC     H13Y     HAL2     0.900000E-01   1.00800           0
     38854 MEMB     329      POPC     C314     CTL2    -0.180000       12.0110           0
     38855 MEMB     329      POPC     H14X     HAL2     0.900000E-01   1.00800           0
     38856 MEMB     329      POPC     H14Y     HAL2     0.900000E-01   1.00800           0
     38857 MEMB     329      POPC     C315     CTL2    -0.180000       12.0110           0
     38858 MEMB     329      POPC     H15X     HAL2     0.900000E-01   1.00800           0
     38859 MEMB     329      POPC     H15Y     HAL2     0.900000E-01   1.00800           0
     38860 MEMB     329      POPC     C316     CTL3    -0.270000       12.0110           0
     38861 MEMB     329      POPC     H16X     HAL3     0.900000E-01   1.00800           0
     38862 MEMB     329      POPC     H16Y     HAL3     0.900000E-01   1.00800           0
     38863 MEMB     329      POPC     H16Z     HAL3     0.900000E-01   1.00800           0
     38864 MEMB     330      POPE     N        NH3L    -0.300000       14.0070           0
     38865 MEMB     330      POPE     HN1      HCL      0.330000       1.00800           0
     38866 MEMB     330      POPE     HN2      HCL      0.330000       1.00800           0
     38867 MEMB     330      POPE     HN3      HCL      0.330000       1.00800           0
     38868 MEMB     330      POPE     C12      CTL2     0.130000       12.0110           0
     38869 MEMB     330      POPE     H12A     HAL2     0.900000E-01   1.00800           0
     38870 MEMB     330      POPE     H12B     HAL2     0.900000E-01   1.00800           0
     38871 MEMB     330      POPE     C11      CTL2    -0.800000E-01   12.0110           0
     38872 MEMB     330      POPE     H11A     HAL2     0.900000E-01   1.00800           0
     38873 MEMB     330      POPE     H11B     HAL2     0.900000E-01   1.00800           0
     38874 MEMB     330      POPE     P        PL        1.50000       30.9740           0
     38875 MEMB     330      POPE     O13      O2L     -0.780000       15.9994           0
     38876 MEMB     330      POPE     O14      O2L     -0.780000       15.9994           0
     38877 MEMB     330      POPE     O11      OSLP    -0.570000       15.9994           0
     38878 MEMB     330      POPE     O12      OSLP    -0.570000       15.9994           0
     38879 MEMB     330      POPE     C1       CTL2    -0.800000E-01   12.0110           0
     38880 MEMB     330      POPE     HA       HAL2     0.900000E-01   1.00800           0
     38881 MEMB     330      POPE     HB       HAL2     0.900000E-01   1.00800           0
     38882 MEMB     330      POPE     C2       CTL1     0.170000       12.0110           0
     38883 MEMB     330      POPE     HS       HAL1     0.900000E-01   1.00800           0
     38884 MEMB     330      POPE     O21      OSL     -0.490000       15.9994           0
     38885 MEMB     330      POPE     C21      CL       0.900000       12.0110           0
     38886 MEMB     330      POPE     O22      OBL     -0.630000       15.9994           0
     38887 MEMB     330      POPE     C22      CTL2    -0.220000       12.0110           0
     38888 MEMB     330      POPE     H2R      HAL2     0.900000E-01   1.00800           0
     38889 MEMB     330      POPE     H2S      HAL2     0.900000E-01   1.00800           0
     38890 MEMB     330      POPE     C3       CTL2     0.800000E-01   12.0110           0
     38891 MEMB     330      POPE     HX       HAL2     0.900000E-01   1.00800           0
     38892 MEMB     330      POPE     HY       HAL2     0.900000E-01   1.00800           0
     38893 MEMB     330      POPE     O31      OSL     -0.490000       15.9994           0
     38894 MEMB     330      POPE     C31      CL       0.900000       12.0110           0
     38895 MEMB     330      POPE     O32      OBL     -0.630000       15.9994           0
     38896 MEMB     330      POPE     C32      CTL2    -0.220000       12.0110           0
     38897 MEMB     330      POPE     H2X      HAL2     0.900000E-01   1.00800           0
     38898 MEMB     330      POPE     H2Y      HAL2     0.900000E-01   1.00800           0
     38899 MEMB     330      POPE     C23      CTL2    -0.180000       12.0110           0
     38900 MEMB     330      POPE     H3R      HAL2     0.900000E-01   1.00800           0
     38901 MEMB     330      POPE     H3S      HAL2     0.900000E-01   1.00800           0
     38902 MEMB     330      POPE     C24      CTL2    -0.180000       12.0110           0
     38903 MEMB     330      POPE     H4R      HAL2     0.900000E-01   1.00800           0
     38904 MEMB     330      POPE     H4S      HAL2     0.900000E-01   1.00800           0
     38905 MEMB     330      POPE     C25      CTL2    -0.180000       12.0110           0
     38906 MEMB     330      POPE     H5R      HAL2     0.900000E-01   1.00800           0
     38907 MEMB     330      POPE     H5S      HAL2     0.900000E-01   1.00800           0
     38908 MEMB     330      POPE     C26      CTL2    -0.180000       12.0110           0
     38909 MEMB     330      POPE     H6R      HAL2     0.900000E-01   1.00800           0
     38910 MEMB     330      POPE     H6S      HAL2     0.900000E-01   1.00800           0
     38911 MEMB     330      POPE     C27      CTL2    -0.180000       12.0110           0
     38912 MEMB     330      POPE     H7R      HAL2     0.900000E-01   1.00800           0
     38913 MEMB     330      POPE     H7S      HAL2     0.900000E-01   1.00800           0
     38914 MEMB     330      POPE     C28      CTL2    -0.180000       12.0110           0
     38915 MEMB     330      POPE     H8R      HAL2     0.900000E-01   1.00800           0
     38916 MEMB     330      POPE     H8S      HAL2     0.900000E-01   1.00800           0
     38917 MEMB     330      POPE     C29      CEL1    -0.150000       12.0110           0
     38918 MEMB     330      POPE     H91      HEL1     0.150000       1.00800           0
     38919 MEMB     330      POPE     C210     CEL1    -0.150000       12.0110           0
     38920 MEMB     330      POPE     H101     HEL1     0.150000       1.00800           0
     38921 MEMB     330      POPE     C211     CTL2    -0.180000       12.0110           0
     38922 MEMB     330      POPE     H11R     HAL2     0.900000E-01   1.00800           0
     38923 MEMB     330      POPE     H11S     HAL2     0.900000E-01   1.00800           0
     38924 MEMB     330      POPE     C212     CTL2    -0.180000       12.0110           0
     38925 MEMB     330      POPE     H12R     HAL2     0.900000E-01   1.00800           0
     38926 MEMB     330      POPE     H12S     HAL2     0.900000E-01   1.00800           0
     38927 MEMB     330      POPE     C213     CTL2    -0.180000       12.0110           0
     38928 MEMB     330      POPE     H13R     HAL2     0.900000E-01   1.00800           0
     38929 MEMB     330      POPE     H13S     HAL2     0.900000E-01   1.00800           0
     38930 MEMB     330      POPE     C214     CTL2    -0.180000       12.0110           0
     38931 MEMB     330      POPE     H14R     HAL2     0.900000E-01   1.00800           0
     38932 MEMB     330      POPE     H14S     HAL2     0.900000E-01   1.00800           0
     38933 MEMB     330      POPE     C215     CTL2    -0.180000       12.0110           0
     38934 MEMB     330      POPE     H15R     HAL2     0.900000E-01   1.00800           0
     38935 MEMB     330      POPE     H15S     HAL2     0.900000E-01   1.00800           0
     38936 MEMB     330      POPE     C216     CTL2    -0.180000       12.0110           0
     38937 MEMB     330      POPE     H16R     HAL2     0.900000E-01   1.00800           0
     38938 MEMB     330      POPE     H16S     HAL2     0.900000E-01   1.00800           0
     38939 MEMB     330      POPE     C217     CTL2    -0.180000       12.0110           0
     38940 MEMB     330      POPE     H17R     HAL2     0.900000E-01   1.00800           0
     38941 MEMB     330      POPE     H17S     HAL2     0.900000E-01   1.00800           0
     38942 MEMB     330      POPE     C218     CTL3    -0.270000       12.0110           0
     38943 MEMB     330      POPE     H18R     HAL3     0.900000E-01   1.00800           0
     38944 MEMB     330      POPE     H18S     HAL3     0.900000E-01   1.00800           0
     38945 MEMB     330      POPE     H18T     HAL3     0.900000E-01   1.00800           0
     38946 MEMB     330      POPE     C33      CTL2    -0.180000       12.0110           0
     38947 MEMB     330      POPE     H3X      HAL2     0.900000E-01   1.00800           0
     38948 MEMB     330      POPE     H3Y      HAL2     0.900000E-01   1.00800           0
     38949 MEMB     330      POPE     C34      CTL2    -0.180000       12.0110           0
     38950 MEMB     330      POPE     H4X      HAL2     0.900000E-01   1.00800           0
     38951 MEMB     330      POPE     H4Y      HAL2     0.900000E-01   1.00800           0
     38952 MEMB     330      POPE     C35      CTL2    -0.180000       12.0110           0
     38953 MEMB     330      POPE     H5X      HAL2     0.900000E-01   1.00800           0
     38954 MEMB     330      POPE     H5Y      HAL2     0.900000E-01   1.00800           0
     38955 MEMB     330      POPE     C36      CTL2    -0.180000       12.0110           0
     38956 MEMB     330      POPE     H6X      HAL2     0.900000E-01   1.00800           0
     38957 MEMB     330      POPE     H6Y      HAL2     0.900000E-01   1.00800           0
     38958 MEMB     330      POPE     C37      CTL2    -0.180000       12.0110           0
     38959 MEMB     330      POPE     H7X      HAL2     0.900000E-01   1.00800           0
     38960 MEMB     330      POPE     H7Y      HAL2     0.900000E-01   1.00800           0
     38961 MEMB     330      POPE     C38      CTL2    -0.180000       12.0110           0
     38962 MEMB     330      POPE     H8X      HAL2     0.900000E-01   1.00800           0
     38963 MEMB     330      POPE     H8Y      HAL2     0.900000E-01   1.00800           0
     38964 MEMB     330      POPE     C39      CTL2    -0.180000       12.0110           0
     38965 MEMB     330      POPE     H9X      HAL2     0.900000E-01   1.00800           0
     38966 MEMB     330      POPE     H9Y      HAL2     0.900000E-01   1.00800           0
     38967 MEMB     330      POPE     C310     CTL2    -0.180000       12.0110           0
     38968 MEMB     330      POPE     H10X     HAL2     0.900000E-01   1.00800           0
     38969 MEMB     330      POPE     H10Y     HAL2     0.900000E-01   1.00800           0
     38970 MEMB     330      POPE     C311     CTL2    -0.180000       12.0110           0
     38971 MEMB     330      POPE     H11X     HAL2     0.900000E-01   1.00800           0
     38972 MEMB     330      POPE     H11Y     HAL2     0.900000E-01   1.00800           0
     38973 MEMB     330      POPE     C312     CTL2    -0.180000       12.0110           0
     38974 MEMB     330      POPE     H12X     HAL2     0.900000E-01   1.00800           0
     38975 MEMB     330      POPE     H12Y     HAL2     0.900000E-01   1.00800           0
     38976 MEMB     330      POPE     C313     CTL2    -0.180000       12.0110           0
     38977 MEMB     330      POPE     H13X     HAL2     0.900000E-01   1.00800           0
     38978 MEMB     330      POPE     H13Y     HAL2     0.900000E-01   1.00800           0
     38979 MEMB     330      POPE     C314     CTL2    -0.180000       12.0110           0
     38980 MEMB     330      POPE     H14X     HAL2     0.900000E-01   1.00800           0
     38981 MEMB     330      POPE     H14Y     HAL2     0.900000E-01   1.00800           0
     38982 MEMB     330      POPE     C315     CTL2    -0.180000       12.0110           0
     38983 MEMB     330      POPE     H15X     HAL2     0.900000E-01   1.00800           0
     38984 MEMB     330      POPE     H15Y     HAL2     0.900000E-01   1.00800           0
     38985 MEMB     330      POPE     C316     CTL3    -0.270000       12.0110           0
     38986 MEMB     330      POPE     H16X     HAL3     0.900000E-01   1.00800           0
     38987 MEMB     330      POPE     H16Y     HAL3     0.900000E-01   1.00800           0
     38988 MEMB     330      POPE     H16Z     HAL3     0.900000E-01   1.00800           0
     38989 MEMB     331      POPC     N        NTL     -0.600000       14.0070           0
     38990 MEMB     331      POPC     C12      CTL2    -0.100000       12.0110           0
     38991 MEMB     331      POPC     H12A     HL       0.250000       1.00800           0
     38992 MEMB     331      POPC     H12B     HL       0.250000       1.00800           0
     38993 MEMB     331      POPC     C13      CTL5    -0.350000       12.0110           0
     38994 MEMB     331      POPC     H13A     HL       0.250000       1.00800           0
     38995 MEMB     331      POPC     H13B     HL       0.250000       1.00800           0
     38996 MEMB     331      POPC     H13C     HL       0.250000       1.00800           0
     38997 MEMB     331      POPC     C14      CTL5    -0.350000       12.0110           0
     38998 MEMB     331      POPC     H14A     HL       0.250000       1.00800           0
     38999 MEMB     331      POPC     H14B     HL       0.250000       1.00800           0
     39000 MEMB     331      POPC     H14C     HL       0.250000       1.00800           0
     39001 MEMB     331      POPC     C15      CTL5    -0.350000       12.0110           0
     39002 MEMB     331      POPC     H15A     HL       0.250000       1.00800           0
     39003 MEMB     331      POPC     H15B     HL       0.250000       1.00800           0
     39004 MEMB     331      POPC     H15C     HL       0.250000       1.00800           0
     39005 MEMB     331      POPC     C11      CTL2    -0.800000E-01   12.0110           0
     39006 MEMB     331      POPC     H11A     HAL2     0.900000E-01   1.00800           0
     39007 MEMB     331      POPC     H11B     HAL2     0.900000E-01   1.00800           0
     39008 MEMB     331      POPC     P        PL        1.50000       30.9740           0
     39009 MEMB     331      POPC     O13      O2L     -0.780000       15.9994           0
     39010 MEMB     331      POPC     O14      O2L     -0.780000       15.9994           0
     39011 MEMB     331      POPC     O12      OSLP    -0.570000       15.9994           0
     39012 MEMB     331      POPC     O11      OSLP    -0.570000       15.9994           0
     39013 MEMB     331      POPC     C1       CTL2    -0.800000E-01   12.0110           0
     39014 MEMB     331      POPC     HA       HAL2     0.900000E-01   1.00800           0
     39015 MEMB     331      POPC     HB       HAL2     0.900000E-01   1.00800           0
     39016 MEMB     331      POPC     C2       CTL1     0.170000       12.0110           0
     39017 MEMB     331      POPC     HS       HAL1     0.900000E-01   1.00800           0
     39018 MEMB     331      POPC     O21      OSL     -0.490000       15.9994           0
     39019 MEMB     331      POPC     C21      CL       0.900000       12.0110           0
     39020 MEMB     331      POPC     O22      OBL     -0.630000       15.9994           0
     39021 MEMB     331      POPC     C22      CTL2    -0.220000       12.0110           0
     39022 MEMB     331      POPC     H2R      HAL2     0.900000E-01   1.00800           0
     39023 MEMB     331      POPC     H2S      HAL2     0.900000E-01   1.00800           0
     39024 MEMB     331      POPC     C3       CTL2     0.800000E-01   12.0110           0
     39025 MEMB     331      POPC     HX       HAL2     0.900000E-01   1.00800           0
     39026 MEMB     331      POPC     HY       HAL2     0.900000E-01   1.00800           0
     39027 MEMB     331      POPC     O31      OSL     -0.490000       15.9994           0
     39028 MEMB     331      POPC     C31      CL       0.900000       12.0110           0
     39029 MEMB     331      POPC     O32      OBL     -0.630000       15.9994           0
     39030 MEMB     331      POPC     C32      CTL2    -0.220000       12.0110           0
     39031 MEMB     331      POPC     H2X      HAL2     0.900000E-01   1.00800           0
     39032 MEMB     331      POPC     H2Y      HAL2     0.900000E-01   1.00800           0
     39033 MEMB     331      POPC     C23      CTL2    -0.180000       12.0110           0
     39034 MEMB     331      POPC     H3R      HAL2     0.900000E-01   1.00800           0
     39035 MEMB     331      POPC     H3S      HAL2     0.900000E-01   1.00800           0
     39036 MEMB     331      POPC     C24      CTL2    -0.180000       12.0110           0
     39037 MEMB     331      POPC     H4R      HAL2     0.900000E-01   1.00800           0
     39038 MEMB     331      POPC     H4S      HAL2     0.900000E-01   1.00800           0
     39039 MEMB     331      POPC     C25      CTL2    -0.180000       12.0110           0
     39040 MEMB     331      POPC     H5R      HAL2     0.900000E-01   1.00800           0
     39041 MEMB     331      POPC     H5S      HAL2     0.900000E-01   1.00800           0
     39042 MEMB     331      POPC     C26      CTL2    -0.180000       12.0110           0
     39043 MEMB     331      POPC     H6R      HAL2     0.900000E-01   1.00800           0
     39044 MEMB     331      POPC     H6S      HAL2     0.900000E-01   1.00800           0
     39045 MEMB     331      POPC     C27      CTL2    -0.180000       12.0110           0
     39046 MEMB     331      POPC     H7R      HAL2     0.900000E-01   1.00800           0
     39047 MEMB     331      POPC     H7S      HAL2     0.900000E-01   1.00800           0
     39048 MEMB     331      POPC     C28      CTL2    -0.180000       12.0110           0
     39049 MEMB     331      POPC     H8R      HAL2     0.900000E-01   1.00800           0
     39050 MEMB     331      POPC     H8S      HAL2     0.900000E-01   1.00800           0
     39051 MEMB     331      POPC     C29      CEL1    -0.150000       12.0110           0
     39052 MEMB     331      POPC     H91      HEL1     0.150000       1.00800           0
     39053 MEMB     331      POPC     C210     CEL1    -0.150000       12.0110           0
     39054 MEMB     331      POPC     H101     HEL1     0.150000       1.00800           0
     39055 MEMB     331      POPC     C211     CTL2    -0.180000       12.0110           0
     39056 MEMB     331      POPC     H11R     HAL2     0.900000E-01   1.00800           0
     39057 MEMB     331      POPC     H11S     HAL2     0.900000E-01   1.00800           0
     39058 MEMB     331      POPC     C212     CTL2    -0.180000       12.0110           0
     39059 MEMB     331      POPC     H12R     HAL2     0.900000E-01   1.00800           0
     39060 MEMB     331      POPC     H12S     HAL2     0.900000E-01   1.00800           0
     39061 MEMB     331      POPC     C213     CTL2    -0.180000       12.0110           0
     39062 MEMB     331      POPC     H13R     HAL2     0.900000E-01   1.00800           0
     39063 MEMB     331      POPC     H13S     HAL2     0.900000E-01   1.00800           0
     39064 MEMB     331      POPC     C214     CTL2    -0.180000       12.0110           0
     39065 MEMB     331      POPC     H14R     HAL2     0.900000E-01   1.00800           0
     39066 MEMB     331      POPC     H14S     HAL2     0.900000E-01   1.00800           0
     39067 MEMB     331      POPC     C215     CTL2    -0.180000       12.0110           0
     39068 MEMB     331      POPC     H15R     HAL2     0.900000E-01   1.00800           0
     39069 MEMB     331      POPC     H15S     HAL2     0.900000E-01   1.00800           0
     39070 MEMB     331      POPC     C216     CTL2    -0.180000       12.0110           0
     39071 MEMB     331      POPC     H16R     HAL2     0.900000E-01   1.00800           0
     39072 MEMB     331      POPC     H16S     HAL2     0.900000E-01   1.00800           0
     39073 MEMB     331      POPC     C217     CTL2    -0.180000       12.0110           0
     39074 MEMB     331      POPC     H17R     HAL2     0.900000E-01   1.00800           0
     39075 MEMB     331      POPC     H17S     HAL2     0.900000E-01   1.00800           0
     39076 MEMB     331      POPC     C218     CTL3    -0.270000       12.0110           0
     39077 MEMB     331      POPC     H18R     HAL3     0.900000E-01   1.00800           0
     39078 MEMB     331      POPC     H18S     HAL3     0.900000E-01   1.00800           0
     39079 MEMB     331      POPC     H18T     HAL3     0.900000E-01   1.00800           0
     39080 MEMB     331      POPC     C33      CTL2    -0.180000       12.0110           0
     39081 MEMB     331      POPC     H3X      HAL2     0.900000E-01   1.00800           0
     39082 MEMB     331      POPC     H3Y      HAL2     0.900000E-01   1.00800           0
     39083 MEMB     331      POPC     C34      CTL2    -0.180000       12.0110           0
     39084 MEMB     331      POPC     H4X      HAL2     0.900000E-01   1.00800           0
     39085 MEMB     331      POPC     H4Y      HAL2     0.900000E-01   1.00800           0
     39086 MEMB     331      POPC     C35      CTL2    -0.180000       12.0110           0
     39087 MEMB     331      POPC     H5X      HAL2     0.900000E-01   1.00800           0
     39088 MEMB     331      POPC     H5Y      HAL2     0.900000E-01   1.00800           0
     39089 MEMB     331      POPC     C36      CTL2    -0.180000       12.0110           0
     39090 MEMB     331      POPC     H6X      HAL2     0.900000E-01   1.00800           0
     39091 MEMB     331      POPC     H6Y      HAL2     0.900000E-01   1.00800           0
     39092 MEMB     331      POPC     C37      CTL2    -0.180000       12.0110           0
     39093 MEMB     331      POPC     H7X      HAL2     0.900000E-01   1.00800           0
     39094 MEMB     331      POPC     H7Y      HAL2     0.900000E-01   1.00800           0
     39095 MEMB     331      POPC     C38      CTL2    -0.180000       12.0110           0
     39096 MEMB     331      POPC     H8X      HAL2     0.900000E-01   1.00800           0
     39097 MEMB     331      POPC     H8Y      HAL2     0.900000E-01   1.00800           0
     39098 MEMB     331      POPC     C39      CTL2    -0.180000       12.0110           0
     39099 MEMB     331      POPC     H9X      HAL2     0.900000E-01   1.00800           0
     39100 MEMB     331      POPC     H9Y      HAL2     0.900000E-01   1.00800           0
     39101 MEMB     331      POPC     C310     CTL2    -0.180000       12.0110           0
     39102 MEMB     331      POPC     H10X     HAL2     0.900000E-01   1.00800           0
     39103 MEMB     331      POPC     H10Y     HAL2     0.900000E-01   1.00800           0
     39104 MEMB     331      POPC     C311     CTL2    -0.180000       12.0110           0
     39105 MEMB     331      POPC     H11X     HAL2     0.900000E-01   1.00800           0
     39106 MEMB     331      POPC     H11Y     HAL2     0.900000E-01   1.00800           0
     39107 MEMB     331      POPC     C312     CTL2    -0.180000       12.0110           0
     39108 MEMB     331      POPC     H12X     HAL2     0.900000E-01   1.00800           0
     39109 MEMB     331      POPC     H12Y     HAL2     0.900000E-01   1.00800           0
     39110 MEMB     331      POPC     C313     CTL2    -0.180000       12.0110           0
     39111 MEMB     331      POPC     H13X     HAL2     0.900000E-01   1.00800           0
     39112 MEMB     331      POPC     H13Y     HAL2     0.900000E-01   1.00800           0
     39113 MEMB     331      POPC     C314     CTL2    -0.180000       12.0110           0
     39114 MEMB     331      POPC     H14X     HAL2     0.900000E-01   1.00800           0
     39115 MEMB     331      POPC     H14Y     HAL2     0.900000E-01   1.00800           0
     39116 MEMB     331      POPC     C315     CTL2    -0.180000       12.0110           0
     39117 MEMB     331      POPC     H15X     HAL2     0.900000E-01   1.00800           0
     39118 MEMB     331      POPC     H15Y     HAL2     0.900000E-01   1.00800           0
     39119 MEMB     331      POPC     C316     CTL3    -0.270000       12.0110           0
     39120 MEMB     331      POPC     H16X     HAL3     0.900000E-01   1.00800           0
     39121 MEMB     331      POPC     H16Y     HAL3     0.900000E-01   1.00800           0
     39122 MEMB     331      POPC     H16Z     HAL3     0.900000E-01   1.00800           0
     39123 MEMB     332      POPE     N        NH3L    -0.300000       14.0070           0
     39124 MEMB     332      POPE     HN1      HCL      0.330000       1.00800           0
     39125 MEMB     332      POPE     HN2      HCL      0.330000       1.00800           0
     39126 MEMB     332      POPE     HN3      HCL      0.330000       1.00800           0
     39127 MEMB     332      POPE     C12      CTL2     0.130000       12.0110           0
     39128 MEMB     332      POPE     H12A     HAL2     0.900000E-01   1.00800           0
     39129 MEMB     332      POPE     H12B     HAL2     0.900000E-01   1.00800           0
     39130 MEMB     332      POPE     C11      CTL2    -0.800000E-01   12.0110           0
     39131 MEMB     332      POPE     H11A     HAL2     0.900000E-01   1.00800           0
     39132 MEMB     332      POPE     H11B     HAL2     0.900000E-01   1.00800           0
     39133 MEMB     332      POPE     P        PL        1.50000       30.9740           0
     39134 MEMB     332      POPE     O13      O2L     -0.780000       15.9994           0
     39135 MEMB     332      POPE     O14      O2L     -0.780000       15.9994           0
     39136 MEMB     332      POPE     O11      OSLP    -0.570000       15.9994           0
     39137 MEMB     332      POPE     O12      OSLP    -0.570000       15.9994           0
     39138 MEMB     332      POPE     C1       CTL2    -0.800000E-01   12.0110           0
     39139 MEMB     332      POPE     HA       HAL2     0.900000E-01   1.00800           0
     39140 MEMB     332      POPE     HB       HAL2     0.900000E-01   1.00800           0
     39141 MEMB     332      POPE     C2       CTL1     0.170000       12.0110           0
     39142 MEMB     332      POPE     HS       HAL1     0.900000E-01   1.00800           0
     39143 MEMB     332      POPE     O21      OSL     -0.490000       15.9994           0
     39144 MEMB     332      POPE     C21      CL       0.900000       12.0110           0
     39145 MEMB     332      POPE     O22      OBL     -0.630000       15.9994           0
     39146 MEMB     332      POPE     C22      CTL2    -0.220000       12.0110           0
     39147 MEMB     332      POPE     H2R      HAL2     0.900000E-01   1.00800           0
     39148 MEMB     332      POPE     H2S      HAL2     0.900000E-01   1.00800           0
     39149 MEMB     332      POPE     C3       CTL2     0.800000E-01   12.0110           0
     39150 MEMB     332      POPE     HX       HAL2     0.900000E-01   1.00800           0
     39151 MEMB     332      POPE     HY       HAL2     0.900000E-01   1.00800           0
     39152 MEMB     332      POPE     O31      OSL     -0.490000       15.9994           0
     39153 MEMB     332      POPE     C31      CL       0.900000       12.0110           0
     39154 MEMB     332      POPE     O32      OBL     -0.630000       15.9994           0
     39155 MEMB     332      POPE     C32      CTL2    -0.220000       12.0110           0
     39156 MEMB     332      POPE     H2X      HAL2     0.900000E-01   1.00800           0
     39157 MEMB     332      POPE     H2Y      HAL2     0.900000E-01   1.00800           0
     39158 MEMB     332      POPE     C23      CTL2    -0.180000       12.0110           0
     39159 MEMB     332      POPE     H3R      HAL2     0.900000E-01   1.00800           0
     39160 MEMB     332      POPE     H3S      HAL2     0.900000E-01   1.00800           0
     39161 MEMB     332      POPE     C24      CTL2    -0.180000       12.0110           0
     39162 MEMB     332      POPE     H4R      HAL2     0.900000E-01   1.00800           0
     39163 MEMB     332      POPE     H4S      HAL2     0.900000E-01   1.00800           0
     39164 MEMB     332      POPE     C25      CTL2    -0.180000       12.0110           0
     39165 MEMB     332      POPE     H5R      HAL2     0.900000E-01   1.00800           0
     39166 MEMB     332      POPE     H5S      HAL2     0.900000E-01   1.00800           0
     39167 MEMB     332      POPE     C26      CTL2    -0.180000       12.0110           0
     39168 MEMB     332      POPE     H6R      HAL2     0.900000E-01   1.00800           0
     39169 MEMB     332      POPE     H6S      HAL2     0.900000E-01   1.00800           0
     39170 MEMB     332      POPE     C27      CTL2    -0.180000       12.0110           0
     39171 MEMB     332      POPE     H7R      HAL2     0.900000E-01   1.00800           0
     39172 MEMB     332      POPE     H7S      HAL2     0.900000E-01   1.00800           0
     39173 MEMB     332      POPE     C28      CTL2    -0.180000       12.0110           0
     39174 MEMB     332      POPE     H8R      HAL2     0.900000E-01   1.00800           0
     39175 MEMB     332      POPE     H8S      HAL2     0.900000E-01   1.00800           0
     39176 MEMB     332      POPE     C29      CEL1    -0.150000       12.0110           0
     39177 MEMB     332      POPE     H91      HEL1     0.150000       1.00800           0
     39178 MEMB     332      POPE     C210     CEL1    -0.150000       12.0110           0
     39179 MEMB     332      POPE     H101     HEL1     0.150000       1.00800           0
     39180 MEMB     332      POPE     C211     CTL2    -0.180000       12.0110           0
     39181 MEMB     332      POPE     H11R     HAL2     0.900000E-01   1.00800           0
     39182 MEMB     332      POPE     H11S     HAL2     0.900000E-01   1.00800           0
     39183 MEMB     332      POPE     C212     CTL2    -0.180000       12.0110           0
     39184 MEMB     332      POPE     H12R     HAL2     0.900000E-01   1.00800           0
     39185 MEMB     332      POPE     H12S     HAL2     0.900000E-01   1.00800           0
     39186 MEMB     332      POPE     C213     CTL2    -0.180000       12.0110           0
     39187 MEMB     332      POPE     H13R     HAL2     0.900000E-01   1.00800           0
     39188 MEMB     332      POPE     H13S     HAL2     0.900000E-01   1.00800           0
     39189 MEMB     332      POPE     C214     CTL2    -0.180000       12.0110           0
     39190 MEMB     332      POPE     H14R     HAL2     0.900000E-01   1.00800           0
     39191 MEMB     332      POPE     H14S     HAL2     0.900000E-01   1.00800           0
     39192 MEMB     332      POPE     C215     CTL2    -0.180000       12.0110           0
     39193 MEMB     332      POPE     H15R     HAL2     0.900000E-01   1.00800           0
     39194 MEMB     332      POPE     H15S     HAL2     0.900000E-01   1.00800           0
     39195 MEMB     332      POPE     C216     CTL2    -0.180000       12.0110           0
     39196 MEMB     332      POPE     H16R     HAL2     0.900000E-01   1.00800           0
     39197 MEMB     332      POPE     H16S     HAL2     0.900000E-01   1.00800           0
     39198 MEMB     332      POPE     C217     CTL2    -0.180000       12.0110           0
     39199 MEMB     332      POPE     H17R     HAL2     0.900000E-01   1.00800           0
     39200 MEMB     332      POPE     H17S     HAL2     0.900000E-01   1.00800           0
     39201 MEMB     332      POPE     C218     CTL3    -0.270000       12.0110           0
     39202 MEMB     332      POPE     H18R     HAL3     0.900000E-01   1.00800           0
     39203 MEMB     332      POPE     H18S     HAL3     0.900000E-01   1.00800           0
     39204 MEMB     332      POPE     H18T     HAL3     0.900000E-01   1.00800           0
     39205 MEMB     332      POPE     C33      CTL2    -0.180000       12.0110           0
     39206 MEMB     332      POPE     H3X      HAL2     0.900000E-01   1.00800           0
     39207 MEMB     332      POPE     H3Y      HAL2     0.900000E-01   1.00800           0
     39208 MEMB     332      POPE     C34      CTL2    -0.180000       12.0110           0
     39209 MEMB     332      POPE     H4X      HAL2     0.900000E-01   1.00800           0
     39210 MEMB     332      POPE     H4Y      HAL2     0.900000E-01   1.00800           0
     39211 MEMB     332      POPE     C35      CTL2    -0.180000       12.0110           0
     39212 MEMB     332      POPE     H5X      HAL2     0.900000E-01   1.00800           0
     39213 MEMB     332      POPE     H5Y      HAL2     0.900000E-01   1.00800           0
     39214 MEMB     332      POPE     C36      CTL2    -0.180000       12.0110           0
     39215 MEMB     332      POPE     H6X      HAL2     0.900000E-01   1.00800           0
     39216 MEMB     332      POPE     H6Y      HAL2     0.900000E-01   1.00800           0
     39217 MEMB     332      POPE     C37      CTL2    -0.180000       12.0110           0
     39218 MEMB     332      POPE     H7X      HAL2     0.900000E-01   1.00800           0
     39219 MEMB     332      POPE     H7Y      HAL2     0.900000E-01   1.00800           0
     39220 MEMB     332      POPE     C38      CTL2    -0.180000       12.0110           0
     39221 MEMB     332      POPE     H8X      HAL2     0.900000E-01   1.00800           0
     39222 MEMB     332      POPE     H8Y      HAL2     0.900000E-01   1.00800           0
     39223 MEMB     332      POPE     C39      CTL2    -0.180000       12.0110           0
     39224 MEMB     332      POPE     H9X      HAL2     0.900000E-01   1.00800           0
     39225 MEMB     332      POPE     H9Y      HAL2     0.900000E-01   1.00800           0
     39226 MEMB     332      POPE     C310     CTL2    -0.180000       12.0110           0
     39227 MEMB     332      POPE     H10X     HAL2     0.900000E-01   1.00800           0
     39228 MEMB     332      POPE     H10Y     HAL2     0.900000E-01   1.00800           0
     39229 MEMB     332      POPE     C311     CTL2    -0.180000       12.0110           0
     39230 MEMB     332      POPE     H11X     HAL2     0.900000E-01   1.00800           0
     39231 MEMB     332      POPE     H11Y     HAL2     0.900000E-01   1.00800           0
     39232 MEMB     332      POPE     C312     CTL2    -0.180000       12.0110           0
     39233 MEMB     332      POPE     H12X     HAL2     0.900000E-01   1.00800           0
     39234 MEMB     332      POPE     H12Y     HAL2     0.900000E-01   1.00800           0
     39235 MEMB     332      POPE     C313     CTL2    -0.180000       12.0110           0
     39236 MEMB     332      POPE     H13X     HAL2     0.900000E-01   1.00800           0
     39237 MEMB     332      POPE     H13Y     HAL2     0.900000E-01   1.00800           0
     39238 MEMB     332      POPE     C314     CTL2    -0.180000       12.0110           0
     39239 MEMB     332      POPE     H14X     HAL2     0.900000E-01   1.00800           0
     39240 MEMB     332      POPE     H14Y     HAL2     0.900000E-01   1.00800           0
     39241 MEMB     332      POPE     C315     CTL2    -0.180000       12.0110           0
     39242 MEMB     332      POPE     H15X     HAL2     0.900000E-01   1.00800           0
     39243 MEMB     332      POPE     H15Y     HAL2     0.900000E-01   1.00800           0
     39244 MEMB     332      POPE     C316     CTL3    -0.270000       12.0110           0
     39245 MEMB     332      POPE     H16X     HAL3     0.900000E-01   1.00800           0
     39246 MEMB     332      POPE     H16Y     HAL3     0.900000E-01   1.00800           0
     39247 MEMB     332      POPE     H16Z     HAL3     0.900000E-01   1.00800           0
     39248 MEMB     333      POPE     N        NH3L    -0.300000       14.0070           0
     39249 MEMB     333      POPE     HN1      HCL      0.330000       1.00800           0
     39250 MEMB     333      POPE     HN2      HCL      0.330000       1.00800           0
     39251 MEMB     333      POPE     HN3      HCL      0.330000       1.00800           0
     39252 MEMB     333      POPE     C12      CTL2     0.130000       12.0110           0
     39253 MEMB     333      POPE     H12A     HAL2     0.900000E-01   1.00800           0
     39254 MEMB     333      POPE     H12B     HAL2     0.900000E-01   1.00800           0
     39255 MEMB     333      POPE     C11      CTL2    -0.800000E-01   12.0110           0
     39256 MEMB     333      POPE     H11A     HAL2     0.900000E-01   1.00800           0
     39257 MEMB     333      POPE     H11B     HAL2     0.900000E-01   1.00800           0
     39258 MEMB     333      POPE     P        PL        1.50000       30.9740           0
     39259 MEMB     333      POPE     O13      O2L     -0.780000       15.9994           0
     39260 MEMB     333      POPE     O14      O2L     -0.780000       15.9994           0
     39261 MEMB     333      POPE     O11      OSLP    -0.570000       15.9994           0
     39262 MEMB     333      POPE     O12      OSLP    -0.570000       15.9994           0
     39263 MEMB     333      POPE     C1       CTL2    -0.800000E-01   12.0110           0
     39264 MEMB     333      POPE     HA       HAL2     0.900000E-01   1.00800           0
     39265 MEMB     333      POPE     HB       HAL2     0.900000E-01   1.00800           0
     39266 MEMB     333      POPE     C2       CTL1     0.170000       12.0110           0
     39267 MEMB     333      POPE     HS       HAL1     0.900000E-01   1.00800           0
     39268 MEMB     333      POPE     O21      OSL     -0.490000       15.9994           0
     39269 MEMB     333      POPE     C21      CL       0.900000       12.0110           0
     39270 MEMB     333      POPE     O22      OBL     -0.630000       15.9994           0
     39271 MEMB     333      POPE     C22      CTL2    -0.220000       12.0110           0
     39272 MEMB     333      POPE     H2R      HAL2     0.900000E-01   1.00800           0
     39273 MEMB     333      POPE     H2S      HAL2     0.900000E-01   1.00800           0
     39274 MEMB     333      POPE     C3       CTL2     0.800000E-01   12.0110           0
     39275 MEMB     333      POPE     HX       HAL2     0.900000E-01   1.00800           0
     39276 MEMB     333      POPE     HY       HAL2     0.900000E-01   1.00800           0
     39277 MEMB     333      POPE     O31      OSL     -0.490000       15.9994           0
     39278 MEMB     333      POPE     C31      CL       0.900000       12.0110           0
     39279 MEMB     333      POPE     O32      OBL     -0.630000       15.9994           0
     39280 MEMB     333      POPE     C32      CTL2    -0.220000       12.0110           0
     39281 MEMB     333      POPE     H2X      HAL2     0.900000E-01   1.00800           0
     39282 MEMB     333      POPE     H2Y      HAL2     0.900000E-01   1.00800           0
     39283 MEMB     333      POPE     C23      CTL2    -0.180000       12.0110           0
     39284 MEMB     333      POPE     H3R      HAL2     0.900000E-01   1.00800           0
     39285 MEMB     333      POPE     H3S      HAL2     0.900000E-01   1.00800           0
     39286 MEMB     333      POPE     C24      CTL2    -0.180000       12.0110           0
     39287 MEMB     333      POPE     H4R      HAL2     0.900000E-01   1.00800           0
     39288 MEMB     333      POPE     H4S      HAL2     0.900000E-01   1.00800           0
     39289 MEMB     333      POPE     C25      CTL2    -0.180000       12.0110           0
     39290 MEMB     333      POPE     H5R      HAL2     0.900000E-01   1.00800           0
     39291 MEMB     333      POPE     H5S      HAL2     0.900000E-01   1.00800           0
     39292 MEMB     333      POPE     C26      CTL2    -0.180000       12.0110           0
     39293 MEMB     333      POPE     H6R      HAL2     0.900000E-01   1.00800           0
     39294 MEMB     333      POPE     H6S      HAL2     0.900000E-01   1.00800           0
     39295 MEMB     333      POPE     C27      CTL2    -0.180000       12.0110           0
     39296 MEMB     333      POPE     H7R      HAL2     0.900000E-01   1.00800           0
     39297 MEMB     333      POPE     H7S      HAL2     0.900000E-01   1.00800           0
     39298 MEMB     333      POPE     C28      CTL2    -0.180000       12.0110           0
     39299 MEMB     333      POPE     H8R      HAL2     0.900000E-01   1.00800           0
     39300 MEMB     333      POPE     H8S      HAL2     0.900000E-01   1.00800           0
     39301 MEMB     333      POPE     C29      CEL1    -0.150000       12.0110           0
     39302 MEMB     333      POPE     H91      HEL1     0.150000       1.00800           0
     39303 MEMB     333      POPE     C210     CEL1    -0.150000       12.0110           0
     39304 MEMB     333      POPE     H101     HEL1     0.150000       1.00800           0
     39305 MEMB     333      POPE     C211     CTL2    -0.180000       12.0110           0
     39306 MEMB     333      POPE     H11R     HAL2     0.900000E-01   1.00800           0
     39307 MEMB     333      POPE     H11S     HAL2     0.900000E-01   1.00800           0
     39308 MEMB     333      POPE     C212     CTL2    -0.180000       12.0110           0
     39309 MEMB     333      POPE     H12R     HAL2     0.900000E-01   1.00800           0
     39310 MEMB     333      POPE     H12S     HAL2     0.900000E-01   1.00800           0
     39311 MEMB     333      POPE     C213     CTL2    -0.180000       12.0110           0
     39312 MEMB     333      POPE     H13R     HAL2     0.900000E-01   1.00800           0
     39313 MEMB     333      POPE     H13S     HAL2     0.900000E-01   1.00800           0
     39314 MEMB     333      POPE     C214     CTL2    -0.180000       12.0110           0
     39315 MEMB     333      POPE     H14R     HAL2     0.900000E-01   1.00800           0
     39316 MEMB     333      POPE     H14S     HAL2     0.900000E-01   1.00800           0
     39317 MEMB     333      POPE     C215     CTL2    -0.180000       12.0110           0
     39318 MEMB     333      POPE     H15R     HAL2     0.900000E-01   1.00800           0
     39319 MEMB     333      POPE     H15S     HAL2     0.900000E-01   1.00800           0
     39320 MEMB     333      POPE     C216     CTL2    -0.180000       12.0110           0
     39321 MEMB     333      POPE     H16R     HAL2     0.900000E-01   1.00800           0
     39322 MEMB     333      POPE     H16S     HAL2     0.900000E-01   1.00800           0
     39323 MEMB     333      POPE     C217     CTL2    -0.180000       12.0110           0
     39324 MEMB     333      POPE     H17R     HAL2     0.900000E-01   1.00800           0
     39325 MEMB     333      POPE     H17S     HAL2     0.900000E-01   1.00800           0
     39326 MEMB     333      POPE     C218     CTL3    -0.270000       12.0110           0
     39327 MEMB     333      POPE     H18R     HAL3     0.900000E-01   1.00800           0
     39328 MEMB     333      POPE     H18S     HAL3     0.900000E-01   1.00800           0
     39329 MEMB     333      POPE     H18T     HAL3     0.900000E-01   1.00800           0
     39330 MEMB     333      POPE     C33      CTL2    -0.180000       12.0110           0
     39331 MEMB     333      POPE     H3X      HAL2     0.900000E-01   1.00800           0
     39332 MEMB     333      POPE     H3Y      HAL2     0.900000E-01   1.00800           0
     39333 MEMB     333      POPE     C34      CTL2    -0.180000       12.0110           0
     39334 MEMB     333      POPE     H4X      HAL2     0.900000E-01   1.00800           0
     39335 MEMB     333      POPE     H4Y      HAL2     0.900000E-01   1.00800           0
     39336 MEMB     333      POPE     C35      CTL2    -0.180000       12.0110           0
     39337 MEMB     333      POPE     H5X      HAL2     0.900000E-01   1.00800           0
     39338 MEMB     333      POPE     H5Y      HAL2     0.900000E-01   1.00800           0
     39339 MEMB     333      POPE     C36      CTL2    -0.180000       12.0110           0
     39340 MEMB     333      POPE     H6X      HAL2     0.900000E-01   1.00800           0
     39341 MEMB     333      POPE     H6Y      HAL2     0.900000E-01   1.00800           0
     39342 MEMB     333      POPE     C37      CTL2    -0.180000       12.0110           0
     39343 MEMB     333      POPE     H7X      HAL2     0.900000E-01   1.00800           0
     39344 MEMB     333      POPE     H7Y      HAL2     0.900000E-01   1.00800           0
     39345 MEMB     333      POPE     C38      CTL2    -0.180000       12.0110           0
     39346 MEMB     333      POPE     H8X      HAL2     0.900000E-01   1.00800           0
     39347 MEMB     333      POPE     H8Y      HAL2     0.900000E-01   1.00800           0
     39348 MEMB     333      POPE     C39      CTL2    -0.180000       12.0110           0
     39349 MEMB     333      POPE     H9X      HAL2     0.900000E-01   1.00800           0
     39350 MEMB     333      POPE     H9Y      HAL2     0.900000E-01   1.00800           0
     39351 MEMB     333      POPE     C310     CTL2    -0.180000       12.0110           0
     39352 MEMB     333      POPE     H10X     HAL2     0.900000E-01   1.00800           0
     39353 MEMB     333      POPE     H10Y     HAL2     0.900000E-01   1.00800           0
     39354 MEMB     333      POPE     C311     CTL2    -0.180000       12.0110           0
     39355 MEMB     333      POPE     H11X     HAL2     0.900000E-01   1.00800           0
     39356 MEMB     333      POPE     H11Y     HAL2     0.900000E-01   1.00800           0
     39357 MEMB     333      POPE     C312     CTL2    -0.180000       12.0110           0
     39358 MEMB     333      POPE     H12X     HAL2     0.900000E-01   1.00800           0
     39359 MEMB     333      POPE     H12Y     HAL2     0.900000E-01   1.00800           0
     39360 MEMB     333      POPE     C313     CTL2    -0.180000       12.0110           0
     39361 MEMB     333      POPE     H13X     HAL2     0.900000E-01   1.00800           0
     39362 MEMB     333      POPE     H13Y     HAL2     0.900000E-01   1.00800           0
     39363 MEMB     333      POPE     C314     CTL2    -0.180000       12.0110           0
     39364 MEMB     333      POPE     H14X     HAL2     0.900000E-01   1.00800           0
     39365 MEMB     333      POPE     H14Y     HAL2     0.900000E-01   1.00800           0
     39366 MEMB     333      POPE     C315     CTL2    -0.180000       12.0110           0
     39367 MEMB     333      POPE     H15X     HAL2     0.900000E-01   1.00800           0
     39368 MEMB     333      POPE     H15Y     HAL2     0.900000E-01   1.00800           0
     39369 MEMB     333      POPE     C316     CTL3    -0.270000       12.0110           0
     39370 MEMB     333      POPE     H16X     HAL3     0.900000E-01   1.00800           0
     39371 MEMB     333      POPE     H16Y     HAL3     0.900000E-01   1.00800           0
     39372 MEMB     333      POPE     H16Z     HAL3     0.900000E-01   1.00800           0
     39373 MEMB     334      POPE     N        NH3L    -0.300000       14.0070           0
     39374 MEMB     334      POPE     HN1      HCL      0.330000       1.00800           0
     39375 MEMB     334      POPE     HN2      HCL      0.330000       1.00800           0
     39376 MEMB     334      POPE     HN3      HCL      0.330000       1.00800           0
     39377 MEMB     334      POPE     C12      CTL2     0.130000       12.0110           0
     39378 MEMB     334      POPE     H12A     HAL2     0.900000E-01   1.00800           0
     39379 MEMB     334      POPE     H12B     HAL2     0.900000E-01   1.00800           0
     39380 MEMB     334      POPE     C11      CTL2    -0.800000E-01   12.0110           0
     39381 MEMB     334      POPE     H11A     HAL2     0.900000E-01   1.00800           0
     39382 MEMB     334      POPE     H11B     HAL2     0.900000E-01   1.00800           0
     39383 MEMB     334      POPE     P        PL        1.50000       30.9740           0
     39384 MEMB     334      POPE     O13      O2L     -0.780000       15.9994           0
     39385 MEMB     334      POPE     O14      O2L     -0.780000       15.9994           0
     39386 MEMB     334      POPE     O11      OSLP    -0.570000       15.9994           0
     39387 MEMB     334      POPE     O12      OSLP    -0.570000       15.9994           0
     39388 MEMB     334      POPE     C1       CTL2    -0.800000E-01   12.0110           0
     39389 MEMB     334      POPE     HA       HAL2     0.900000E-01   1.00800           0
     39390 MEMB     334      POPE     HB       HAL2     0.900000E-01   1.00800           0
     39391 MEMB     334      POPE     C2       CTL1     0.170000       12.0110           0
     39392 MEMB     334      POPE     HS       HAL1     0.900000E-01   1.00800           0
     39393 MEMB     334      POPE     O21      OSL     -0.490000       15.9994           0
     39394 MEMB     334      POPE     C21      CL       0.900000       12.0110           0
     39395 MEMB     334      POPE     O22      OBL     -0.630000       15.9994           0
     39396 MEMB     334      POPE     C22      CTL2    -0.220000       12.0110           0
     39397 MEMB     334      POPE     H2R      HAL2     0.900000E-01   1.00800           0
     39398 MEMB     334      POPE     H2S      HAL2     0.900000E-01   1.00800           0
     39399 MEMB     334      POPE     C3       CTL2     0.800000E-01   12.0110           0
     39400 MEMB     334      POPE     HX       HAL2     0.900000E-01   1.00800           0
     39401 MEMB     334      POPE     HY       HAL2     0.900000E-01   1.00800           0
     39402 MEMB     334      POPE     O31      OSL     -0.490000       15.9994           0
     39403 MEMB     334      POPE     C31      CL       0.900000       12.0110           0
     39404 MEMB     334      POPE     O32      OBL     -0.630000       15.9994           0
     39405 MEMB     334      POPE     C32      CTL2    -0.220000       12.0110           0
     39406 MEMB     334      POPE     H2X      HAL2     0.900000E-01   1.00800           0
     39407 MEMB     334      POPE     H2Y      HAL2     0.900000E-01   1.00800           0
     39408 MEMB     334      POPE     C23      CTL2    -0.180000       12.0110           0
     39409 MEMB     334      POPE     H3R      HAL2     0.900000E-01   1.00800           0
     39410 MEMB     334      POPE     H3S      HAL2     0.900000E-01   1.00800           0
     39411 MEMB     334      POPE     C24      CTL2    -0.180000       12.0110           0
     39412 MEMB     334      POPE     H4R      HAL2     0.900000E-01   1.00800           0
     39413 MEMB     334      POPE     H4S      HAL2     0.900000E-01   1.00800           0
     39414 MEMB     334      POPE     C25      CTL2    -0.180000       12.0110           0
     39415 MEMB     334      POPE     H5R      HAL2     0.900000E-01   1.00800           0
     39416 MEMB     334      POPE     H5S      HAL2     0.900000E-01   1.00800           0
     39417 MEMB     334      POPE     C26      CTL2    -0.180000       12.0110           0
     39418 MEMB     334      POPE     H6R      HAL2     0.900000E-01   1.00800           0
     39419 MEMB     334      POPE     H6S      HAL2     0.900000E-01   1.00800           0
     39420 MEMB     334      POPE     C27      CTL2    -0.180000       12.0110           0
     39421 MEMB     334      POPE     H7R      HAL2     0.900000E-01   1.00800           0
     39422 MEMB     334      POPE     H7S      HAL2     0.900000E-01   1.00800           0
     39423 MEMB     334      POPE     C28      CTL2    -0.180000       12.0110           0
     39424 MEMB     334      POPE     H8R      HAL2     0.900000E-01   1.00800           0
     39425 MEMB     334      POPE     H8S      HAL2     0.900000E-01   1.00800           0
     39426 MEMB     334      POPE     C29      CEL1    -0.150000       12.0110           0
     39427 MEMB     334      POPE     H91      HEL1     0.150000       1.00800           0
     39428 MEMB     334      POPE     C210     CEL1    -0.150000       12.0110           0
     39429 MEMB     334      POPE     H101     HEL1     0.150000       1.00800           0
     39430 MEMB     334      POPE     C211     CTL2    -0.180000       12.0110           0
     39431 MEMB     334      POPE     H11R     HAL2     0.900000E-01   1.00800           0
     39432 MEMB     334      POPE     H11S     HAL2     0.900000E-01   1.00800           0
     39433 MEMB     334      POPE     C212     CTL2    -0.180000       12.0110           0
     39434 MEMB     334      POPE     H12R     HAL2     0.900000E-01   1.00800           0
     39435 MEMB     334      POPE     H12S     HAL2     0.900000E-01   1.00800           0
     39436 MEMB     334      POPE     C213     CTL2    -0.180000       12.0110           0
     39437 MEMB     334      POPE     H13R     HAL2     0.900000E-01   1.00800           0
     39438 MEMB     334      POPE     H13S     HAL2     0.900000E-01   1.00800           0
     39439 MEMB     334      POPE     C214     CTL2    -0.180000       12.0110           0
     39440 MEMB     334      POPE     H14R     HAL2     0.900000E-01   1.00800           0
     39441 MEMB     334      POPE     H14S     HAL2     0.900000E-01   1.00800           0
     39442 MEMB     334      POPE     C215     CTL2    -0.180000       12.0110           0
     39443 MEMB     334      POPE     H15R     HAL2     0.900000E-01   1.00800           0
     39444 MEMB     334      POPE     H15S     HAL2     0.900000E-01   1.00800           0
     39445 MEMB     334      POPE     C216     CTL2    -0.180000       12.0110           0
     39446 MEMB     334      POPE     H16R     HAL2     0.900000E-01   1.00800           0
     39447 MEMB     334      POPE     H16S     HAL2     0.900000E-01   1.00800           0
     39448 MEMB     334      POPE     C217     CTL2    -0.180000       12.0110           0
     39449 MEMB     334      POPE     H17R     HAL2     0.900000E-01   1.00800           0
     39450 MEMB     334      POPE     H17S     HAL2     0.900000E-01   1.00800           0
     39451 MEMB     334      POPE     C218     CTL3    -0.270000       12.0110           0
     39452 MEMB     334      POPE     H18R     HAL3     0.900000E-01   1.00800           0
     39453 MEMB     334      POPE     H18S     HAL3     0.900000E-01   1.00800           0
     39454 MEMB     334      POPE     H18T     HAL3     0.900000E-01   1.00800           0
     39455 MEMB     334      POPE     C33      CTL2    -0.180000       12.0110           0
     39456 MEMB     334      POPE     H3X      HAL2     0.900000E-01   1.00800           0
     39457 MEMB     334      POPE     H3Y      HAL2     0.900000E-01   1.00800           0
     39458 MEMB     334      POPE     C34      CTL2    -0.180000       12.0110           0
     39459 MEMB     334      POPE     H4X      HAL2     0.900000E-01   1.00800           0
     39460 MEMB     334      POPE     H4Y      HAL2     0.900000E-01   1.00800           0
     39461 MEMB     334      POPE     C35      CTL2    -0.180000       12.0110           0
     39462 MEMB     334      POPE     H5X      HAL2     0.900000E-01   1.00800           0
     39463 MEMB     334      POPE     H5Y      HAL2     0.900000E-01   1.00800           0
     39464 MEMB     334      POPE     C36      CTL2    -0.180000       12.0110           0
     39465 MEMB     334      POPE     H6X      HAL2     0.900000E-01   1.00800           0
     39466 MEMB     334      POPE     H6Y      HAL2     0.900000E-01   1.00800           0
     39467 MEMB     334      POPE     C37      CTL2    -0.180000       12.0110           0
     39468 MEMB     334      POPE     H7X      HAL2     0.900000E-01   1.00800           0
     39469 MEMB     334      POPE     H7Y      HAL2     0.900000E-01   1.00800           0
     39470 MEMB     334      POPE     C38      CTL2    -0.180000       12.0110           0
     39471 MEMB     334      POPE     H8X      HAL2     0.900000E-01   1.00800           0
     39472 MEMB     334      POPE     H8Y      HAL2     0.900000E-01   1.00800           0
     39473 MEMB     334      POPE     C39      CTL2    -0.180000       12.0110           0
     39474 MEMB     334      POPE     H9X      HAL2     0.900000E-01   1.00800           0
     39475 MEMB     334      POPE     H9Y      HAL2     0.900000E-01   1.00800           0
     39476 MEMB     334      POPE     C310     CTL2    -0.180000       12.0110           0
     39477 MEMB     334      POPE     H10X     HAL2     0.900000E-01   1.00800           0
     39478 MEMB     334      POPE     H10Y     HAL2     0.900000E-01   1.00800           0
     39479 MEMB     334      POPE     C311     CTL2    -0.180000       12.0110           0
     39480 MEMB     334      POPE     H11X     HAL2     0.900000E-01   1.00800           0
     39481 MEMB     334      POPE     H11Y     HAL2     0.900000E-01   1.00800           0
     39482 MEMB     334      POPE     C312     CTL2    -0.180000       12.0110           0
     39483 MEMB     334      POPE     H12X     HAL2     0.900000E-01   1.00800           0
     39484 MEMB     334      POPE     H12Y     HAL2     0.900000E-01   1.00800           0
     39485 MEMB     334      POPE     C313     CTL2    -0.180000       12.0110           0
     39486 MEMB     334      POPE     H13X     HAL2     0.900000E-01   1.00800           0
     39487 MEMB     334      POPE     H13Y     HAL2     0.900000E-01   1.00800           0
     39488 MEMB     334      POPE     C314     CTL2    -0.180000       12.0110           0
     39489 MEMB     334      POPE     H14X     HAL2     0.900000E-01   1.00800           0
     39490 MEMB     334      POPE     H14Y     HAL2     0.900000E-01   1.00800           0
     39491 MEMB     334      POPE     C315     CTL2    -0.180000       12.0110           0
     39492 MEMB     334      POPE     H15X     HAL2     0.900000E-01   1.00800           0
     39493 MEMB     334      POPE     H15Y     HAL2     0.900000E-01   1.00800           0
     39494 MEMB     334      POPE     C316     CTL3    -0.270000       12.0110           0
     39495 MEMB     334      POPE     H16X     HAL3     0.900000E-01   1.00800           0
     39496 MEMB     334      POPE     H16Y     HAL3     0.900000E-01   1.00800           0
     39497 MEMB     334      POPE     H16Z     HAL3     0.900000E-01   1.00800           0
     39498 MEMB     335      POPE     N        NH3L    -0.300000       14.0070           0
     39499 MEMB     335      POPE     HN1      HCL      0.330000       1.00800           0
     39500 MEMB     335      POPE     HN2      HCL      0.330000       1.00800           0
     39501 MEMB     335      POPE     HN3      HCL      0.330000       1.00800           0
     39502 MEMB     335      POPE     C12      CTL2     0.130000       12.0110           0
     39503 MEMB     335      POPE     H12A     HAL2     0.900000E-01   1.00800           0
     39504 MEMB     335      POPE     H12B     HAL2     0.900000E-01   1.00800           0
     39505 MEMB     335      POPE     C11      CTL2    -0.800000E-01   12.0110           0
     39506 MEMB     335      POPE     H11A     HAL2     0.900000E-01   1.00800           0
     39507 MEMB     335      POPE     H11B     HAL2     0.900000E-01   1.00800           0
     39508 MEMB     335      POPE     P        PL        1.50000       30.9740           0
     39509 MEMB     335      POPE     O13      O2L     -0.780000       15.9994           0
     39510 MEMB     335      POPE     O14      O2L     -0.780000       15.9994           0
     39511 MEMB     335      POPE     O11      OSLP    -0.570000       15.9994           0
     39512 MEMB     335      POPE     O12      OSLP    -0.570000       15.9994           0
     39513 MEMB     335      POPE     C1       CTL2    -0.800000E-01   12.0110           0
     39514 MEMB     335      POPE     HA       HAL2     0.900000E-01   1.00800           0
     39515 MEMB     335      POPE     HB       HAL2     0.900000E-01   1.00800           0
     39516 MEMB     335      POPE     C2       CTL1     0.170000       12.0110           0
     39517 MEMB     335      POPE     HS       HAL1     0.900000E-01   1.00800           0
     39518 MEMB     335      POPE     O21      OSL     -0.490000       15.9994           0
     39519 MEMB     335      POPE     C21      CL       0.900000       12.0110           0
     39520 MEMB     335      POPE     O22      OBL     -0.630000       15.9994           0
     39521 MEMB     335      POPE     C22      CTL2    -0.220000       12.0110           0
     39522 MEMB     335      POPE     H2R      HAL2     0.900000E-01   1.00800           0
     39523 MEMB     335      POPE     H2S      HAL2     0.900000E-01   1.00800           0
     39524 MEMB     335      POPE     C3       CTL2     0.800000E-01   12.0110           0
     39525 MEMB     335      POPE     HX       HAL2     0.900000E-01   1.00800           0
     39526 MEMB     335      POPE     HY       HAL2     0.900000E-01   1.00800           0
     39527 MEMB     335      POPE     O31      OSL     -0.490000       15.9994           0
     39528 MEMB     335      POPE     C31      CL       0.900000       12.0110           0
     39529 MEMB     335      POPE     O32      OBL     -0.630000       15.9994           0
     39530 MEMB     335      POPE     C32      CTL2    -0.220000       12.0110           0
     39531 MEMB     335      POPE     H2X      HAL2     0.900000E-01   1.00800           0
     39532 MEMB     335      POPE     H2Y      HAL2     0.900000E-01   1.00800           0
     39533 MEMB     335      POPE     C23      CTL2    -0.180000       12.0110           0
     39534 MEMB     335      POPE     H3R      HAL2     0.900000E-01   1.00800           0
     39535 MEMB     335      POPE     H3S      HAL2     0.900000E-01   1.00800           0
     39536 MEMB     335      POPE     C24      CTL2    -0.180000       12.0110           0
     39537 MEMB     335      POPE     H4R      HAL2     0.900000E-01   1.00800           0
     39538 MEMB     335      POPE     H4S      HAL2     0.900000E-01   1.00800           0
     39539 MEMB     335      POPE     C25      CTL2    -0.180000       12.0110           0
     39540 MEMB     335      POPE     H5R      HAL2     0.900000E-01   1.00800           0
     39541 MEMB     335      POPE     H5S      HAL2     0.900000E-01   1.00800           0
     39542 MEMB     335      POPE     C26      CTL2    -0.180000       12.0110           0
     39543 MEMB     335      POPE     H6R      HAL2     0.900000E-01   1.00800           0
     39544 MEMB     335      POPE     H6S      HAL2     0.900000E-01   1.00800           0
     39545 MEMB     335      POPE     C27      CTL2    -0.180000       12.0110           0
     39546 MEMB     335      POPE     H7R      HAL2     0.900000E-01   1.00800           0
     39547 MEMB     335      POPE     H7S      HAL2     0.900000E-01   1.00800           0
     39548 MEMB     335      POPE     C28      CTL2    -0.180000       12.0110           0
     39549 MEMB     335      POPE     H8R      HAL2     0.900000E-01   1.00800           0
     39550 MEMB     335      POPE     H8S      HAL2     0.900000E-01   1.00800           0
     39551 MEMB     335      POPE     C29      CEL1    -0.150000       12.0110           0
     39552 MEMB     335      POPE     H91      HEL1     0.150000       1.00800           0
     39553 MEMB     335      POPE     C210     CEL1    -0.150000       12.0110           0
     39554 MEMB     335      POPE     H101     HEL1     0.150000       1.00800           0
     39555 MEMB     335      POPE     C211     CTL2    -0.180000       12.0110           0
     39556 MEMB     335      POPE     H11R     HAL2     0.900000E-01   1.00800           0
     39557 MEMB     335      POPE     H11S     HAL2     0.900000E-01   1.00800           0
     39558 MEMB     335      POPE     C212     CTL2    -0.180000       12.0110           0
     39559 MEMB     335      POPE     H12R     HAL2     0.900000E-01   1.00800           0
     39560 MEMB     335      POPE     H12S     HAL2     0.900000E-01   1.00800           0
     39561 MEMB     335      POPE     C213     CTL2    -0.180000       12.0110           0
     39562 MEMB     335      POPE     H13R     HAL2     0.900000E-01   1.00800           0
     39563 MEMB     335      POPE     H13S     HAL2     0.900000E-01   1.00800           0
     39564 MEMB     335      POPE     C214     CTL2    -0.180000       12.0110           0
     39565 MEMB     335      POPE     H14R     HAL2     0.900000E-01   1.00800           0
     39566 MEMB     335      POPE     H14S     HAL2     0.900000E-01   1.00800           0
     39567 MEMB     335      POPE     C215     CTL2    -0.180000       12.0110           0
     39568 MEMB     335      POPE     H15R     HAL2     0.900000E-01   1.00800           0
     39569 MEMB     335      POPE     H15S     HAL2     0.900000E-01   1.00800           0
     39570 MEMB     335      POPE     C216     CTL2    -0.180000       12.0110           0
     39571 MEMB     335      POPE     H16R     HAL2     0.900000E-01   1.00800           0
     39572 MEMB     335      POPE     H16S     HAL2     0.900000E-01   1.00800           0
     39573 MEMB     335      POPE     C217     CTL2    -0.180000       12.0110           0
     39574 MEMB     335      POPE     H17R     HAL2     0.900000E-01   1.00800           0
     39575 MEMB     335      POPE     H17S     HAL2     0.900000E-01   1.00800           0
     39576 MEMB     335      POPE     C218     CTL3    -0.270000       12.0110           0
     39577 MEMB     335      POPE     H18R     HAL3     0.900000E-01   1.00800           0
     39578 MEMB     335      POPE     H18S     HAL3     0.900000E-01   1.00800           0
     39579 MEMB     335      POPE     H18T     HAL3     0.900000E-01   1.00800           0
     39580 MEMB     335      POPE     C33      CTL2    -0.180000       12.0110           0
     39581 MEMB     335      POPE     H3X      HAL2     0.900000E-01   1.00800           0
     39582 MEMB     335      POPE     H3Y      HAL2     0.900000E-01   1.00800           0
     39583 MEMB     335      POPE     C34      CTL2    -0.180000       12.0110           0
     39584 MEMB     335      POPE     H4X      HAL2     0.900000E-01   1.00800           0
     39585 MEMB     335      POPE     H4Y      HAL2     0.900000E-01   1.00800           0
     39586 MEMB     335      POPE     C35      CTL2    -0.180000       12.0110           0
     39587 MEMB     335      POPE     H5X      HAL2     0.900000E-01   1.00800           0
     39588 MEMB     335      POPE     H5Y      HAL2     0.900000E-01   1.00800           0
     39589 MEMB     335      POPE     C36      CTL2    -0.180000       12.0110           0
     39590 MEMB     335      POPE     H6X      HAL2     0.900000E-01   1.00800           0
     39591 MEMB     335      POPE     H6Y      HAL2     0.900000E-01   1.00800           0
     39592 MEMB     335      POPE     C37      CTL2    -0.180000       12.0110           0
     39593 MEMB     335      POPE     H7X      HAL2     0.900000E-01   1.00800           0
     39594 MEMB     335      POPE     H7Y      HAL2     0.900000E-01   1.00800           0
     39595 MEMB     335      POPE     C38      CTL2    -0.180000       12.0110           0
     39596 MEMB     335      POPE     H8X      HAL2     0.900000E-01   1.00800           0
     39597 MEMB     335      POPE     H8Y      HAL2     0.900000E-01   1.00800           0
     39598 MEMB     335      POPE     C39      CTL2    -0.180000       12.0110           0
     39599 MEMB     335      POPE     H9X      HAL2     0.900000E-01   1.00800           0
     39600 MEMB     335      POPE     H9Y      HAL2     0.900000E-01   1.00800           0
     39601 MEMB     335      POPE     C310     CTL2    -0.180000       12.0110           0
     39602 MEMB     335      POPE     H10X     HAL2     0.900000E-01   1.00800           0
     39603 MEMB     335      POPE     H10Y     HAL2     0.900000E-01   1.00800           0
     39604 MEMB     335      POPE     C311     CTL2    -0.180000       12.0110           0
     39605 MEMB     335      POPE     H11X     HAL2     0.900000E-01   1.00800           0
     39606 MEMB     335      POPE     H11Y     HAL2     0.900000E-01   1.00800           0
     39607 MEMB     335      POPE     C312     CTL2    -0.180000       12.0110           0
     39608 MEMB     335      POPE     H12X     HAL2     0.900000E-01   1.00800           0
     39609 MEMB     335      POPE     H12Y     HAL2     0.900000E-01   1.00800           0
     39610 MEMB     335      POPE     C313     CTL2    -0.180000       12.0110           0
     39611 MEMB     335      POPE     H13X     HAL2     0.900000E-01   1.00800           0
     39612 MEMB     335      POPE     H13Y     HAL2     0.900000E-01   1.00800           0
     39613 MEMB     335      POPE     C314     CTL2    -0.180000       12.0110           0
     39614 MEMB     335      POPE     H14X     HAL2     0.900000E-01   1.00800           0
     39615 MEMB     335      POPE     H14Y     HAL2     0.900000E-01   1.00800           0
     39616 MEMB     335      POPE     C315     CTL2    -0.180000       12.0110           0
     39617 MEMB     335      POPE     H15X     HAL2     0.900000E-01   1.00800           0
     39618 MEMB     335      POPE     H15Y     HAL2     0.900000E-01   1.00800           0
     39619 MEMB     335      POPE     C316     CTL3    -0.270000       12.0110           0
     39620 MEMB     335      POPE     H16X     HAL3     0.900000E-01   1.00800           0
     39621 MEMB     335      POPE     H16Y     HAL3     0.900000E-01   1.00800           0
     39622 MEMB     335      POPE     H16Z     HAL3     0.900000E-01   1.00800           0
     39623 MEMB     336      POPC     N        NTL     -0.600000       14.0070           0
     39624 MEMB     336      POPC     C12      CTL2    -0.100000       12.0110           0
     39625 MEMB     336      POPC     H12A     HL       0.250000       1.00800           0
     39626 MEMB     336      POPC     H12B     HL       0.250000       1.00800           0
     39627 MEMB     336      POPC     C13      CTL5    -0.350000       12.0110           0
     39628 MEMB     336      POPC     H13A     HL       0.250000       1.00800           0
     39629 MEMB     336      POPC     H13B     HL       0.250000       1.00800           0
     39630 MEMB     336      POPC     H13C     HL       0.250000       1.00800           0
     39631 MEMB     336      POPC     C14      CTL5    -0.350000       12.0110           0
     39632 MEMB     336      POPC     H14A     HL       0.250000       1.00800           0
     39633 MEMB     336      POPC     H14B     HL       0.250000       1.00800           0
     39634 MEMB     336      POPC     H14C     HL       0.250000       1.00800           0
     39635 MEMB     336      POPC     C15      CTL5    -0.350000       12.0110           0
     39636 MEMB     336      POPC     H15A     HL       0.250000       1.00800           0
     39637 MEMB     336      POPC     H15B     HL       0.250000       1.00800           0
     39638 MEMB     336      POPC     H15C     HL       0.250000       1.00800           0
     39639 MEMB     336      POPC     C11      CTL2    -0.800000E-01   12.0110           0
     39640 MEMB     336      POPC     H11A     HAL2     0.900000E-01   1.00800           0
     39641 MEMB     336      POPC     H11B     HAL2     0.900000E-01   1.00800           0
     39642 MEMB     336      POPC     P        PL        1.50000       30.9740           0
     39643 MEMB     336      POPC     O13      O2L     -0.780000       15.9994           0
     39644 MEMB     336      POPC     O14      O2L     -0.780000       15.9994           0
     39645 MEMB     336      POPC     O12      OSLP    -0.570000       15.9994           0
     39646 MEMB     336      POPC     O11      OSLP    -0.570000       15.9994           0
     39647 MEMB     336      POPC     C1       CTL2    -0.800000E-01   12.0110           0
     39648 MEMB     336      POPC     HA       HAL2     0.900000E-01   1.00800           0
     39649 MEMB     336      POPC     HB       HAL2     0.900000E-01   1.00800           0
     39650 MEMB     336      POPC     C2       CTL1     0.170000       12.0110           0
     39651 MEMB     336      POPC     HS       HAL1     0.900000E-01   1.00800           0
     39652 MEMB     336      POPC     O21      OSL     -0.490000       15.9994           0
     39653 MEMB     336      POPC     C21      CL       0.900000       12.0110           0
     39654 MEMB     336      POPC     O22      OBL     -0.630000       15.9994           0
     39655 MEMB     336      POPC     C22      CTL2    -0.220000       12.0110           0
     39656 MEMB     336      POPC     H2R      HAL2     0.900000E-01   1.00800           0
     39657 MEMB     336      POPC     H2S      HAL2     0.900000E-01   1.00800           0
     39658 MEMB     336      POPC     C3       CTL2     0.800000E-01   12.0110           0
     39659 MEMB     336      POPC     HX       HAL2     0.900000E-01   1.00800           0
     39660 MEMB     336      POPC     HY       HAL2     0.900000E-01   1.00800           0
     39661 MEMB     336      POPC     O31      OSL     -0.490000       15.9994           0
     39662 MEMB     336      POPC     C31      CL       0.900000       12.0110           0
     39663 MEMB     336      POPC     O32      OBL     -0.630000       15.9994           0
     39664 MEMB     336      POPC     C32      CTL2    -0.220000       12.0110           0
     39665 MEMB     336      POPC     H2X      HAL2     0.900000E-01   1.00800           0
     39666 MEMB     336      POPC     H2Y      HAL2     0.900000E-01   1.00800           0
     39667 MEMB     336      POPC     C23      CTL2    -0.180000       12.0110           0
     39668 MEMB     336      POPC     H3R      HAL2     0.900000E-01   1.00800           0
     39669 MEMB     336      POPC     H3S      HAL2     0.900000E-01   1.00800           0
     39670 MEMB     336      POPC     C24      CTL2    -0.180000       12.0110           0
     39671 MEMB     336      POPC     H4R      HAL2     0.900000E-01   1.00800           0
     39672 MEMB     336      POPC     H4S      HAL2     0.900000E-01   1.00800           0
     39673 MEMB     336      POPC     C25      CTL2    -0.180000       12.0110           0
     39674 MEMB     336      POPC     H5R      HAL2     0.900000E-01   1.00800           0
     39675 MEMB     336      POPC     H5S      HAL2     0.900000E-01   1.00800           0
     39676 MEMB     336      POPC     C26      CTL2    -0.180000       12.0110           0
     39677 MEMB     336      POPC     H6R      HAL2     0.900000E-01   1.00800           0
     39678 MEMB     336      POPC     H6S      HAL2     0.900000E-01   1.00800           0
     39679 MEMB     336      POPC     C27      CTL2    -0.180000       12.0110           0
     39680 MEMB     336      POPC     H7R      HAL2     0.900000E-01   1.00800           0
     39681 MEMB     336      POPC     H7S      HAL2     0.900000E-01   1.00800           0
     39682 MEMB     336      POPC     C28      CTL2    -0.180000       12.0110           0
     39683 MEMB     336      POPC     H8R      HAL2     0.900000E-01   1.00800           0
     39684 MEMB     336      POPC     H8S      HAL2     0.900000E-01   1.00800           0
     39685 MEMB     336      POPC     C29      CEL1    -0.150000       12.0110           0
     39686 MEMB     336      POPC     H91      HEL1     0.150000       1.00800           0
     39687 MEMB     336      POPC     C210     CEL1    -0.150000       12.0110           0
     39688 MEMB     336      POPC     H101     HEL1     0.150000       1.00800           0
     39689 MEMB     336      POPC     C211     CTL2    -0.180000       12.0110           0
     39690 MEMB     336      POPC     H11R     HAL2     0.900000E-01   1.00800           0
     39691 MEMB     336      POPC     H11S     HAL2     0.900000E-01   1.00800           0
     39692 MEMB     336      POPC     C212     CTL2    -0.180000       12.0110           0
     39693 MEMB     336      POPC     H12R     HAL2     0.900000E-01   1.00800           0
     39694 MEMB     336      POPC     H12S     HAL2     0.900000E-01   1.00800           0
     39695 MEMB     336      POPC     C213     CTL2    -0.180000       12.0110           0
     39696 MEMB     336      POPC     H13R     HAL2     0.900000E-01   1.00800           0
     39697 MEMB     336      POPC     H13S     HAL2     0.900000E-01   1.00800           0
     39698 MEMB     336      POPC     C214     CTL2    -0.180000       12.0110           0
     39699 MEMB     336      POPC     H14R     HAL2     0.900000E-01   1.00800           0
     39700 MEMB     336      POPC     H14S     HAL2     0.900000E-01   1.00800           0
     39701 MEMB     336      POPC     C215     CTL2    -0.180000       12.0110           0
     39702 MEMB     336      POPC     H15R     HAL2     0.900000E-01   1.00800           0
     39703 MEMB     336      POPC     H15S     HAL2     0.900000E-01   1.00800           0
     39704 MEMB     336      POPC     C216     CTL2    -0.180000       12.0110           0
     39705 MEMB     336      POPC     H16R     HAL2     0.900000E-01   1.00800           0
     39706 MEMB     336      POPC     H16S     HAL2     0.900000E-01   1.00800           0
     39707 MEMB     336      POPC     C217     CTL2    -0.180000       12.0110           0
     39708 MEMB     336      POPC     H17R     HAL2     0.900000E-01   1.00800           0
     39709 MEMB     336      POPC     H17S     HAL2     0.900000E-01   1.00800           0
     39710 MEMB     336      POPC     C218     CTL3    -0.270000       12.0110           0
     39711 MEMB     336      POPC     H18R     HAL3     0.900000E-01   1.00800           0
     39712 MEMB     336      POPC     H18S     HAL3     0.900000E-01   1.00800           0
     39713 MEMB     336      POPC     H18T     HAL3     0.900000E-01   1.00800           0
     39714 MEMB     336      POPC     C33      CTL2    -0.180000       12.0110           0
     39715 MEMB     336      POPC     H3X      HAL2     0.900000E-01   1.00800           0
     39716 MEMB     336      POPC     H3Y      HAL2     0.900000E-01   1.00800           0
     39717 MEMB     336      POPC     C34      CTL2    -0.180000       12.0110           0
     39718 MEMB     336      POPC     H4X      HAL2     0.900000E-01   1.00800           0
     39719 MEMB     336      POPC     H4Y      HAL2     0.900000E-01   1.00800           0
     39720 MEMB     336      POPC     C35      CTL2    -0.180000       12.0110           0
     39721 MEMB     336      POPC     H5X      HAL2     0.900000E-01   1.00800           0
     39722 MEMB     336      POPC     H5Y      HAL2     0.900000E-01   1.00800           0
     39723 MEMB     336      POPC     C36      CTL2    -0.180000       12.0110           0
     39724 MEMB     336      POPC     H6X      HAL2     0.900000E-01   1.00800           0
     39725 MEMB     336      POPC     H6Y      HAL2     0.900000E-01   1.00800           0
     39726 MEMB     336      POPC     C37      CTL2    -0.180000       12.0110           0
     39727 MEMB     336      POPC     H7X      HAL2     0.900000E-01   1.00800           0
     39728 MEMB     336      POPC     H7Y      HAL2     0.900000E-01   1.00800           0
     39729 MEMB     336      POPC     C38      CTL2    -0.180000       12.0110           0
     39730 MEMB     336      POPC     H8X      HAL2     0.900000E-01   1.00800           0
     39731 MEMB     336      POPC     H8Y      HAL2     0.900000E-01   1.00800           0
     39732 MEMB     336      POPC     C39      CTL2    -0.180000       12.0110           0
     39733 MEMB     336      POPC     H9X      HAL2     0.900000E-01   1.00800           0
     39734 MEMB     336      POPC     H9Y      HAL2     0.900000E-01   1.00800           0
     39735 MEMB     336      POPC     C310     CTL2    -0.180000       12.0110           0
     39736 MEMB     336      POPC     H10X     HAL2     0.900000E-01   1.00800           0
     39737 MEMB     336      POPC     H10Y     HAL2     0.900000E-01   1.00800           0
     39738 MEMB     336      POPC     C311     CTL2    -0.180000       12.0110           0
     39739 MEMB     336      POPC     H11X     HAL2     0.900000E-01   1.00800           0
     39740 MEMB     336      POPC     H11Y     HAL2     0.900000E-01   1.00800           0
     39741 MEMB     336      POPC     C312     CTL2    -0.180000       12.0110           0
     39742 MEMB     336      POPC     H12X     HAL2     0.900000E-01   1.00800           0
     39743 MEMB     336      POPC     H12Y     HAL2     0.900000E-01   1.00800           0
     39744 MEMB     336      POPC     C313     CTL2    -0.180000       12.0110           0
     39745 MEMB     336      POPC     H13X     HAL2     0.900000E-01   1.00800           0
     39746 MEMB     336      POPC     H13Y     HAL2     0.900000E-01   1.00800           0
     39747 MEMB     336      POPC     C314     CTL2    -0.180000       12.0110           0
     39748 MEMB     336      POPC     H14X     HAL2     0.900000E-01   1.00800           0
     39749 MEMB     336      POPC     H14Y     HAL2     0.900000E-01   1.00800           0
     39750 MEMB     336      POPC     C315     CTL2    -0.180000       12.0110           0
     39751 MEMB     336      POPC     H15X     HAL2     0.900000E-01   1.00800           0
     39752 MEMB     336      POPC     H15Y     HAL2     0.900000E-01   1.00800           0
     39753 MEMB     336      POPC     C316     CTL3    -0.270000       12.0110           0
     39754 MEMB     336      POPC     H16X     HAL3     0.900000E-01   1.00800           0
     39755 MEMB     336      POPC     H16Y     HAL3     0.900000E-01   1.00800           0
     39756 MEMB     336      POPC     H16Z     HAL3     0.900000E-01   1.00800           0
     39757 MEMB     337      POPC     N        NTL     -0.600000       14.0070           0
     39758 MEMB     337      POPC     C12      CTL2    -0.100000       12.0110           0
     39759 MEMB     337      POPC     H12A     HL       0.250000       1.00800           0
     39760 MEMB     337      POPC     H12B     HL       0.250000       1.00800           0
     39761 MEMB     337      POPC     C13      CTL5    -0.350000       12.0110           0
     39762 MEMB     337      POPC     H13A     HL       0.250000       1.00800           0
     39763 MEMB     337      POPC     H13B     HL       0.250000       1.00800           0
     39764 MEMB     337      POPC     H13C     HL       0.250000       1.00800           0
     39765 MEMB     337      POPC     C14      CTL5    -0.350000       12.0110           0
     39766 MEMB     337      POPC     H14A     HL       0.250000       1.00800           0
     39767 MEMB     337      POPC     H14B     HL       0.250000       1.00800           0
     39768 MEMB     337      POPC     H14C     HL       0.250000       1.00800           0
     39769 MEMB     337      POPC     C15      CTL5    -0.350000       12.0110           0
     39770 MEMB     337      POPC     H15A     HL       0.250000       1.00800           0
     39771 MEMB     337      POPC     H15B     HL       0.250000       1.00800           0
     39772 MEMB     337      POPC     H15C     HL       0.250000       1.00800           0
     39773 MEMB     337      POPC     C11      CTL2    -0.800000E-01   12.0110           0
     39774 MEMB     337      POPC     H11A     HAL2     0.900000E-01   1.00800           0
     39775 MEMB     337      POPC     H11B     HAL2     0.900000E-01   1.00800           0
     39776 MEMB     337      POPC     P        PL        1.50000       30.9740           0
     39777 MEMB     337      POPC     O13      O2L     -0.780000       15.9994           0
     39778 MEMB     337      POPC     O14      O2L     -0.780000       15.9994           0
     39779 MEMB     337      POPC     O12      OSLP    -0.570000       15.9994           0
     39780 MEMB     337      POPC     O11      OSLP    -0.570000       15.9994           0
     39781 MEMB     337      POPC     C1       CTL2    -0.800000E-01   12.0110           0
     39782 MEMB     337      POPC     HA       HAL2     0.900000E-01   1.00800           0
     39783 MEMB     337      POPC     HB       HAL2     0.900000E-01   1.00800           0
     39784 MEMB     337      POPC     C2       CTL1     0.170000       12.0110           0
     39785 MEMB     337      POPC     HS       HAL1     0.900000E-01   1.00800           0
     39786 MEMB     337      POPC     O21      OSL     -0.490000       15.9994           0
     39787 MEMB     337      POPC     C21      CL       0.900000       12.0110           0
     39788 MEMB     337      POPC     O22      OBL     -0.630000       15.9994           0
     39789 MEMB     337      POPC     C22      CTL2    -0.220000       12.0110           0
     39790 MEMB     337      POPC     H2R      HAL2     0.900000E-01   1.00800           0
     39791 MEMB     337      POPC     H2S      HAL2     0.900000E-01   1.00800           0
     39792 MEMB     337      POPC     C3       CTL2     0.800000E-01   12.0110           0
     39793 MEMB     337      POPC     HX       HAL2     0.900000E-01   1.00800           0
     39794 MEMB     337      POPC     HY       HAL2     0.900000E-01   1.00800           0
     39795 MEMB     337      POPC     O31      OSL     -0.490000       15.9994           0
     39796 MEMB     337      POPC     C31      CL       0.900000       12.0110           0
     39797 MEMB     337      POPC     O32      OBL     -0.630000       15.9994           0
     39798 MEMB     337      POPC     C32      CTL2    -0.220000       12.0110           0
     39799 MEMB     337      POPC     H2X      HAL2     0.900000E-01   1.00800           0
     39800 MEMB     337      POPC     H2Y      HAL2     0.900000E-01   1.00800           0
     39801 MEMB     337      POPC     C23      CTL2    -0.180000       12.0110           0
     39802 MEMB     337      POPC     H3R      HAL2     0.900000E-01   1.00800           0
     39803 MEMB     337      POPC     H3S      HAL2     0.900000E-01   1.00800           0
     39804 MEMB     337      POPC     C24      CTL2    -0.180000       12.0110           0
     39805 MEMB     337      POPC     H4R      HAL2     0.900000E-01   1.00800           0
     39806 MEMB     337      POPC     H4S      HAL2     0.900000E-01   1.00800           0
     39807 MEMB     337      POPC     C25      CTL2    -0.180000       12.0110           0
     39808 MEMB     337      POPC     H5R      HAL2     0.900000E-01   1.00800           0
     39809 MEMB     337      POPC     H5S      HAL2     0.900000E-01   1.00800           0
     39810 MEMB     337      POPC     C26      CTL2    -0.180000       12.0110           0
     39811 MEMB     337      POPC     H6R      HAL2     0.900000E-01   1.00800           0
     39812 MEMB     337      POPC     H6S      HAL2     0.900000E-01   1.00800           0
     39813 MEMB     337      POPC     C27      CTL2    -0.180000       12.0110           0
     39814 MEMB     337      POPC     H7R      HAL2     0.900000E-01   1.00800           0
     39815 MEMB     337      POPC     H7S      HAL2     0.900000E-01   1.00800           0
     39816 MEMB     337      POPC     C28      CTL2    -0.180000       12.0110           0
     39817 MEMB     337      POPC     H8R      HAL2     0.900000E-01   1.00800           0
     39818 MEMB     337      POPC     H8S      HAL2     0.900000E-01   1.00800           0
     39819 MEMB     337      POPC     C29      CEL1    -0.150000       12.0110           0
     39820 MEMB     337      POPC     H91      HEL1     0.150000       1.00800           0
     39821 MEMB     337      POPC     C210     CEL1    -0.150000       12.0110           0
     39822 MEMB     337      POPC     H101     HEL1     0.150000       1.00800           0
     39823 MEMB     337      POPC     C211     CTL2    -0.180000       12.0110           0
     39824 MEMB     337      POPC     H11R     HAL2     0.900000E-01   1.00800           0
     39825 MEMB     337      POPC     H11S     HAL2     0.900000E-01   1.00800           0
     39826 MEMB     337      POPC     C212     CTL2    -0.180000       12.0110           0
     39827 MEMB     337      POPC     H12R     HAL2     0.900000E-01   1.00800           0
     39828 MEMB     337      POPC     H12S     HAL2     0.900000E-01   1.00800           0
     39829 MEMB     337      POPC     C213     CTL2    -0.180000       12.0110           0
     39830 MEMB     337      POPC     H13R     HAL2     0.900000E-01   1.00800           0
     39831 MEMB     337      POPC     H13S     HAL2     0.900000E-01   1.00800           0
     39832 MEMB     337      POPC     C214     CTL2    -0.180000       12.0110           0
     39833 MEMB     337      POPC     H14R     HAL2     0.900000E-01   1.00800           0
     39834 MEMB     337      POPC     H14S     HAL2     0.900000E-01   1.00800           0
     39835 MEMB     337      POPC     C215     CTL2    -0.180000       12.0110           0
     39836 MEMB     337      POPC     H15R     HAL2     0.900000E-01   1.00800           0
     39837 MEMB     337      POPC     H15S     HAL2     0.900000E-01   1.00800           0
     39838 MEMB     337      POPC     C216     CTL2    -0.180000       12.0110           0
     39839 MEMB     337      POPC     H16R     HAL2     0.900000E-01   1.00800           0
     39840 MEMB     337      POPC     H16S     HAL2     0.900000E-01   1.00800           0
     39841 MEMB     337      POPC     C217     CTL2    -0.180000       12.0110           0
     39842 MEMB     337      POPC     H17R     HAL2     0.900000E-01   1.00800           0
     39843 MEMB     337      POPC     H17S     HAL2     0.900000E-01   1.00800           0
     39844 MEMB     337      POPC     C218     CTL3    -0.270000       12.0110           0
     39845 MEMB     337      POPC     H18R     HAL3     0.900000E-01   1.00800           0
     39846 MEMB     337      POPC     H18S     HAL3     0.900000E-01   1.00800           0
     39847 MEMB     337      POPC     H18T     HAL3     0.900000E-01   1.00800           0
     39848 MEMB     337      POPC     C33      CTL2    -0.180000       12.0110           0
     39849 MEMB     337      POPC     H3X      HAL2     0.900000E-01   1.00800           0
     39850 MEMB     337      POPC     H3Y      HAL2     0.900000E-01   1.00800           0
     39851 MEMB     337      POPC     C34      CTL2    -0.180000       12.0110           0
     39852 MEMB     337      POPC     H4X      HAL2     0.900000E-01   1.00800           0
     39853 MEMB     337      POPC     H4Y      HAL2     0.900000E-01   1.00800           0
     39854 MEMB     337      POPC     C35      CTL2    -0.180000       12.0110           0
     39855 MEMB     337      POPC     H5X      HAL2     0.900000E-01   1.00800           0
     39856 MEMB     337      POPC     H5Y      HAL2     0.900000E-01   1.00800           0
     39857 MEMB     337      POPC     C36      CTL2    -0.180000       12.0110           0
     39858 MEMB     337      POPC     H6X      HAL2     0.900000E-01   1.00800           0
     39859 MEMB     337      POPC     H6Y      HAL2     0.900000E-01   1.00800           0
     39860 MEMB     337      POPC     C37      CTL2    -0.180000       12.0110           0
     39861 MEMB     337      POPC     H7X      HAL2     0.900000E-01   1.00800           0
     39862 MEMB     337      POPC     H7Y      HAL2     0.900000E-01   1.00800           0
     39863 MEMB     337      POPC     C38      CTL2    -0.180000       12.0110           0
     39864 MEMB     337      POPC     H8X      HAL2     0.900000E-01   1.00800           0
     39865 MEMB     337      POPC     H8Y      HAL2     0.900000E-01   1.00800           0
     39866 MEMB     337      POPC     C39      CTL2    -0.180000       12.0110           0
     39867 MEMB     337      POPC     H9X      HAL2     0.900000E-01   1.00800           0
     39868 MEMB     337      POPC     H9Y      HAL2     0.900000E-01   1.00800           0
     39869 MEMB     337      POPC     C310     CTL2    -0.180000       12.0110           0
     39870 MEMB     337      POPC     H10X     HAL2     0.900000E-01   1.00800           0
     39871 MEMB     337      POPC     H10Y     HAL2     0.900000E-01   1.00800           0
     39872 MEMB     337      POPC     C311     CTL2    -0.180000       12.0110           0
     39873 MEMB     337      POPC     H11X     HAL2     0.900000E-01   1.00800           0
     39874 MEMB     337      POPC     H11Y     HAL2     0.900000E-01   1.00800           0
     39875 MEMB     337      POPC     C312     CTL2    -0.180000       12.0110           0
     39876 MEMB     337      POPC     H12X     HAL2     0.900000E-01   1.00800           0
     39877 MEMB     337      POPC     H12Y     HAL2     0.900000E-01   1.00800           0
     39878 MEMB     337      POPC     C313     CTL2    -0.180000       12.0110           0
     39879 MEMB     337      POPC     H13X     HAL2     0.900000E-01   1.00800           0
     39880 MEMB     337      POPC     H13Y     HAL2     0.900000E-01   1.00800           0
     39881 MEMB     337      POPC     C314     CTL2    -0.180000       12.0110           0
     39882 MEMB     337      POPC     H14X     HAL2     0.900000E-01   1.00800           0
     39883 MEMB     337      POPC     H14Y     HAL2     0.900000E-01   1.00800           0
     39884 MEMB     337      POPC     C315     CTL2    -0.180000       12.0110           0
     39885 MEMB     337      POPC     H15X     HAL2     0.900000E-01   1.00800           0
     39886 MEMB     337      POPC     H15Y     HAL2     0.900000E-01   1.00800           0
     39887 MEMB     337      POPC     C316     CTL3    -0.270000       12.0110           0
     39888 MEMB     337      POPC     H16X     HAL3     0.900000E-01   1.00800           0
     39889 MEMB     337      POPC     H16Y     HAL3     0.900000E-01   1.00800           0
     39890 MEMB     337      POPC     H16Z     HAL3     0.900000E-01   1.00800           0
     39891 MEMB     338      POPC     N        NTL     -0.600000       14.0070           0
     39892 MEMB     338      POPC     C12      CTL2    -0.100000       12.0110           0
     39893 MEMB     338      POPC     H12A     HL       0.250000       1.00800           0
     39894 MEMB     338      POPC     H12B     HL       0.250000       1.00800           0
     39895 MEMB     338      POPC     C13      CTL5    -0.350000       12.0110           0
     39896 MEMB     338      POPC     H13A     HL       0.250000       1.00800           0
     39897 MEMB     338      POPC     H13B     HL       0.250000       1.00800           0
     39898 MEMB     338      POPC     H13C     HL       0.250000       1.00800           0
     39899 MEMB     338      POPC     C14      CTL5    -0.350000       12.0110           0
     39900 MEMB     338      POPC     H14A     HL       0.250000       1.00800           0
     39901 MEMB     338      POPC     H14B     HL       0.250000       1.00800           0
     39902 MEMB     338      POPC     H14C     HL       0.250000       1.00800           0
     39903 MEMB     338      POPC     C15      CTL5    -0.350000       12.0110           0
     39904 MEMB     338      POPC     H15A     HL       0.250000       1.00800           0
     39905 MEMB     338      POPC     H15B     HL       0.250000       1.00800           0
     39906 MEMB     338      POPC     H15C     HL       0.250000       1.00800           0
     39907 MEMB     338      POPC     C11      CTL2    -0.800000E-01   12.0110           0
     39908 MEMB     338      POPC     H11A     HAL2     0.900000E-01   1.00800           0
     39909 MEMB     338      POPC     H11B     HAL2     0.900000E-01   1.00800           0
     39910 MEMB     338      POPC     P        PL        1.50000       30.9740           0
     39911 MEMB     338      POPC     O13      O2L     -0.780000       15.9994           0
     39912 MEMB     338      POPC     O14      O2L     -0.780000       15.9994           0
     39913 MEMB     338      POPC     O12      OSLP    -0.570000       15.9994           0
     39914 MEMB     338      POPC     O11      OSLP    -0.570000       15.9994           0
     39915 MEMB     338      POPC     C1       CTL2    -0.800000E-01   12.0110           0
     39916 MEMB     338      POPC     HA       HAL2     0.900000E-01   1.00800           0
     39917 MEMB     338      POPC     HB       HAL2     0.900000E-01   1.00800           0
     39918 MEMB     338      POPC     C2       CTL1     0.170000       12.0110           0
     39919 MEMB     338      POPC     HS       HAL1     0.900000E-01   1.00800           0
     39920 MEMB     338      POPC     O21      OSL     -0.490000       15.9994           0
     39921 MEMB     338      POPC     C21      CL       0.900000       12.0110           0
     39922 MEMB     338      POPC     O22      OBL     -0.630000       15.9994           0
     39923 MEMB     338      POPC     C22      CTL2    -0.220000       12.0110           0
     39924 MEMB     338      POPC     H2R      HAL2     0.900000E-01   1.00800           0
     39925 MEMB     338      POPC     H2S      HAL2     0.900000E-01   1.00800           0
     39926 MEMB     338      POPC     C3       CTL2     0.800000E-01   12.0110           0
     39927 MEMB     338      POPC     HX       HAL2     0.900000E-01   1.00800           0
     39928 MEMB     338      POPC     HY       HAL2     0.900000E-01   1.00800           0
     39929 MEMB     338      POPC     O31      OSL     -0.490000       15.9994           0
     39930 MEMB     338      POPC     C31      CL       0.900000       12.0110           0
     39931 MEMB     338      POPC     O32      OBL     -0.630000       15.9994           0
     39932 MEMB     338      POPC     C32      CTL2    -0.220000       12.0110           0
     39933 MEMB     338      POPC     H2X      HAL2     0.900000E-01   1.00800           0
     39934 MEMB     338      POPC     H2Y      HAL2     0.900000E-01   1.00800           0
     39935 MEMB     338      POPC     C23      CTL2    -0.180000       12.0110           0
     39936 MEMB     338      POPC     H3R      HAL2     0.900000E-01   1.00800           0
     39937 MEMB     338      POPC     H3S      HAL2     0.900000E-01   1.00800           0
     39938 MEMB     338      POPC     C24      CTL2    -0.180000       12.0110           0
     39939 MEMB     338      POPC     H4R      HAL2     0.900000E-01   1.00800           0
     39940 MEMB     338      POPC     H4S      HAL2     0.900000E-01   1.00800           0
     39941 MEMB     338      POPC     C25      CTL2    -0.180000       12.0110           0
     39942 MEMB     338      POPC     H5R      HAL2     0.900000E-01   1.00800           0
     39943 MEMB     338      POPC     H5S      HAL2     0.900000E-01   1.00800           0
     39944 MEMB     338      POPC     C26      CTL2    -0.180000       12.0110           0
     39945 MEMB     338      POPC     H6R      HAL2     0.900000E-01   1.00800           0
     39946 MEMB     338      POPC     H6S      HAL2     0.900000E-01   1.00800           0
     39947 MEMB     338      POPC     C27      CTL2    -0.180000       12.0110           0
     39948 MEMB     338      POPC     H7R      HAL2     0.900000E-01   1.00800           0
     39949 MEMB     338      POPC     H7S      HAL2     0.900000E-01   1.00800           0
     39950 MEMB     338      POPC     C28      CTL2    -0.180000       12.0110           0
     39951 MEMB     338      POPC     H8R      HAL2     0.900000E-01   1.00800           0
     39952 MEMB     338      POPC     H8S      HAL2     0.900000E-01   1.00800           0
     39953 MEMB     338      POPC     C29      CEL1    -0.150000       12.0110           0
     39954 MEMB     338      POPC     H91      HEL1     0.150000       1.00800           0
     39955 MEMB     338      POPC     C210     CEL1    -0.150000       12.0110           0
     39956 MEMB     338      POPC     H101     HEL1     0.150000       1.00800           0
     39957 MEMB     338      POPC     C211     CTL2    -0.180000       12.0110           0
     39958 MEMB     338      POPC     H11R     HAL2     0.900000E-01   1.00800           0
     39959 MEMB     338      POPC     H11S     HAL2     0.900000E-01   1.00800           0
     39960 MEMB     338      POPC     C212     CTL2    -0.180000       12.0110           0
     39961 MEMB     338      POPC     H12R     HAL2     0.900000E-01   1.00800           0
     39962 MEMB     338      POPC     H12S     HAL2     0.900000E-01   1.00800           0
     39963 MEMB     338      POPC     C213     CTL2    -0.180000       12.0110           0
     39964 MEMB     338      POPC     H13R     HAL2     0.900000E-01   1.00800           0
     39965 MEMB     338      POPC     H13S     HAL2     0.900000E-01   1.00800           0
     39966 MEMB     338      POPC     C214     CTL2    -0.180000       12.0110           0
     39967 MEMB     338      POPC     H14R     HAL2     0.900000E-01   1.00800           0
     39968 MEMB     338      POPC     H14S     HAL2     0.900000E-01   1.00800           0
     39969 MEMB     338      POPC     C215     CTL2    -0.180000       12.0110           0
     39970 MEMB     338      POPC     H15R     HAL2     0.900000E-01   1.00800           0
     39971 MEMB     338      POPC     H15S     HAL2     0.900000E-01   1.00800           0
     39972 MEMB     338      POPC     C216     CTL2    -0.180000       12.0110           0
     39973 MEMB     338      POPC     H16R     HAL2     0.900000E-01   1.00800           0
     39974 MEMB     338      POPC     H16S     HAL2     0.900000E-01   1.00800           0
     39975 MEMB     338      POPC     C217     CTL2    -0.180000       12.0110           0
     39976 MEMB     338      POPC     H17R     HAL2     0.900000E-01   1.00800           0
     39977 MEMB     338      POPC     H17S     HAL2     0.900000E-01   1.00800           0
     39978 MEMB     338      POPC     C218     CTL3    -0.270000       12.0110           0
     39979 MEMB     338      POPC     H18R     HAL3     0.900000E-01   1.00800           0
     39980 MEMB     338      POPC     H18S     HAL3     0.900000E-01   1.00800           0
     39981 MEMB     338      POPC     H18T     HAL3     0.900000E-01   1.00800           0
     39982 MEMB     338      POPC     C33      CTL2    -0.180000       12.0110           0
     39983 MEMB     338      POPC     H3X      HAL2     0.900000E-01   1.00800           0
     39984 MEMB     338      POPC     H3Y      HAL2     0.900000E-01   1.00800           0
     39985 MEMB     338      POPC     C34      CTL2    -0.180000       12.0110           0
     39986 MEMB     338      POPC     H4X      HAL2     0.900000E-01   1.00800           0
     39987 MEMB     338      POPC     H4Y      HAL2     0.900000E-01   1.00800           0
     39988 MEMB     338      POPC     C35      CTL2    -0.180000       12.0110           0
     39989 MEMB     338      POPC     H5X      HAL2     0.900000E-01   1.00800           0
     39990 MEMB     338      POPC     H5Y      HAL2     0.900000E-01   1.00800           0
     39991 MEMB     338      POPC     C36      CTL2    -0.180000       12.0110           0
     39992 MEMB     338      POPC     H6X      HAL2     0.900000E-01   1.00800           0
     39993 MEMB     338      POPC     H6Y      HAL2     0.900000E-01   1.00800           0
     39994 MEMB     338      POPC     C37      CTL2    -0.180000       12.0110           0
     39995 MEMB     338      POPC     H7X      HAL2     0.900000E-01   1.00800           0
     39996 MEMB     338      POPC     H7Y      HAL2     0.900000E-01   1.00800           0
     39997 MEMB     338      POPC     C38      CTL2    -0.180000       12.0110           0
     39998 MEMB     338      POPC     H8X      HAL2     0.900000E-01   1.00800           0
     39999 MEMB     338      POPC     H8Y      HAL2     0.900000E-01   1.00800           0
     40000 MEMB     338      POPC     C39      CTL2    -0.180000       12.0110           0
     40001 MEMB     338      POPC     H9X      HAL2     0.900000E-01   1.00800           0
     40002 MEMB     338      POPC     H9Y      HAL2     0.900000E-01   1.00800           0
     40003 MEMB     338      POPC     C310     CTL2    -0.180000       12.0110           0
     40004 MEMB     338      POPC     H10X     HAL2     0.900000E-01   1.00800           0
     40005 MEMB     338      POPC     H10Y     HAL2     0.900000E-01   1.00800           0
     40006 MEMB     338      POPC     C311     CTL2    -0.180000       12.0110           0
     40007 MEMB     338      POPC     H11X     HAL2     0.900000E-01   1.00800           0
     40008 MEMB     338      POPC     H11Y     HAL2     0.900000E-01   1.00800           0
     40009 MEMB     338      POPC     C312     CTL2    -0.180000       12.0110           0
     40010 MEMB     338      POPC     H12X     HAL2     0.900000E-01   1.00800           0
     40011 MEMB     338      POPC     H12Y     HAL2     0.900000E-01   1.00800           0
     40012 MEMB     338      POPC     C313     CTL2    -0.180000       12.0110           0
     40013 MEMB     338      POPC     H13X     HAL2     0.900000E-01   1.00800           0
     40014 MEMB     338      POPC     H13Y     HAL2     0.900000E-01   1.00800           0
     40015 MEMB     338      POPC     C314     CTL2    -0.180000       12.0110           0
     40016 MEMB     338      POPC     H14X     HAL2     0.900000E-01   1.00800           0
     40017 MEMB     338      POPC     H14Y     HAL2     0.900000E-01   1.00800           0
     40018 MEMB     338      POPC     C315     CTL2    -0.180000       12.0110           0
     40019 MEMB     338      POPC     H15X     HAL2     0.900000E-01   1.00800           0
     40020 MEMB     338      POPC     H15Y     HAL2     0.900000E-01   1.00800           0
     40021 MEMB     338      POPC     C316     CTL3    -0.270000       12.0110           0
     40022 MEMB     338      POPC     H16X     HAL3     0.900000E-01   1.00800           0
     40023 MEMB     338      POPC     H16Y     HAL3     0.900000E-01   1.00800           0
     40024 MEMB     338      POPC     H16Z     HAL3     0.900000E-01   1.00800           0
     40025 MEMB     339      POPC     N        NTL     -0.600000       14.0070           0
     40026 MEMB     339      POPC     C12      CTL2    -0.100000       12.0110           0
     40027 MEMB     339      POPC     H12A     HL       0.250000       1.00800           0
     40028 MEMB     339      POPC     H12B     HL       0.250000       1.00800           0
     40029 MEMB     339      POPC     C13      CTL5    -0.350000       12.0110           0
     40030 MEMB     339      POPC     H13A     HL       0.250000       1.00800           0
     40031 MEMB     339      POPC     H13B     HL       0.250000       1.00800           0
     40032 MEMB     339      POPC     H13C     HL       0.250000       1.00800           0
     40033 MEMB     339      POPC     C14      CTL5    -0.350000       12.0110           0
     40034 MEMB     339      POPC     H14A     HL       0.250000       1.00800           0
     40035 MEMB     339      POPC     H14B     HL       0.250000       1.00800           0
     40036 MEMB     339      POPC     H14C     HL       0.250000       1.00800           0
     40037 MEMB     339      POPC     C15      CTL5    -0.350000       12.0110           0
     40038 MEMB     339      POPC     H15A     HL       0.250000       1.00800           0
     40039 MEMB     339      POPC     H15B     HL       0.250000       1.00800           0
     40040 MEMB     339      POPC     H15C     HL       0.250000       1.00800           0
     40041 MEMB     339      POPC     C11      CTL2    -0.800000E-01   12.0110           0
     40042 MEMB     339      POPC     H11A     HAL2     0.900000E-01   1.00800           0
     40043 MEMB     339      POPC     H11B     HAL2     0.900000E-01   1.00800           0
     40044 MEMB     339      POPC     P        PL        1.50000       30.9740           0
     40045 MEMB     339      POPC     O13      O2L     -0.780000       15.9994           0
     40046 MEMB     339      POPC     O14      O2L     -0.780000       15.9994           0
     40047 MEMB     339      POPC     O12      OSLP    -0.570000       15.9994           0
     40048 MEMB     339      POPC     O11      OSLP    -0.570000       15.9994           0
     40049 MEMB     339      POPC     C1       CTL2    -0.800000E-01   12.0110           0
     40050 MEMB     339      POPC     HA       HAL2     0.900000E-01   1.00800           0
     40051 MEMB     339      POPC     HB       HAL2     0.900000E-01   1.00800           0
     40052 MEMB     339      POPC     C2       CTL1     0.170000       12.0110           0
     40053 MEMB     339      POPC     HS       HAL1     0.900000E-01   1.00800           0
     40054 MEMB     339      POPC     O21      OSL     -0.490000       15.9994           0
     40055 MEMB     339      POPC     C21      CL       0.900000       12.0110           0
     40056 MEMB     339      POPC     O22      OBL     -0.630000       15.9994           0
     40057 MEMB     339      POPC     C22      CTL2    -0.220000       12.0110           0
     40058 MEMB     339      POPC     H2R      HAL2     0.900000E-01   1.00800           0
     40059 MEMB     339      POPC     H2S      HAL2     0.900000E-01   1.00800           0
     40060 MEMB     339      POPC     C3       CTL2     0.800000E-01   12.0110           0
     40061 MEMB     339      POPC     HX       HAL2     0.900000E-01   1.00800           0
     40062 MEMB     339      POPC     HY       HAL2     0.900000E-01   1.00800           0
     40063 MEMB     339      POPC     O31      OSL     -0.490000       15.9994           0
     40064 MEMB     339      POPC     C31      CL       0.900000       12.0110           0
     40065 MEMB     339      POPC     O32      OBL     -0.630000       15.9994           0
     40066 MEMB     339      POPC     C32      CTL2    -0.220000       12.0110           0
     40067 MEMB     339      POPC     H2X      HAL2     0.900000E-01   1.00800           0
     40068 MEMB     339      POPC     H2Y      HAL2     0.900000E-01   1.00800           0
     40069 MEMB     339      POPC     C23      CTL2    -0.180000       12.0110           0
     40070 MEMB     339      POPC     H3R      HAL2     0.900000E-01   1.00800           0
     40071 MEMB     339      POPC     H3S      HAL2     0.900000E-01   1.00800           0
     40072 MEMB     339      POPC     C24      CTL2    -0.180000       12.0110           0
     40073 MEMB     339      POPC     H4R      HAL2     0.900000E-01   1.00800           0
     40074 MEMB     339      POPC     H4S      HAL2     0.900000E-01   1.00800           0
     40075 MEMB     339      POPC     C25      CTL2    -0.180000       12.0110           0
     40076 MEMB     339      POPC     H5R      HAL2     0.900000E-01   1.00800           0
     40077 MEMB     339      POPC     H5S      HAL2     0.900000E-01   1.00800           0
     40078 MEMB     339      POPC     C26      CTL2    -0.180000       12.0110           0
     40079 MEMB     339      POPC     H6R      HAL2     0.900000E-01   1.00800           0
     40080 MEMB     339      POPC     H6S      HAL2     0.900000E-01   1.00800           0
     40081 MEMB     339      POPC     C27      CTL2    -0.180000       12.0110           0
     40082 MEMB     339      POPC     H7R      HAL2     0.900000E-01   1.00800           0
     40083 MEMB     339      POPC     H7S      HAL2     0.900000E-01   1.00800           0
     40084 MEMB     339      POPC     C28      CTL2    -0.180000       12.0110           0
     40085 MEMB     339      POPC     H8R      HAL2     0.900000E-01   1.00800           0
     40086 MEMB     339      POPC     H8S      HAL2     0.900000E-01   1.00800           0
     40087 MEMB     339      POPC     C29      CEL1    -0.150000       12.0110           0
     40088 MEMB     339      POPC     H91      HEL1     0.150000       1.00800           0
     40089 MEMB     339      POPC     C210     CEL1    -0.150000       12.0110           0
     40090 MEMB     339      POPC     H101     HEL1     0.150000       1.00800           0
     40091 MEMB     339      POPC     C211     CTL2    -0.180000       12.0110           0
     40092 MEMB     339      POPC     H11R     HAL2     0.900000E-01   1.00800           0
     40093 MEMB     339      POPC     H11S     HAL2     0.900000E-01   1.00800           0
     40094 MEMB     339      POPC     C212     CTL2    -0.180000       12.0110           0
     40095 MEMB     339      POPC     H12R     HAL2     0.900000E-01   1.00800           0
     40096 MEMB     339      POPC     H12S     HAL2     0.900000E-01   1.00800           0
     40097 MEMB     339      POPC     C213     CTL2    -0.180000       12.0110           0
     40098 MEMB     339      POPC     H13R     HAL2     0.900000E-01   1.00800           0
     40099 MEMB     339      POPC     H13S     HAL2     0.900000E-01   1.00800           0
     40100 MEMB     339      POPC     C214     CTL2    -0.180000       12.0110           0
     40101 MEMB     339      POPC     H14R     HAL2     0.900000E-01   1.00800           0
     40102 MEMB     339      POPC     H14S     HAL2     0.900000E-01   1.00800           0
     40103 MEMB     339      POPC     C215     CTL2    -0.180000       12.0110           0
     40104 MEMB     339      POPC     H15R     HAL2     0.900000E-01   1.00800           0
     40105 MEMB     339      POPC     H15S     HAL2     0.900000E-01   1.00800           0
     40106 MEMB     339      POPC     C216     CTL2    -0.180000       12.0110           0
     40107 MEMB     339      POPC     H16R     HAL2     0.900000E-01   1.00800           0
     40108 MEMB     339      POPC     H16S     HAL2     0.900000E-01   1.00800           0
     40109 MEMB     339      POPC     C217     CTL2    -0.180000       12.0110           0
     40110 MEMB     339      POPC     H17R     HAL2     0.900000E-01   1.00800           0
     40111 MEMB     339      POPC     H17S     HAL2     0.900000E-01   1.00800           0
     40112 MEMB     339      POPC     C218     CTL3    -0.270000       12.0110           0
     40113 MEMB     339      POPC     H18R     HAL3     0.900000E-01   1.00800           0
     40114 MEMB     339      POPC     H18S     HAL3     0.900000E-01   1.00800           0
     40115 MEMB     339      POPC     H18T     HAL3     0.900000E-01   1.00800           0
     40116 MEMB     339      POPC     C33      CTL2    -0.180000       12.0110           0
     40117 MEMB     339      POPC     H3X      HAL2     0.900000E-01   1.00800           0
     40118 MEMB     339      POPC     H3Y      HAL2     0.900000E-01   1.00800           0
     40119 MEMB     339      POPC     C34      CTL2    -0.180000       12.0110           0
     40120 MEMB     339      POPC     H4X      HAL2     0.900000E-01   1.00800           0
     40121 MEMB     339      POPC     H4Y      HAL2     0.900000E-01   1.00800           0
     40122 MEMB     339      POPC     C35      CTL2    -0.180000       12.0110           0
     40123 MEMB     339      POPC     H5X      HAL2     0.900000E-01   1.00800           0
     40124 MEMB     339      POPC     H5Y      HAL2     0.900000E-01   1.00800           0
     40125 MEMB     339      POPC     C36      CTL2    -0.180000       12.0110           0
     40126 MEMB     339      POPC     H6X      HAL2     0.900000E-01   1.00800           0
     40127 MEMB     339      POPC     H6Y      HAL2     0.900000E-01   1.00800           0
     40128 MEMB     339      POPC     C37      CTL2    -0.180000       12.0110           0
     40129 MEMB     339      POPC     H7X      HAL2     0.900000E-01   1.00800           0
     40130 MEMB     339      POPC     H7Y      HAL2     0.900000E-01   1.00800           0
     40131 MEMB     339      POPC     C38      CTL2    -0.180000       12.0110           0
     40132 MEMB     339      POPC     H8X      HAL2     0.900000E-01   1.00800           0
     40133 MEMB     339      POPC     H8Y      HAL2     0.900000E-01   1.00800           0
     40134 MEMB     339      POPC     C39      CTL2    -0.180000       12.0110           0
     40135 MEMB     339      POPC     H9X      HAL2     0.900000E-01   1.00800           0
     40136 MEMB     339      POPC     H9Y      HAL2     0.900000E-01   1.00800           0
     40137 MEMB     339      POPC     C310     CTL2    -0.180000       12.0110           0
     40138 MEMB     339      POPC     H10X     HAL2     0.900000E-01   1.00800           0
     40139 MEMB     339      POPC     H10Y     HAL2     0.900000E-01   1.00800           0
     40140 MEMB     339      POPC     C311     CTL2    -0.180000       12.0110           0
     40141 MEMB     339      POPC     H11X     HAL2     0.900000E-01   1.00800           0
     40142 MEMB     339      POPC     H11Y     HAL2     0.900000E-01   1.00800           0
     40143 MEMB     339      POPC     C312     CTL2    -0.180000       12.0110           0
     40144 MEMB     339      POPC     H12X     HAL2     0.900000E-01   1.00800           0
     40145 MEMB     339      POPC     H12Y     HAL2     0.900000E-01   1.00800           0
     40146 MEMB     339      POPC     C313     CTL2    -0.180000       12.0110           0
     40147 MEMB     339      POPC     H13X     HAL2     0.900000E-01   1.00800           0
     40148 MEMB     339      POPC     H13Y     HAL2     0.900000E-01   1.00800           0
     40149 MEMB     339      POPC     C314     CTL2    -0.180000       12.0110           0
     40150 MEMB     339      POPC     H14X     HAL2     0.900000E-01   1.00800           0
     40151 MEMB     339      POPC     H14Y     HAL2     0.900000E-01   1.00800           0
     40152 MEMB     339      POPC     C315     CTL2    -0.180000       12.0110           0
     40153 MEMB     339      POPC     H15X     HAL2     0.900000E-01   1.00800           0
     40154 MEMB     339      POPC     H15Y     HAL2     0.900000E-01   1.00800           0
     40155 MEMB     339      POPC     C316     CTL3    -0.270000       12.0110           0
     40156 MEMB     339      POPC     H16X     HAL3     0.900000E-01   1.00800           0
     40157 MEMB     339      POPC     H16Y     HAL3     0.900000E-01   1.00800           0
     40158 MEMB     339      POPC     H16Z     HAL3     0.900000E-01   1.00800           0
     40159 MEMB     340      POPE     N        NH3L    -0.300000       14.0070           0
     40160 MEMB     340      POPE     HN1      HCL      0.330000       1.00800           0
     40161 MEMB     340      POPE     HN2      HCL      0.330000       1.00800           0
     40162 MEMB     340      POPE     HN3      HCL      0.330000       1.00800           0
     40163 MEMB     340      POPE     C12      CTL2     0.130000       12.0110           0
     40164 MEMB     340      POPE     H12A     HAL2     0.900000E-01   1.00800           0
     40165 MEMB     340      POPE     H12B     HAL2     0.900000E-01   1.00800           0
     40166 MEMB     340      POPE     C11      CTL2    -0.800000E-01   12.0110           0
     40167 MEMB     340      POPE     H11A     HAL2     0.900000E-01   1.00800           0
     40168 MEMB     340      POPE     H11B     HAL2     0.900000E-01   1.00800           0
     40169 MEMB     340      POPE     P        PL        1.50000       30.9740           0
     40170 MEMB     340      POPE     O13      O2L     -0.780000       15.9994           0
     40171 MEMB     340      POPE     O14      O2L     -0.780000       15.9994           0
     40172 MEMB     340      POPE     O11      OSLP    -0.570000       15.9994           0
     40173 MEMB     340      POPE     O12      OSLP    -0.570000       15.9994           0
     40174 MEMB     340      POPE     C1       CTL2    -0.800000E-01   12.0110           0
     40175 MEMB     340      POPE     HA       HAL2     0.900000E-01   1.00800           0
     40176 MEMB     340      POPE     HB       HAL2     0.900000E-01   1.00800           0
     40177 MEMB     340      POPE     C2       CTL1     0.170000       12.0110           0
     40178 MEMB     340      POPE     HS       HAL1     0.900000E-01   1.00800           0
     40179 MEMB     340      POPE     O21      OSL     -0.490000       15.9994           0
     40180 MEMB     340      POPE     C21      CL       0.900000       12.0110           0
     40181 MEMB     340      POPE     O22      OBL     -0.630000       15.9994           0
     40182 MEMB     340      POPE     C22      CTL2    -0.220000       12.0110           0
     40183 MEMB     340      POPE     H2R      HAL2     0.900000E-01   1.00800           0
     40184 MEMB     340      POPE     H2S      HAL2     0.900000E-01   1.00800           0
     40185 MEMB     340      POPE     C3       CTL2     0.800000E-01   12.0110           0
     40186 MEMB     340      POPE     HX       HAL2     0.900000E-01   1.00800           0
     40187 MEMB     340      POPE     HY       HAL2     0.900000E-01   1.00800           0
     40188 MEMB     340      POPE     O31      OSL     -0.490000       15.9994           0
     40189 MEMB     340      POPE     C31      CL       0.900000       12.0110           0
     40190 MEMB     340      POPE     O32      OBL     -0.630000       15.9994           0
     40191 MEMB     340      POPE     C32      CTL2    -0.220000       12.0110           0
     40192 MEMB     340      POPE     H2X      HAL2     0.900000E-01   1.00800           0
     40193 MEMB     340      POPE     H2Y      HAL2     0.900000E-01   1.00800           0
     40194 MEMB     340      POPE     C23      CTL2    -0.180000       12.0110           0
     40195 MEMB     340      POPE     H3R      HAL2     0.900000E-01   1.00800           0
     40196 MEMB     340      POPE     H3S      HAL2     0.900000E-01   1.00800           0
     40197 MEMB     340      POPE     C24      CTL2    -0.180000       12.0110           0
     40198 MEMB     340      POPE     H4R      HAL2     0.900000E-01   1.00800           0
     40199 MEMB     340      POPE     H4S      HAL2     0.900000E-01   1.00800           0
     40200 MEMB     340      POPE     C25      CTL2    -0.180000       12.0110           0
     40201 MEMB     340      POPE     H5R      HAL2     0.900000E-01   1.00800           0
     40202 MEMB     340      POPE     H5S      HAL2     0.900000E-01   1.00800           0
     40203 MEMB     340      POPE     C26      CTL2    -0.180000       12.0110           0
     40204 MEMB     340      POPE     H6R      HAL2     0.900000E-01   1.00800           0
     40205 MEMB     340      POPE     H6S      HAL2     0.900000E-01   1.00800           0
     40206 MEMB     340      POPE     C27      CTL2    -0.180000       12.0110           0
     40207 MEMB     340      POPE     H7R      HAL2     0.900000E-01   1.00800           0
     40208 MEMB     340      POPE     H7S      HAL2     0.900000E-01   1.00800           0
     40209 MEMB     340      POPE     C28      CTL2    -0.180000       12.0110           0
     40210 MEMB     340      POPE     H8R      HAL2     0.900000E-01   1.00800           0
     40211 MEMB     340      POPE     H8S      HAL2     0.900000E-01   1.00800           0
     40212 MEMB     340      POPE     C29      CEL1    -0.150000       12.0110           0
     40213 MEMB     340      POPE     H91      HEL1     0.150000       1.00800           0
     40214 MEMB     340      POPE     C210     CEL1    -0.150000       12.0110           0
     40215 MEMB     340      POPE     H101     HEL1     0.150000       1.00800           0
     40216 MEMB     340      POPE     C211     CTL2    -0.180000       12.0110           0
     40217 MEMB     340      POPE     H11R     HAL2     0.900000E-01   1.00800           0
     40218 MEMB     340      POPE     H11S     HAL2     0.900000E-01   1.00800           0
     40219 MEMB     340      POPE     C212     CTL2    -0.180000       12.0110           0
     40220 MEMB     340      POPE     H12R     HAL2     0.900000E-01   1.00800           0
     40221 MEMB     340      POPE     H12S     HAL2     0.900000E-01   1.00800           0
     40222 MEMB     340      POPE     C213     CTL2    -0.180000       12.0110           0
     40223 MEMB     340      POPE     H13R     HAL2     0.900000E-01   1.00800           0
     40224 MEMB     340      POPE     H13S     HAL2     0.900000E-01   1.00800           0
     40225 MEMB     340      POPE     C214     CTL2    -0.180000       12.0110           0
     40226 MEMB     340      POPE     H14R     HAL2     0.900000E-01   1.00800           0
     40227 MEMB     340      POPE     H14S     HAL2     0.900000E-01   1.00800           0
     40228 MEMB     340      POPE     C215     CTL2    -0.180000       12.0110           0
     40229 MEMB     340      POPE     H15R     HAL2     0.900000E-01   1.00800           0
     40230 MEMB     340      POPE     H15S     HAL2     0.900000E-01   1.00800           0
     40231 MEMB     340      POPE     C216     CTL2    -0.180000       12.0110           0
     40232 MEMB     340      POPE     H16R     HAL2     0.900000E-01   1.00800           0
     40233 MEMB     340      POPE     H16S     HAL2     0.900000E-01   1.00800           0
     40234 MEMB     340      POPE     C217     CTL2    -0.180000       12.0110           0
     40235 MEMB     340      POPE     H17R     HAL2     0.900000E-01   1.00800           0
     40236 MEMB     340      POPE     H17S     HAL2     0.900000E-01   1.00800           0
     40237 MEMB     340      POPE     C218     CTL3    -0.270000       12.0110           0
     40238 MEMB     340      POPE     H18R     HAL3     0.900000E-01   1.00800           0
     40239 MEMB     340      POPE     H18S     HAL3     0.900000E-01   1.00800           0
     40240 MEMB     340      POPE     H18T     HAL3     0.900000E-01   1.00800           0
     40241 MEMB     340      POPE     C33      CTL2    -0.180000       12.0110           0
     40242 MEMB     340      POPE     H3X      HAL2     0.900000E-01   1.00800           0
     40243 MEMB     340      POPE     H3Y      HAL2     0.900000E-01   1.00800           0
     40244 MEMB     340      POPE     C34      CTL2    -0.180000       12.0110           0
     40245 MEMB     340      POPE     H4X      HAL2     0.900000E-01   1.00800           0
     40246 MEMB     340      POPE     H4Y      HAL2     0.900000E-01   1.00800           0
     40247 MEMB     340      POPE     C35      CTL2    -0.180000       12.0110           0
     40248 MEMB     340      POPE     H5X      HAL2     0.900000E-01   1.00800           0
     40249 MEMB     340      POPE     H5Y      HAL2     0.900000E-01   1.00800           0
     40250 MEMB     340      POPE     C36      CTL2    -0.180000       12.0110           0
     40251 MEMB     340      POPE     H6X      HAL2     0.900000E-01   1.00800           0
     40252 MEMB     340      POPE     H6Y      HAL2     0.900000E-01   1.00800           0
     40253 MEMB     340      POPE     C37      CTL2    -0.180000       12.0110           0
     40254 MEMB     340      POPE     H7X      HAL2     0.900000E-01   1.00800           0
     40255 MEMB     340      POPE     H7Y      HAL2     0.900000E-01   1.00800           0
     40256 MEMB     340      POPE     C38      CTL2    -0.180000       12.0110           0
     40257 MEMB     340      POPE     H8X      HAL2     0.900000E-01   1.00800           0
     40258 MEMB     340      POPE     H8Y      HAL2     0.900000E-01   1.00800           0
     40259 MEMB     340      POPE     C39      CTL2    -0.180000       12.0110           0
     40260 MEMB     340      POPE     H9X      HAL2     0.900000E-01   1.00800           0
     40261 MEMB     340      POPE     H9Y      HAL2     0.900000E-01   1.00800           0
     40262 MEMB     340      POPE     C310     CTL2    -0.180000       12.0110           0
     40263 MEMB     340      POPE     H10X     HAL2     0.900000E-01   1.00800           0
     40264 MEMB     340      POPE     H10Y     HAL2     0.900000E-01   1.00800           0
     40265 MEMB     340      POPE     C311     CTL2    -0.180000       12.0110           0
     40266 MEMB     340      POPE     H11X     HAL2     0.900000E-01   1.00800           0
     40267 MEMB     340      POPE     H11Y     HAL2     0.900000E-01   1.00800           0
     40268 MEMB     340      POPE     C312     CTL2    -0.180000       12.0110           0
     40269 MEMB     340      POPE     H12X     HAL2     0.900000E-01   1.00800           0
     40270 MEMB     340      POPE     H12Y     HAL2     0.900000E-01   1.00800           0
     40271 MEMB     340      POPE     C313     CTL2    -0.180000       12.0110           0
     40272 MEMB     340      POPE     H13X     HAL2     0.900000E-01   1.00800           0
     40273 MEMB     340      POPE     H13Y     HAL2     0.900000E-01   1.00800           0
     40274 MEMB     340      POPE     C314     CTL2    -0.180000       12.0110           0
     40275 MEMB     340      POPE     H14X     HAL2     0.900000E-01   1.00800           0
     40276 MEMB     340      POPE     H14Y     HAL2     0.900000E-01   1.00800           0
     40277 MEMB     340      POPE     C315     CTL2    -0.180000       12.0110           0
     40278 MEMB     340      POPE     H15X     HAL2     0.900000E-01   1.00800           0
     40279 MEMB     340      POPE     H15Y     HAL2     0.900000E-01   1.00800           0
     40280 MEMB     340      POPE     C316     CTL3    -0.270000       12.0110           0
     40281 MEMB     340      POPE     H16X     HAL3     0.900000E-01   1.00800           0
     40282 MEMB     340      POPE     H16Y     HAL3     0.900000E-01   1.00800           0
     40283 MEMB     340      POPE     H16Z     HAL3     0.900000E-01   1.00800           0
     40284 MEMB     341      POPE     N        NH3L    -0.300000       14.0070           0
     40285 MEMB     341      POPE     HN1      HCL      0.330000       1.00800           0
     40286 MEMB     341      POPE     HN2      HCL      0.330000       1.00800           0
     40287 MEMB     341      POPE     HN3      HCL      0.330000       1.00800           0
     40288 MEMB     341      POPE     C12      CTL2     0.130000       12.0110           0
     40289 MEMB     341      POPE     H12A     HAL2     0.900000E-01   1.00800           0
     40290 MEMB     341      POPE     H12B     HAL2     0.900000E-01   1.00800           0
     40291 MEMB     341      POPE     C11      CTL2    -0.800000E-01   12.0110           0
     40292 MEMB     341      POPE     H11A     HAL2     0.900000E-01   1.00800           0
     40293 MEMB     341      POPE     H11B     HAL2     0.900000E-01   1.00800           0
     40294 MEMB     341      POPE     P        PL        1.50000       30.9740           0
     40295 MEMB     341      POPE     O13      O2L     -0.780000       15.9994           0
     40296 MEMB     341      POPE     O14      O2L     -0.780000       15.9994           0
     40297 MEMB     341      POPE     O11      OSLP    -0.570000       15.9994           0
     40298 MEMB     341      POPE     O12      OSLP    -0.570000       15.9994           0
     40299 MEMB     341      POPE     C1       CTL2    -0.800000E-01   12.0110           0
     40300 MEMB     341      POPE     HA       HAL2     0.900000E-01   1.00800           0
     40301 MEMB     341      POPE     HB       HAL2     0.900000E-01   1.00800           0
     40302 MEMB     341      POPE     C2       CTL1     0.170000       12.0110           0
     40303 MEMB     341      POPE     HS       HAL1     0.900000E-01   1.00800           0
     40304 MEMB     341      POPE     O21      OSL     -0.490000       15.9994           0
     40305 MEMB     341      POPE     C21      CL       0.900000       12.0110           0
     40306 MEMB     341      POPE     O22      OBL     -0.630000       15.9994           0
     40307 MEMB     341      POPE     C22      CTL2    -0.220000       12.0110           0
     40308 MEMB     341      POPE     H2R      HAL2     0.900000E-01   1.00800           0
     40309 MEMB     341      POPE     H2S      HAL2     0.900000E-01   1.00800           0
     40310 MEMB     341      POPE     C3       CTL2     0.800000E-01   12.0110           0
     40311 MEMB     341      POPE     HX       HAL2     0.900000E-01   1.00800           0
     40312 MEMB     341      POPE     HY       HAL2     0.900000E-01   1.00800           0
     40313 MEMB     341      POPE     O31      OSL     -0.490000       15.9994           0
     40314 MEMB     341      POPE     C31      CL       0.900000       12.0110           0
     40315 MEMB     341      POPE     O32      OBL     -0.630000       15.9994           0
     40316 MEMB     341      POPE     C32      CTL2    -0.220000       12.0110           0
     40317 MEMB     341      POPE     H2X      HAL2     0.900000E-01   1.00800           0
     40318 MEMB     341      POPE     H2Y      HAL2     0.900000E-01   1.00800           0
     40319 MEMB     341      POPE     C23      CTL2    -0.180000       12.0110           0
     40320 MEMB     341      POPE     H3R      HAL2     0.900000E-01   1.00800           0
     40321 MEMB     341      POPE     H3S      HAL2     0.900000E-01   1.00800           0
     40322 MEMB     341      POPE     C24      CTL2    -0.180000       12.0110           0
     40323 MEMB     341      POPE     H4R      HAL2     0.900000E-01   1.00800           0
     40324 MEMB     341      POPE     H4S      HAL2     0.900000E-01   1.00800           0
     40325 MEMB     341      POPE     C25      CTL2    -0.180000       12.0110           0
     40326 MEMB     341      POPE     H5R      HAL2     0.900000E-01   1.00800           0
     40327 MEMB     341      POPE     H5S      HAL2     0.900000E-01   1.00800           0
     40328 MEMB     341      POPE     C26      CTL2    -0.180000       12.0110           0
     40329 MEMB     341      POPE     H6R      HAL2     0.900000E-01   1.00800           0
     40330 MEMB     341      POPE     H6S      HAL2     0.900000E-01   1.00800           0
     40331 MEMB     341      POPE     C27      CTL2    -0.180000       12.0110           0
     40332 MEMB     341      POPE     H7R      HAL2     0.900000E-01   1.00800           0
     40333 MEMB     341      POPE     H7S      HAL2     0.900000E-01   1.00800           0
     40334 MEMB     341      POPE     C28      CTL2    -0.180000       12.0110           0
     40335 MEMB     341      POPE     H8R      HAL2     0.900000E-01   1.00800           0
     40336 MEMB     341      POPE     H8S      HAL2     0.900000E-01   1.00800           0
     40337 MEMB     341      POPE     C29      CEL1    -0.150000       12.0110           0
     40338 MEMB     341      POPE     H91      HEL1     0.150000       1.00800           0
     40339 MEMB     341      POPE     C210     CEL1    -0.150000       12.0110           0
     40340 MEMB     341      POPE     H101     HEL1     0.150000       1.00800           0
     40341 MEMB     341      POPE     C211     CTL2    -0.180000       12.0110           0
     40342 MEMB     341      POPE     H11R     HAL2     0.900000E-01   1.00800           0
     40343 MEMB     341      POPE     H11S     HAL2     0.900000E-01   1.00800           0
     40344 MEMB     341      POPE     C212     CTL2    -0.180000       12.0110           0
     40345 MEMB     341      POPE     H12R     HAL2     0.900000E-01   1.00800           0
     40346 MEMB     341      POPE     H12S     HAL2     0.900000E-01   1.00800           0
     40347 MEMB     341      POPE     C213     CTL2    -0.180000       12.0110           0
     40348 MEMB     341      POPE     H13R     HAL2     0.900000E-01   1.00800           0
     40349 MEMB     341      POPE     H13S     HAL2     0.900000E-01   1.00800           0
     40350 MEMB     341      POPE     C214     CTL2    -0.180000       12.0110           0
     40351 MEMB     341      POPE     H14R     HAL2     0.900000E-01   1.00800           0
     40352 MEMB     341      POPE     H14S     HAL2     0.900000E-01   1.00800           0
     40353 MEMB     341      POPE     C215     CTL2    -0.180000       12.0110           0
     40354 MEMB     341      POPE     H15R     HAL2     0.900000E-01   1.00800           0
     40355 MEMB     341      POPE     H15S     HAL2     0.900000E-01   1.00800           0
     40356 MEMB     341      POPE     C216     CTL2    -0.180000       12.0110           0
     40357 MEMB     341      POPE     H16R     HAL2     0.900000E-01   1.00800           0
     40358 MEMB     341      POPE     H16S     HAL2     0.900000E-01   1.00800           0
     40359 MEMB     341      POPE     C217     CTL2    -0.180000       12.0110           0
     40360 MEMB     341      POPE     H17R     HAL2     0.900000E-01   1.00800           0
     40361 MEMB     341      POPE     H17S     HAL2     0.900000E-01   1.00800           0
     40362 MEMB     341      POPE     C218     CTL3    -0.270000       12.0110           0
     40363 MEMB     341      POPE     H18R     HAL3     0.900000E-01   1.00800           0
     40364 MEMB     341      POPE     H18S     HAL3     0.900000E-01   1.00800           0
     40365 MEMB     341      POPE     H18T     HAL3     0.900000E-01   1.00800           0
     40366 MEMB     341      POPE     C33      CTL2    -0.180000       12.0110           0
     40367 MEMB     341      POPE     H3X      HAL2     0.900000E-01   1.00800           0
     40368 MEMB     341      POPE     H3Y      HAL2     0.900000E-01   1.00800           0
     40369 MEMB     341      POPE     C34      CTL2    -0.180000       12.0110           0
     40370 MEMB     341      POPE     H4X      HAL2     0.900000E-01   1.00800           0
     40371 MEMB     341      POPE     H4Y      HAL2     0.900000E-01   1.00800           0
     40372 MEMB     341      POPE     C35      CTL2    -0.180000       12.0110           0
     40373 MEMB     341      POPE     H5X      HAL2     0.900000E-01   1.00800           0
     40374 MEMB     341      POPE     H5Y      HAL2     0.900000E-01   1.00800           0
     40375 MEMB     341      POPE     C36      CTL2    -0.180000       12.0110           0
     40376 MEMB     341      POPE     H6X      HAL2     0.900000E-01   1.00800           0
     40377 MEMB     341      POPE     H6Y      HAL2     0.900000E-01   1.00800           0
     40378 MEMB     341      POPE     C37      CTL2    -0.180000       12.0110           0
     40379 MEMB     341      POPE     H7X      HAL2     0.900000E-01   1.00800           0
     40380 MEMB     341      POPE     H7Y      HAL2     0.900000E-01   1.00800           0
     40381 MEMB     341      POPE     C38      CTL2    -0.180000       12.0110           0
     40382 MEMB     341      POPE     H8X      HAL2     0.900000E-01   1.00800           0
     40383 MEMB     341      POPE     H8Y      HAL2     0.900000E-01   1.00800           0
     40384 MEMB     341      POPE     C39      CTL2    -0.180000       12.0110           0
     40385 MEMB     341      POPE     H9X      HAL2     0.900000E-01   1.00800           0
     40386 MEMB     341      POPE     H9Y      HAL2     0.900000E-01   1.00800           0
     40387 MEMB     341      POPE     C310     CTL2    -0.180000       12.0110           0
     40388 MEMB     341      POPE     H10X     HAL2     0.900000E-01   1.00800           0
     40389 MEMB     341      POPE     H10Y     HAL2     0.900000E-01   1.00800           0
     40390 MEMB     341      POPE     C311     CTL2    -0.180000       12.0110           0
     40391 MEMB     341      POPE     H11X     HAL2     0.900000E-01   1.00800           0
     40392 MEMB     341      POPE     H11Y     HAL2     0.900000E-01   1.00800           0
     40393 MEMB     341      POPE     C312     CTL2    -0.180000       12.0110           0
     40394 MEMB     341      POPE     H12X     HAL2     0.900000E-01   1.00800           0
     40395 MEMB     341      POPE     H12Y     HAL2     0.900000E-01   1.00800           0
     40396 MEMB     341      POPE     C313     CTL2    -0.180000       12.0110           0
     40397 MEMB     341      POPE     H13X     HAL2     0.900000E-01   1.00800           0
     40398 MEMB     341      POPE     H13Y     HAL2     0.900000E-01   1.00800           0
     40399 MEMB     341      POPE     C314     CTL2    -0.180000       12.0110           0
     40400 MEMB     341      POPE     H14X     HAL2     0.900000E-01   1.00800           0
     40401 MEMB     341      POPE     H14Y     HAL2     0.900000E-01   1.00800           0
     40402 MEMB     341      POPE     C315     CTL2    -0.180000       12.0110           0
     40403 MEMB     341      POPE     H15X     HAL2     0.900000E-01   1.00800           0
     40404 MEMB     341      POPE     H15Y     HAL2     0.900000E-01   1.00800           0
     40405 MEMB     341      POPE     C316     CTL3    -0.270000       12.0110           0
     40406 MEMB     341      POPE     H16X     HAL3     0.900000E-01   1.00800           0
     40407 MEMB     341      POPE     H16Y     HAL3     0.900000E-01   1.00800           0
     40408 MEMB     341      POPE     H16Z     HAL3     0.900000E-01   1.00800           0
     40409 MEMB     342      POPC     N        NTL     -0.600000       14.0070           0
     40410 MEMB     342      POPC     C12      CTL2    -0.100000       12.0110           0
     40411 MEMB     342      POPC     H12A     HL       0.250000       1.00800           0
     40412 MEMB     342      POPC     H12B     HL       0.250000       1.00800           0
     40413 MEMB     342      POPC     C13      CTL5    -0.350000       12.0110           0
     40414 MEMB     342      POPC     H13A     HL       0.250000       1.00800           0
     40415 MEMB     342      POPC     H13B     HL       0.250000       1.00800           0
     40416 MEMB     342      POPC     H13C     HL       0.250000       1.00800           0
     40417 MEMB     342      POPC     C14      CTL5    -0.350000       12.0110           0
     40418 MEMB     342      POPC     H14A     HL       0.250000       1.00800           0
     40419 MEMB     342      POPC     H14B     HL       0.250000       1.00800           0
     40420 MEMB     342      POPC     H14C     HL       0.250000       1.00800           0
     40421 MEMB     342      POPC     C15      CTL5    -0.350000       12.0110           0
     40422 MEMB     342      POPC     H15A     HL       0.250000       1.00800           0
     40423 MEMB     342      POPC     H15B     HL       0.250000       1.00800           0
     40424 MEMB     342      POPC     H15C     HL       0.250000       1.00800           0
     40425 MEMB     342      POPC     C11      CTL2    -0.800000E-01   12.0110           0
     40426 MEMB     342      POPC     H11A     HAL2     0.900000E-01   1.00800           0
     40427 MEMB     342      POPC     H11B     HAL2     0.900000E-01   1.00800           0
     40428 MEMB     342      POPC     P        PL        1.50000       30.9740           0
     40429 MEMB     342      POPC     O13      O2L     -0.780000       15.9994           0
     40430 MEMB     342      POPC     O14      O2L     -0.780000       15.9994           0
     40431 MEMB     342      POPC     O12      OSLP    -0.570000       15.9994           0
     40432 MEMB     342      POPC     O11      OSLP    -0.570000       15.9994           0
     40433 MEMB     342      POPC     C1       CTL2    -0.800000E-01   12.0110           0
     40434 MEMB     342      POPC     HA       HAL2     0.900000E-01   1.00800           0
     40435 MEMB     342      POPC     HB       HAL2     0.900000E-01   1.00800           0
     40436 MEMB     342      POPC     C2       CTL1     0.170000       12.0110           0
     40437 MEMB     342      POPC     HS       HAL1     0.900000E-01   1.00800           0
     40438 MEMB     342      POPC     O21      OSL     -0.490000       15.9994           0
     40439 MEMB     342      POPC     C21      CL       0.900000       12.0110           0
     40440 MEMB     342      POPC     O22      OBL     -0.630000       15.9994           0
     40441 MEMB     342      POPC     C22      CTL2    -0.220000       12.0110           0
     40442 MEMB     342      POPC     H2R      HAL2     0.900000E-01   1.00800           0
     40443 MEMB     342      POPC     H2S      HAL2     0.900000E-01   1.00800           0
     40444 MEMB     342      POPC     C3       CTL2     0.800000E-01   12.0110           0
     40445 MEMB     342      POPC     HX       HAL2     0.900000E-01   1.00800           0
     40446 MEMB     342      POPC     HY       HAL2     0.900000E-01   1.00800           0
     40447 MEMB     342      POPC     O31      OSL     -0.490000       15.9994           0
     40448 MEMB     342      POPC     C31      CL       0.900000       12.0110           0
     40449 MEMB     342      POPC     O32      OBL     -0.630000       15.9994           0
     40450 MEMB     342      POPC     C32      CTL2    -0.220000       12.0110           0
     40451 MEMB     342      POPC     H2X      HAL2     0.900000E-01   1.00800           0
     40452 MEMB     342      POPC     H2Y      HAL2     0.900000E-01   1.00800           0
     40453 MEMB     342      POPC     C23      CTL2    -0.180000       12.0110           0
     40454 MEMB     342      POPC     H3R      HAL2     0.900000E-01   1.00800           0
     40455 MEMB     342      POPC     H3S      HAL2     0.900000E-01   1.00800           0
     40456 MEMB     342      POPC     C24      CTL2    -0.180000       12.0110           0
     40457 MEMB     342      POPC     H4R      HAL2     0.900000E-01   1.00800           0
     40458 MEMB     342      POPC     H4S      HAL2     0.900000E-01   1.00800           0
     40459 MEMB     342      POPC     C25      CTL2    -0.180000       12.0110           0
     40460 MEMB     342      POPC     H5R      HAL2     0.900000E-01   1.00800           0
     40461 MEMB     342      POPC     H5S      HAL2     0.900000E-01   1.00800           0
     40462 MEMB     342      POPC     C26      CTL2    -0.180000       12.0110           0
     40463 MEMB     342      POPC     H6R      HAL2     0.900000E-01   1.00800           0
     40464 MEMB     342      POPC     H6S      HAL2     0.900000E-01   1.00800           0
     40465 MEMB     342      POPC     C27      CTL2    -0.180000       12.0110           0
     40466 MEMB     342      POPC     H7R      HAL2     0.900000E-01   1.00800           0
     40467 MEMB     342      POPC     H7S      HAL2     0.900000E-01   1.00800           0
     40468 MEMB     342      POPC     C28      CTL2    -0.180000       12.0110           0
     40469 MEMB     342      POPC     H8R      HAL2     0.900000E-01   1.00800           0
     40470 MEMB     342      POPC     H8S      HAL2     0.900000E-01   1.00800           0
     40471 MEMB     342      POPC     C29      CEL1    -0.150000       12.0110           0
     40472 MEMB     342      POPC     H91      HEL1     0.150000       1.00800           0
     40473 MEMB     342      POPC     C210     CEL1    -0.150000       12.0110           0
     40474 MEMB     342      POPC     H101     HEL1     0.150000       1.00800           0
     40475 MEMB     342      POPC     C211     CTL2    -0.180000       12.0110           0
     40476 MEMB     342      POPC     H11R     HAL2     0.900000E-01   1.00800           0
     40477 MEMB     342      POPC     H11S     HAL2     0.900000E-01   1.00800           0
     40478 MEMB     342      POPC     C212     CTL2    -0.180000       12.0110           0
     40479 MEMB     342      POPC     H12R     HAL2     0.900000E-01   1.00800           0
     40480 MEMB     342      POPC     H12S     HAL2     0.900000E-01   1.00800           0
     40481 MEMB     342      POPC     C213     CTL2    -0.180000       12.0110           0
     40482 MEMB     342      POPC     H13R     HAL2     0.900000E-01   1.00800           0
     40483 MEMB     342      POPC     H13S     HAL2     0.900000E-01   1.00800           0
     40484 MEMB     342      POPC     C214     CTL2    -0.180000       12.0110           0
     40485 MEMB     342      POPC     H14R     HAL2     0.900000E-01   1.00800           0
     40486 MEMB     342      POPC     H14S     HAL2     0.900000E-01   1.00800           0
     40487 MEMB     342      POPC     C215     CTL2    -0.180000       12.0110           0
     40488 MEMB     342      POPC     H15R     HAL2     0.900000E-01   1.00800           0
     40489 MEMB     342      POPC     H15S     HAL2     0.900000E-01   1.00800           0
     40490 MEMB     342      POPC     C216     CTL2    -0.180000       12.0110           0
     40491 MEMB     342      POPC     H16R     HAL2     0.900000E-01   1.00800           0
     40492 MEMB     342      POPC     H16S     HAL2     0.900000E-01   1.00800           0
     40493 MEMB     342      POPC     C217     CTL2    -0.180000       12.0110           0
     40494 MEMB     342      POPC     H17R     HAL2     0.900000E-01   1.00800           0
     40495 MEMB     342      POPC     H17S     HAL2     0.900000E-01   1.00800           0
     40496 MEMB     342      POPC     C218     CTL3    -0.270000       12.0110           0
     40497 MEMB     342      POPC     H18R     HAL3     0.900000E-01   1.00800           0
     40498 MEMB     342      POPC     H18S     HAL3     0.900000E-01   1.00800           0
     40499 MEMB     342      POPC     H18T     HAL3     0.900000E-01   1.00800           0
     40500 MEMB     342      POPC     C33      CTL2    -0.180000       12.0110           0
     40501 MEMB     342      POPC     H3X      HAL2     0.900000E-01   1.00800           0
     40502 MEMB     342      POPC     H3Y      HAL2     0.900000E-01   1.00800           0
     40503 MEMB     342      POPC     C34      CTL2    -0.180000       12.0110           0
     40504 MEMB     342      POPC     H4X      HAL2     0.900000E-01   1.00800           0
     40505 MEMB     342      POPC     H4Y      HAL2     0.900000E-01   1.00800           0
     40506 MEMB     342      POPC     C35      CTL2    -0.180000       12.0110           0
     40507 MEMB     342      POPC     H5X      HAL2     0.900000E-01   1.00800           0
     40508 MEMB     342      POPC     H5Y      HAL2     0.900000E-01   1.00800           0
     40509 MEMB     342      POPC     C36      CTL2    -0.180000       12.0110           0
     40510 MEMB     342      POPC     H6X      HAL2     0.900000E-01   1.00800           0
     40511 MEMB     342      POPC     H6Y      HAL2     0.900000E-01   1.00800           0
     40512 MEMB     342      POPC     C37      CTL2    -0.180000       12.0110           0
     40513 MEMB     342      POPC     H7X      HAL2     0.900000E-01   1.00800           0
     40514 MEMB     342      POPC     H7Y      HAL2     0.900000E-01   1.00800           0
     40515 MEMB     342      POPC     C38      CTL2    -0.180000       12.0110           0
     40516 MEMB     342      POPC     H8X      HAL2     0.900000E-01   1.00800           0
     40517 MEMB     342      POPC     H8Y      HAL2     0.900000E-01   1.00800           0
     40518 MEMB     342      POPC     C39      CTL2    -0.180000       12.0110           0
     40519 MEMB     342      POPC     H9X      HAL2     0.900000E-01   1.00800           0
     40520 MEMB     342      POPC     H9Y      HAL2     0.900000E-01   1.00800           0
     40521 MEMB     342      POPC     C310     CTL2    -0.180000       12.0110           0
     40522 MEMB     342      POPC     H10X     HAL2     0.900000E-01   1.00800           0
     40523 MEMB     342      POPC     H10Y     HAL2     0.900000E-01   1.00800           0
     40524 MEMB     342      POPC     C311     CTL2    -0.180000       12.0110           0
     40525 MEMB     342      POPC     H11X     HAL2     0.900000E-01   1.00800           0
     40526 MEMB     342      POPC     H11Y     HAL2     0.900000E-01   1.00800           0
     40527 MEMB     342      POPC     C312     CTL2    -0.180000       12.0110           0
     40528 MEMB     342      POPC     H12X     HAL2     0.900000E-01   1.00800           0
     40529 MEMB     342      POPC     H12Y     HAL2     0.900000E-01   1.00800           0
     40530 MEMB     342      POPC     C313     CTL2    -0.180000       12.0110           0
     40531 MEMB     342      POPC     H13X     HAL2     0.900000E-01   1.00800           0
     40532 MEMB     342      POPC     H13Y     HAL2     0.900000E-01   1.00800           0
     40533 MEMB     342      POPC     C314     CTL2    -0.180000       12.0110           0
     40534 MEMB     342      POPC     H14X     HAL2     0.900000E-01   1.00800           0
     40535 MEMB     342      POPC     H14Y     HAL2     0.900000E-01   1.00800           0
     40536 MEMB     342      POPC     C315     CTL2    -0.180000       12.0110           0
     40537 MEMB     342      POPC     H15X     HAL2     0.900000E-01   1.00800           0
     40538 MEMB     342      POPC     H15Y     HAL2     0.900000E-01   1.00800           0
     40539 MEMB     342      POPC     C316     CTL3    -0.270000       12.0110           0
     40540 MEMB     342      POPC     H16X     HAL3     0.900000E-01   1.00800           0
     40541 MEMB     342      POPC     H16Y     HAL3     0.900000E-01   1.00800           0
     40542 MEMB     342      POPC     H16Z     HAL3     0.900000E-01   1.00800           0
     40543 MEMB     343      POPE     N        NH3L    -0.300000       14.0070           0
     40544 MEMB     343      POPE     HN1      HCL      0.330000       1.00800           0
     40545 MEMB     343      POPE     HN2      HCL      0.330000       1.00800           0
     40546 MEMB     343      POPE     HN3      HCL      0.330000       1.00800           0
     40547 MEMB     343      POPE     C12      CTL2     0.130000       12.0110           0
     40548 MEMB     343      POPE     H12A     HAL2     0.900000E-01   1.00800           0
     40549 MEMB     343      POPE     H12B     HAL2     0.900000E-01   1.00800           0
     40550 MEMB     343      POPE     C11      CTL2    -0.800000E-01   12.0110           0
     40551 MEMB     343      POPE     H11A     HAL2     0.900000E-01   1.00800           0
     40552 MEMB     343      POPE     H11B     HAL2     0.900000E-01   1.00800           0
     40553 MEMB     343      POPE     P        PL        1.50000       30.9740           0
     40554 MEMB     343      POPE     O13      O2L     -0.780000       15.9994           0
     40555 MEMB     343      POPE     O14      O2L     -0.780000       15.9994           0
     40556 MEMB     343      POPE     O11      OSLP    -0.570000       15.9994           0
     40557 MEMB     343      POPE     O12      OSLP    -0.570000       15.9994           0
     40558 MEMB     343      POPE     C1       CTL2    -0.800000E-01   12.0110           0
     40559 MEMB     343      POPE     HA       HAL2     0.900000E-01   1.00800           0
     40560 MEMB     343      POPE     HB       HAL2     0.900000E-01   1.00800           0
     40561 MEMB     343      POPE     C2       CTL1     0.170000       12.0110           0
     40562 MEMB     343      POPE     HS       HAL1     0.900000E-01   1.00800           0
     40563 MEMB     343      POPE     O21      OSL     -0.490000       15.9994           0
     40564 MEMB     343      POPE     C21      CL       0.900000       12.0110           0
     40565 MEMB     343      POPE     O22      OBL     -0.630000       15.9994           0
     40566 MEMB     343      POPE     C22      CTL2    -0.220000       12.0110           0
     40567 MEMB     343      POPE     H2R      HAL2     0.900000E-01   1.00800           0
     40568 MEMB     343      POPE     H2S      HAL2     0.900000E-01   1.00800           0
     40569 MEMB     343      POPE     C3       CTL2     0.800000E-01   12.0110           0
     40570 MEMB     343      POPE     HX       HAL2     0.900000E-01   1.00800           0
     40571 MEMB     343      POPE     HY       HAL2     0.900000E-01   1.00800           0
     40572 MEMB     343      POPE     O31      OSL     -0.490000       15.9994           0
     40573 MEMB     343      POPE     C31      CL       0.900000       12.0110           0
     40574 MEMB     343      POPE     O32      OBL     -0.630000       15.9994           0
     40575 MEMB     343      POPE     C32      CTL2    -0.220000       12.0110           0
     40576 MEMB     343      POPE     H2X      HAL2     0.900000E-01   1.00800           0
     40577 MEMB     343      POPE     H2Y      HAL2     0.900000E-01   1.00800           0
     40578 MEMB     343      POPE     C23      CTL2    -0.180000       12.0110           0
     40579 MEMB     343      POPE     H3R      HAL2     0.900000E-01   1.00800           0
     40580 MEMB     343      POPE     H3S      HAL2     0.900000E-01   1.00800           0
     40581 MEMB     343      POPE     C24      CTL2    -0.180000       12.0110           0
     40582 MEMB     343      POPE     H4R      HAL2     0.900000E-01   1.00800           0
     40583 MEMB     343      POPE     H4S      HAL2     0.900000E-01   1.00800           0
     40584 MEMB     343      POPE     C25      CTL2    -0.180000       12.0110           0
     40585 MEMB     343      POPE     H5R      HAL2     0.900000E-01   1.00800           0
     40586 MEMB     343      POPE     H5S      HAL2     0.900000E-01   1.00800           0
     40587 MEMB     343      POPE     C26      CTL2    -0.180000       12.0110           0
     40588 MEMB     343      POPE     H6R      HAL2     0.900000E-01   1.00800           0
     40589 MEMB     343      POPE     H6S      HAL2     0.900000E-01   1.00800           0
     40590 MEMB     343      POPE     C27      CTL2    -0.180000       12.0110           0
     40591 MEMB     343      POPE     H7R      HAL2     0.900000E-01   1.00800           0
     40592 MEMB     343      POPE     H7S      HAL2     0.900000E-01   1.00800           0
     40593 MEMB     343      POPE     C28      CTL2    -0.180000       12.0110           0
     40594 MEMB     343      POPE     H8R      HAL2     0.900000E-01   1.00800           0
     40595 MEMB     343      POPE     H8S      HAL2     0.900000E-01   1.00800           0
     40596 MEMB     343      POPE     C29      CEL1    -0.150000       12.0110           0
     40597 MEMB     343      POPE     H91      HEL1     0.150000       1.00800           0
     40598 MEMB     343      POPE     C210     CEL1    -0.150000       12.0110           0
     40599 MEMB     343      POPE     H101     HEL1     0.150000       1.00800           0
     40600 MEMB     343      POPE     C211     CTL2    -0.180000       12.0110           0
     40601 MEMB     343      POPE     H11R     HAL2     0.900000E-01   1.00800           0
     40602 MEMB     343      POPE     H11S     HAL2     0.900000E-01   1.00800           0
     40603 MEMB     343      POPE     C212     CTL2    -0.180000       12.0110           0
     40604 MEMB     343      POPE     H12R     HAL2     0.900000E-01   1.00800           0
     40605 MEMB     343      POPE     H12S     HAL2     0.900000E-01   1.00800           0
     40606 MEMB     343      POPE     C213     CTL2    -0.180000       12.0110           0
     40607 MEMB     343      POPE     H13R     HAL2     0.900000E-01   1.00800           0
     40608 MEMB     343      POPE     H13S     HAL2     0.900000E-01   1.00800           0
     40609 MEMB     343      POPE     C214     CTL2    -0.180000       12.0110           0
     40610 MEMB     343      POPE     H14R     HAL2     0.900000E-01   1.00800           0
     40611 MEMB     343      POPE     H14S     HAL2     0.900000E-01   1.00800           0
     40612 MEMB     343      POPE     C215     CTL2    -0.180000       12.0110           0
     40613 MEMB     343      POPE     H15R     HAL2     0.900000E-01   1.00800           0
     40614 MEMB     343      POPE     H15S     HAL2     0.900000E-01   1.00800           0
     40615 MEMB     343      POPE     C216     CTL2    -0.180000       12.0110           0
     40616 MEMB     343      POPE     H16R     HAL2     0.900000E-01   1.00800           0
     40617 MEMB     343      POPE     H16S     HAL2     0.900000E-01   1.00800           0
     40618 MEMB     343      POPE     C217     CTL2    -0.180000       12.0110           0
     40619 MEMB     343      POPE     H17R     HAL2     0.900000E-01   1.00800           0
     40620 MEMB     343      POPE     H17S     HAL2     0.900000E-01   1.00800           0
     40621 MEMB     343      POPE     C218     CTL3    -0.270000       12.0110           0
     40622 MEMB     343      POPE     H18R     HAL3     0.900000E-01   1.00800           0
     40623 MEMB     343      POPE     H18S     HAL3     0.900000E-01   1.00800           0
     40624 MEMB     343      POPE     H18T     HAL3     0.900000E-01   1.00800           0
     40625 MEMB     343      POPE     C33      CTL2    -0.180000       12.0110           0
     40626 MEMB     343      POPE     H3X      HAL2     0.900000E-01   1.00800           0
     40627 MEMB     343      POPE     H3Y      HAL2     0.900000E-01   1.00800           0
     40628 MEMB     343      POPE     C34      CTL2    -0.180000       12.0110           0
     40629 MEMB     343      POPE     H4X      HAL2     0.900000E-01   1.00800           0
     40630 MEMB     343      POPE     H4Y      HAL2     0.900000E-01   1.00800           0
     40631 MEMB     343      POPE     C35      CTL2    -0.180000       12.0110           0
     40632 MEMB     343      POPE     H5X      HAL2     0.900000E-01   1.00800           0
     40633 MEMB     343      POPE     H5Y      HAL2     0.900000E-01   1.00800           0
     40634 MEMB     343      POPE     C36      CTL2    -0.180000       12.0110           0
     40635 MEMB     343      POPE     H6X      HAL2     0.900000E-01   1.00800           0
     40636 MEMB     343      POPE     H6Y      HAL2     0.900000E-01   1.00800           0
     40637 MEMB     343      POPE     C37      CTL2    -0.180000       12.0110           0
     40638 MEMB     343      POPE     H7X      HAL2     0.900000E-01   1.00800           0
     40639 MEMB     343      POPE     H7Y      HAL2     0.900000E-01   1.00800           0
     40640 MEMB     343      POPE     C38      CTL2    -0.180000       12.0110           0
     40641 MEMB     343      POPE     H8X      HAL2     0.900000E-01   1.00800           0
     40642 MEMB     343      POPE     H8Y      HAL2     0.900000E-01   1.00800           0
     40643 MEMB     343      POPE     C39      CTL2    -0.180000       12.0110           0
     40644 MEMB     343      POPE     H9X      HAL2     0.900000E-01   1.00800           0
     40645 MEMB     343      POPE     H9Y      HAL2     0.900000E-01   1.00800           0
     40646 MEMB     343      POPE     C310     CTL2    -0.180000       12.0110           0
     40647 MEMB     343      POPE     H10X     HAL2     0.900000E-01   1.00800           0
     40648 MEMB     343      POPE     H10Y     HAL2     0.900000E-01   1.00800           0
     40649 MEMB     343      POPE     C311     CTL2    -0.180000       12.0110           0
     40650 MEMB     343      POPE     H11X     HAL2     0.900000E-01   1.00800           0
     40651 MEMB     343      POPE     H11Y     HAL2     0.900000E-01   1.00800           0
     40652 MEMB     343      POPE     C312     CTL2    -0.180000       12.0110           0
     40653 MEMB     343      POPE     H12X     HAL2     0.900000E-01   1.00800           0
     40654 MEMB     343      POPE     H12Y     HAL2     0.900000E-01   1.00800           0
     40655 MEMB     343      POPE     C313     CTL2    -0.180000       12.0110           0
     40656 MEMB     343      POPE     H13X     HAL2     0.900000E-01   1.00800           0
     40657 MEMB     343      POPE     H13Y     HAL2     0.900000E-01   1.00800           0
     40658 MEMB     343      POPE     C314     CTL2    -0.180000       12.0110           0
     40659 MEMB     343      POPE     H14X     HAL2     0.900000E-01   1.00800           0
     40660 MEMB     343      POPE     H14Y     HAL2     0.900000E-01   1.00800           0
     40661 MEMB     343      POPE     C315     CTL2    -0.180000       12.0110           0
     40662 MEMB     343      POPE     H15X     HAL2     0.900000E-01   1.00800           0
     40663 MEMB     343      POPE     H15Y     HAL2     0.900000E-01   1.00800           0
     40664 MEMB     343      POPE     C316     CTL3    -0.270000       12.0110           0
     40665 MEMB     343      POPE     H16X     HAL3     0.900000E-01   1.00800           0
     40666 MEMB     343      POPE     H16Y     HAL3     0.900000E-01   1.00800           0
     40667 MEMB     343      POPE     H16Z     HAL3     0.900000E-01   1.00800           0
     40668 MEMB     344      POPE     N        NH3L    -0.300000       14.0070           0
     40669 MEMB     344      POPE     HN1      HCL      0.330000       1.00800           0
     40670 MEMB     344      POPE     HN2      HCL      0.330000       1.00800           0
     40671 MEMB     344      POPE     HN3      HCL      0.330000       1.00800           0
     40672 MEMB     344      POPE     C12      CTL2     0.130000       12.0110           0
     40673 MEMB     344      POPE     H12A     HAL2     0.900000E-01   1.00800           0
     40674 MEMB     344      POPE     H12B     HAL2     0.900000E-01   1.00800           0
     40675 MEMB     344      POPE     C11      CTL2    -0.800000E-01   12.0110           0
     40676 MEMB     344      POPE     H11A     HAL2     0.900000E-01   1.00800           0
     40677 MEMB     344      POPE     H11B     HAL2     0.900000E-01   1.00800           0
     40678 MEMB     344      POPE     P        PL        1.50000       30.9740           0
     40679 MEMB     344      POPE     O13      O2L     -0.780000       15.9994           0
     40680 MEMB     344      POPE     O14      O2L     -0.780000       15.9994           0
     40681 MEMB     344      POPE     O11      OSLP    -0.570000       15.9994           0
     40682 MEMB     344      POPE     O12      OSLP    -0.570000       15.9994           0
     40683 MEMB     344      POPE     C1       CTL2    -0.800000E-01   12.0110           0
     40684 MEMB     344      POPE     HA       HAL2     0.900000E-01   1.00800           0
     40685 MEMB     344      POPE     HB       HAL2     0.900000E-01   1.00800           0
     40686 MEMB     344      POPE     C2       CTL1     0.170000       12.0110           0
     40687 MEMB     344      POPE     HS       HAL1     0.900000E-01   1.00800           0
     40688 MEMB     344      POPE     O21      OSL     -0.490000       15.9994           0
     40689 MEMB     344      POPE     C21      CL       0.900000       12.0110           0
     40690 MEMB     344      POPE     O22      OBL     -0.630000       15.9994           0
     40691 MEMB     344      POPE     C22      CTL2    -0.220000       12.0110           0
     40692 MEMB     344      POPE     H2R      HAL2     0.900000E-01   1.00800           0
     40693 MEMB     344      POPE     H2S      HAL2     0.900000E-01   1.00800           0
     40694 MEMB     344      POPE     C3       CTL2     0.800000E-01   12.0110           0
     40695 MEMB     344      POPE     HX       HAL2     0.900000E-01   1.00800           0
     40696 MEMB     344      POPE     HY       HAL2     0.900000E-01   1.00800           0
     40697 MEMB     344      POPE     O31      OSL     -0.490000       15.9994           0
     40698 MEMB     344      POPE     C31      CL       0.900000       12.0110           0
     40699 MEMB     344      POPE     O32      OBL     -0.630000       15.9994           0
     40700 MEMB     344      POPE     C32      CTL2    -0.220000       12.0110           0
     40701 MEMB     344      POPE     H2X      HAL2     0.900000E-01   1.00800           0
     40702 MEMB     344      POPE     H2Y      HAL2     0.900000E-01   1.00800           0
     40703 MEMB     344      POPE     C23      CTL2    -0.180000       12.0110           0
     40704 MEMB     344      POPE     H3R      HAL2     0.900000E-01   1.00800           0
     40705 MEMB     344      POPE     H3S      HAL2     0.900000E-01   1.00800           0
     40706 MEMB     344      POPE     C24      CTL2    -0.180000       12.0110           0
     40707 MEMB     344      POPE     H4R      HAL2     0.900000E-01   1.00800           0
     40708 MEMB     344      POPE     H4S      HAL2     0.900000E-01   1.00800           0
     40709 MEMB     344      POPE     C25      CTL2    -0.180000       12.0110           0
     40710 MEMB     344      POPE     H5R      HAL2     0.900000E-01   1.00800           0
     40711 MEMB     344      POPE     H5S      HAL2     0.900000E-01   1.00800           0
     40712 MEMB     344      POPE     C26      CTL2    -0.180000       12.0110           0
     40713 MEMB     344      POPE     H6R      HAL2     0.900000E-01   1.00800           0
     40714 MEMB     344      POPE     H6S      HAL2     0.900000E-01   1.00800           0
     40715 MEMB     344      POPE     C27      CTL2    -0.180000       12.0110           0
     40716 MEMB     344      POPE     H7R      HAL2     0.900000E-01   1.00800           0
     40717 MEMB     344      POPE     H7S      HAL2     0.900000E-01   1.00800           0
     40718 MEMB     344      POPE     C28      CTL2    -0.180000       12.0110           0
     40719 MEMB     344      POPE     H8R      HAL2     0.900000E-01   1.00800           0
     40720 MEMB     344      POPE     H8S      HAL2     0.900000E-01   1.00800           0
     40721 MEMB     344      POPE     C29      CEL1    -0.150000       12.0110           0
     40722 MEMB     344      POPE     H91      HEL1     0.150000       1.00800           0
     40723 MEMB     344      POPE     C210     CEL1    -0.150000       12.0110           0
     40724 MEMB     344      POPE     H101     HEL1     0.150000       1.00800           0
     40725 MEMB     344      POPE     C211     CTL2    -0.180000       12.0110           0
     40726 MEMB     344      POPE     H11R     HAL2     0.900000E-01   1.00800           0
     40727 MEMB     344      POPE     H11S     HAL2     0.900000E-01   1.00800           0
     40728 MEMB     344      POPE     C212     CTL2    -0.180000       12.0110           0
     40729 MEMB     344      POPE     H12R     HAL2     0.900000E-01   1.00800           0
     40730 MEMB     344      POPE     H12S     HAL2     0.900000E-01   1.00800           0
     40731 MEMB     344      POPE     C213     CTL2    -0.180000       12.0110           0
     40732 MEMB     344      POPE     H13R     HAL2     0.900000E-01   1.00800           0
     40733 MEMB     344      POPE     H13S     HAL2     0.900000E-01   1.00800           0
     40734 MEMB     344      POPE     C214     CTL2    -0.180000       12.0110           0
     40735 MEMB     344      POPE     H14R     HAL2     0.900000E-01   1.00800           0
     40736 MEMB     344      POPE     H14S     HAL2     0.900000E-01   1.00800           0
     40737 MEMB     344      POPE     C215     CTL2    -0.180000       12.0110           0
     40738 MEMB     344      POPE     H15R     HAL2     0.900000E-01   1.00800           0
     40739 MEMB     344      POPE     H15S     HAL2     0.900000E-01   1.00800           0
     40740 MEMB     344      POPE     C216     CTL2    -0.180000       12.0110           0
     40741 MEMB     344      POPE     H16R     HAL2     0.900000E-01   1.00800           0
     40742 MEMB     344      POPE     H16S     HAL2     0.900000E-01   1.00800           0
     40743 MEMB     344      POPE     C217     CTL2    -0.180000       12.0110           0
     40744 MEMB     344      POPE     H17R     HAL2     0.900000E-01   1.00800           0
     40745 MEMB     344      POPE     H17S     HAL2     0.900000E-01   1.00800           0
     40746 MEMB     344      POPE     C218     CTL3    -0.270000       12.0110           0
     40747 MEMB     344      POPE     H18R     HAL3     0.900000E-01   1.00800           0
     40748 MEMB     344      POPE     H18S     HAL3     0.900000E-01   1.00800           0
     40749 MEMB     344      POPE     H18T     HAL3     0.900000E-01   1.00800           0
     40750 MEMB     344      POPE     C33      CTL2    -0.180000       12.0110           0
     40751 MEMB     344      POPE     H3X      HAL2     0.900000E-01   1.00800           0
     40752 MEMB     344      POPE     H3Y      HAL2     0.900000E-01   1.00800           0
     40753 MEMB     344      POPE     C34      CTL2    -0.180000       12.0110           0
     40754 MEMB     344      POPE     H4X      HAL2     0.900000E-01   1.00800           0
     40755 MEMB     344      POPE     H4Y      HAL2     0.900000E-01   1.00800           0
     40756 MEMB     344      POPE     C35      CTL2    -0.180000       12.0110           0
     40757 MEMB     344      POPE     H5X      HAL2     0.900000E-01   1.00800           0
     40758 MEMB     344      POPE     H5Y      HAL2     0.900000E-01   1.00800           0
     40759 MEMB     344      POPE     C36      CTL2    -0.180000       12.0110           0
     40760 MEMB     344      POPE     H6X      HAL2     0.900000E-01   1.00800           0
     40761 MEMB     344      POPE     H6Y      HAL2     0.900000E-01   1.00800           0
     40762 MEMB     344      POPE     C37      CTL2    -0.180000       12.0110           0
     40763 MEMB     344      POPE     H7X      HAL2     0.900000E-01   1.00800           0
     40764 MEMB     344      POPE     H7Y      HAL2     0.900000E-01   1.00800           0
     40765 MEMB     344      POPE     C38      CTL2    -0.180000       12.0110           0
     40766 MEMB     344      POPE     H8X      HAL2     0.900000E-01   1.00800           0
     40767 MEMB     344      POPE     H8Y      HAL2     0.900000E-01   1.00800           0
     40768 MEMB     344      POPE     C39      CTL2    -0.180000       12.0110           0
     40769 MEMB     344      POPE     H9X      HAL2     0.900000E-01   1.00800           0
     40770 MEMB     344      POPE     H9Y      HAL2     0.900000E-01   1.00800           0
     40771 MEMB     344      POPE     C310     CTL2    -0.180000       12.0110           0
     40772 MEMB     344      POPE     H10X     HAL2     0.900000E-01   1.00800           0
     40773 MEMB     344      POPE     H10Y     HAL2     0.900000E-01   1.00800           0
     40774 MEMB     344      POPE     C311     CTL2    -0.180000       12.0110           0
     40775 MEMB     344      POPE     H11X     HAL2     0.900000E-01   1.00800           0
     40776 MEMB     344      POPE     H11Y     HAL2     0.900000E-01   1.00800           0
     40777 MEMB     344      POPE     C312     CTL2    -0.180000       12.0110           0
     40778 MEMB     344      POPE     H12X     HAL2     0.900000E-01   1.00800           0
     40779 MEMB     344      POPE     H12Y     HAL2     0.900000E-01   1.00800           0
     40780 MEMB     344      POPE     C313     CTL2    -0.180000       12.0110           0
     40781 MEMB     344      POPE     H13X     HAL2     0.900000E-01   1.00800           0
     40782 MEMB     344      POPE     H13Y     HAL2     0.900000E-01   1.00800           0
     40783 MEMB     344      POPE     C314     CTL2    -0.180000       12.0110           0
     40784 MEMB     344      POPE     H14X     HAL2     0.900000E-01   1.00800           0
     40785 MEMB     344      POPE     H14Y     HAL2     0.900000E-01   1.00800           0
     40786 MEMB     344      POPE     C315     CTL2    -0.180000       12.0110           0
     40787 MEMB     344      POPE     H15X     HAL2     0.900000E-01   1.00800           0
     40788 MEMB     344      POPE     H15Y     HAL2     0.900000E-01   1.00800           0
     40789 MEMB     344      POPE     C316     CTL3    -0.270000       12.0110           0
     40790 MEMB     344      POPE     H16X     HAL3     0.900000E-01   1.00800           0
     40791 MEMB     344      POPE     H16Y     HAL3     0.900000E-01   1.00800           0
     40792 MEMB     344      POPE     H16Z     HAL3     0.900000E-01   1.00800           0
     40793 MEMB     345      POPC     N        NTL     -0.600000       14.0070           0
     40794 MEMB     345      POPC     C12      CTL2    -0.100000       12.0110           0
     40795 MEMB     345      POPC     H12A     HL       0.250000       1.00800           0
     40796 MEMB     345      POPC     H12B     HL       0.250000       1.00800           0
     40797 MEMB     345      POPC     C13      CTL5    -0.350000       12.0110           0
     40798 MEMB     345      POPC     H13A     HL       0.250000       1.00800           0
     40799 MEMB     345      POPC     H13B     HL       0.250000       1.00800           0
     40800 MEMB     345      POPC     H13C     HL       0.250000       1.00800           0
     40801 MEMB     345      POPC     C14      CTL5    -0.350000       12.0110           0
     40802 MEMB     345      POPC     H14A     HL       0.250000       1.00800           0
     40803 MEMB     345      POPC     H14B     HL       0.250000       1.00800           0
     40804 MEMB     345      POPC     H14C     HL       0.250000       1.00800           0
     40805 MEMB     345      POPC     C15      CTL5    -0.350000       12.0110           0
     40806 MEMB     345      POPC     H15A     HL       0.250000       1.00800           0
     40807 MEMB     345      POPC     H15B     HL       0.250000       1.00800           0
     40808 MEMB     345      POPC     H15C     HL       0.250000       1.00800           0
     40809 MEMB     345      POPC     C11      CTL2    -0.800000E-01   12.0110           0
     40810 MEMB     345      POPC     H11A     HAL2     0.900000E-01   1.00800           0
     40811 MEMB     345      POPC     H11B     HAL2     0.900000E-01   1.00800           0
     40812 MEMB     345      POPC     P        PL        1.50000       30.9740           0
     40813 MEMB     345      POPC     O13      O2L     -0.780000       15.9994           0
     40814 MEMB     345      POPC     O14      O2L     -0.780000       15.9994           0
     40815 MEMB     345      POPC     O12      OSLP    -0.570000       15.9994           0
     40816 MEMB     345      POPC     O11      OSLP    -0.570000       15.9994           0
     40817 MEMB     345      POPC     C1       CTL2    -0.800000E-01   12.0110           0
     40818 MEMB     345      POPC     HA       HAL2     0.900000E-01   1.00800           0
     40819 MEMB     345      POPC     HB       HAL2     0.900000E-01   1.00800           0
     40820 MEMB     345      POPC     C2       CTL1     0.170000       12.0110           0
     40821 MEMB     345      POPC     HS       HAL1     0.900000E-01   1.00800           0
     40822 MEMB     345      POPC     O21      OSL     -0.490000       15.9994           0
     40823 MEMB     345      POPC     C21      CL       0.900000       12.0110           0
     40824 MEMB     345      POPC     O22      OBL     -0.630000       15.9994           0
     40825 MEMB     345      POPC     C22      CTL2    -0.220000       12.0110           0
     40826 MEMB     345      POPC     H2R      HAL2     0.900000E-01   1.00800           0
     40827 MEMB     345      POPC     H2S      HAL2     0.900000E-01   1.00800           0
     40828 MEMB     345      POPC     C3       CTL2     0.800000E-01   12.0110           0
     40829 MEMB     345      POPC     HX       HAL2     0.900000E-01   1.00800           0
     40830 MEMB     345      POPC     HY       HAL2     0.900000E-01   1.00800           0
     40831 MEMB     345      POPC     O31      OSL     -0.490000       15.9994           0
     40832 MEMB     345      POPC     C31      CL       0.900000       12.0110           0
     40833 MEMB     345      POPC     O32      OBL     -0.630000       15.9994           0
     40834 MEMB     345      POPC     C32      CTL2    -0.220000       12.0110           0
     40835 MEMB     345      POPC     H2X      HAL2     0.900000E-01   1.00800           0
     40836 MEMB     345      POPC     H2Y      HAL2     0.900000E-01   1.00800           0
     40837 MEMB     345      POPC     C23      CTL2    -0.180000       12.0110           0
     40838 MEMB     345      POPC     H3R      HAL2     0.900000E-01   1.00800           0
     40839 MEMB     345      POPC     H3S      HAL2     0.900000E-01   1.00800           0
     40840 MEMB     345      POPC     C24      CTL2    -0.180000       12.0110           0
     40841 MEMB     345      POPC     H4R      HAL2     0.900000E-01   1.00800           0
     40842 MEMB     345      POPC     H4S      HAL2     0.900000E-01   1.00800           0
     40843 MEMB     345      POPC     C25      CTL2    -0.180000       12.0110           0
     40844 MEMB     345      POPC     H5R      HAL2     0.900000E-01   1.00800           0
     40845 MEMB     345      POPC     H5S      HAL2     0.900000E-01   1.00800           0
     40846 MEMB     345      POPC     C26      CTL2    -0.180000       12.0110           0
     40847 MEMB     345      POPC     H6R      HAL2     0.900000E-01   1.00800           0
     40848 MEMB     345      POPC     H6S      HAL2     0.900000E-01   1.00800           0
     40849 MEMB     345      POPC     C27      CTL2    -0.180000       12.0110           0
     40850 MEMB     345      POPC     H7R      HAL2     0.900000E-01   1.00800           0
     40851 MEMB     345      POPC     H7S      HAL2     0.900000E-01   1.00800           0
     40852 MEMB     345      POPC     C28      CTL2    -0.180000       12.0110           0
     40853 MEMB     345      POPC     H8R      HAL2     0.900000E-01   1.00800           0
     40854 MEMB     345      POPC     H8S      HAL2     0.900000E-01   1.00800           0
     40855 MEMB     345      POPC     C29      CEL1    -0.150000       12.0110           0
     40856 MEMB     345      POPC     H91      HEL1     0.150000       1.00800           0
     40857 MEMB     345      POPC     C210     CEL1    -0.150000       12.0110           0
     40858 MEMB     345      POPC     H101     HEL1     0.150000       1.00800           0
     40859 MEMB     345      POPC     C211     CTL2    -0.180000       12.0110           0
     40860 MEMB     345      POPC     H11R     HAL2     0.900000E-01   1.00800           0
     40861 MEMB     345      POPC     H11S     HAL2     0.900000E-01   1.00800           0
     40862 MEMB     345      POPC     C212     CTL2    -0.180000       12.0110           0
     40863 MEMB     345      POPC     H12R     HAL2     0.900000E-01   1.00800           0
     40864 MEMB     345      POPC     H12S     HAL2     0.900000E-01   1.00800           0
     40865 MEMB     345      POPC     C213     CTL2    -0.180000       12.0110           0
     40866 MEMB     345      POPC     H13R     HAL2     0.900000E-01   1.00800           0
     40867 MEMB     345      POPC     H13S     HAL2     0.900000E-01   1.00800           0
     40868 MEMB     345      POPC     C214     CTL2    -0.180000       12.0110           0
     40869 MEMB     345      POPC     H14R     HAL2     0.900000E-01   1.00800           0
     40870 MEMB     345      POPC     H14S     HAL2     0.900000E-01   1.00800           0
     40871 MEMB     345      POPC     C215     CTL2    -0.180000       12.0110           0
     40872 MEMB     345      POPC     H15R     HAL2     0.900000E-01   1.00800           0
     40873 MEMB     345      POPC     H15S     HAL2     0.900000E-01   1.00800           0
     40874 MEMB     345      POPC     C216     CTL2    -0.180000       12.0110           0
     40875 MEMB     345      POPC     H16R     HAL2     0.900000E-01   1.00800           0
     40876 MEMB     345      POPC     H16S     HAL2     0.900000E-01   1.00800           0
     40877 MEMB     345      POPC     C217     CTL2    -0.180000       12.0110           0
     40878 MEMB     345      POPC     H17R     HAL2     0.900000E-01   1.00800           0
     40879 MEMB     345      POPC     H17S     HAL2     0.900000E-01   1.00800           0
     40880 MEMB     345      POPC     C218     CTL3    -0.270000       12.0110           0
     40881 MEMB     345      POPC     H18R     HAL3     0.900000E-01   1.00800           0
     40882 MEMB     345      POPC     H18S     HAL3     0.900000E-01   1.00800           0
     40883 MEMB     345      POPC     H18T     HAL3     0.900000E-01   1.00800           0
     40884 MEMB     345      POPC     C33      CTL2    -0.180000       12.0110           0
     40885 MEMB     345      POPC     H3X      HAL2     0.900000E-01   1.00800           0
     40886 MEMB     345      POPC     H3Y      HAL2     0.900000E-01   1.00800           0
     40887 MEMB     345      POPC     C34      CTL2    -0.180000       12.0110           0
     40888 MEMB     345      POPC     H4X      HAL2     0.900000E-01   1.00800           0
     40889 MEMB     345      POPC     H4Y      HAL2     0.900000E-01   1.00800           0
     40890 MEMB     345      POPC     C35      CTL2    -0.180000       12.0110           0
     40891 MEMB     345      POPC     H5X      HAL2     0.900000E-01   1.00800           0
     40892 MEMB     345      POPC     H5Y      HAL2     0.900000E-01   1.00800           0
     40893 MEMB     345      POPC     C36      CTL2    -0.180000       12.0110           0
     40894 MEMB     345      POPC     H6X      HAL2     0.900000E-01   1.00800           0
     40895 MEMB     345      POPC     H6Y      HAL2     0.900000E-01   1.00800           0
     40896 MEMB     345      POPC     C37      CTL2    -0.180000       12.0110           0
     40897 MEMB     345      POPC     H7X      HAL2     0.900000E-01   1.00800           0
     40898 MEMB     345      POPC     H7Y      HAL2     0.900000E-01   1.00800           0
     40899 MEMB     345      POPC     C38      CTL2    -0.180000       12.0110           0
     40900 MEMB     345      POPC     H8X      HAL2     0.900000E-01   1.00800           0
     40901 MEMB     345      POPC     H8Y      HAL2     0.900000E-01   1.00800           0
     40902 MEMB     345      POPC     C39      CTL2    -0.180000       12.0110           0
     40903 MEMB     345      POPC     H9X      HAL2     0.900000E-01   1.00800           0
     40904 MEMB     345      POPC     H9Y      HAL2     0.900000E-01   1.00800           0
     40905 MEMB     345      POPC     C310     CTL2    -0.180000       12.0110           0
     40906 MEMB     345      POPC     H10X     HAL2     0.900000E-01   1.00800           0
     40907 MEMB     345      POPC     H10Y     HAL2     0.900000E-01   1.00800           0
     40908 MEMB     345      POPC     C311     CTL2    -0.180000       12.0110           0
     40909 MEMB     345      POPC     H11X     HAL2     0.900000E-01   1.00800           0
     40910 MEMB     345      POPC     H11Y     HAL2     0.900000E-01   1.00800           0
     40911 MEMB     345      POPC     C312     CTL2    -0.180000       12.0110           0
     40912 MEMB     345      POPC     H12X     HAL2     0.900000E-01   1.00800           0
     40913 MEMB     345      POPC     H12Y     HAL2     0.900000E-01   1.00800           0
     40914 MEMB     345      POPC     C313     CTL2    -0.180000       12.0110           0
     40915 MEMB     345      POPC     H13X     HAL2     0.900000E-01   1.00800           0
     40916 MEMB     345      POPC     H13Y     HAL2     0.900000E-01   1.00800           0
     40917 MEMB     345      POPC     C314     CTL2    -0.180000       12.0110           0
     40918 MEMB     345      POPC     H14X     HAL2     0.900000E-01   1.00800           0
     40919 MEMB     345      POPC     H14Y     HAL2     0.900000E-01   1.00800           0
     40920 MEMB     345      POPC     C315     CTL2    -0.180000       12.0110           0
     40921 MEMB     345      POPC     H15X     HAL2     0.900000E-01   1.00800           0
     40922 MEMB     345      POPC     H15Y     HAL2     0.900000E-01   1.00800           0
     40923 MEMB     345      POPC     C316     CTL3    -0.270000       12.0110           0
     40924 MEMB     345      POPC     H16X     HAL3     0.900000E-01   1.00800           0
     40925 MEMB     345      POPC     H16Y     HAL3     0.900000E-01   1.00800           0
     40926 MEMB     345      POPC     H16Z     HAL3     0.900000E-01   1.00800           0
     40927 MEMB     346      POPC     N        NTL     -0.600000       14.0070           0
     40928 MEMB     346      POPC     C12      CTL2    -0.100000       12.0110           0
     40929 MEMB     346      POPC     H12A     HL       0.250000       1.00800           0
     40930 MEMB     346      POPC     H12B     HL       0.250000       1.00800           0
     40931 MEMB     346      POPC     C13      CTL5    -0.350000       12.0110           0
     40932 MEMB     346      POPC     H13A     HL       0.250000       1.00800           0
     40933 MEMB     346      POPC     H13B     HL       0.250000       1.00800           0
     40934 MEMB     346      POPC     H13C     HL       0.250000       1.00800           0
     40935 MEMB     346      POPC     C14      CTL5    -0.350000       12.0110           0
     40936 MEMB     346      POPC     H14A     HL       0.250000       1.00800           0
     40937 MEMB     346      POPC     H14B     HL       0.250000       1.00800           0
     40938 MEMB     346      POPC     H14C     HL       0.250000       1.00800           0
     40939 MEMB     346      POPC     C15      CTL5    -0.350000       12.0110           0
     40940 MEMB     346      POPC     H15A     HL       0.250000       1.00800           0
     40941 MEMB     346      POPC     H15B     HL       0.250000       1.00800           0
     40942 MEMB     346      POPC     H15C     HL       0.250000       1.00800           0
     40943 MEMB     346      POPC     C11      CTL2    -0.800000E-01   12.0110           0
     40944 MEMB     346      POPC     H11A     HAL2     0.900000E-01   1.00800           0
     40945 MEMB     346      POPC     H11B     HAL2     0.900000E-01   1.00800           0
     40946 MEMB     346      POPC     P        PL        1.50000       30.9740           0
     40947 MEMB     346      POPC     O13      O2L     -0.780000       15.9994           0
     40948 MEMB     346      POPC     O14      O2L     -0.780000       15.9994           0
     40949 MEMB     346      POPC     O12      OSLP    -0.570000       15.9994           0
     40950 MEMB     346      POPC     O11      OSLP    -0.570000       15.9994           0
     40951 MEMB     346      POPC     C1       CTL2    -0.800000E-01   12.0110           0
     40952 MEMB     346      POPC     HA       HAL2     0.900000E-01   1.00800           0
     40953 MEMB     346      POPC     HB       HAL2     0.900000E-01   1.00800           0
     40954 MEMB     346      POPC     C2       CTL1     0.170000       12.0110           0
     40955 MEMB     346      POPC     HS       HAL1     0.900000E-01   1.00800           0
     40956 MEMB     346      POPC     O21      OSL     -0.490000       15.9994           0
     40957 MEMB     346      POPC     C21      CL       0.900000       12.0110           0
     40958 MEMB     346      POPC     O22      OBL     -0.630000       15.9994           0
     40959 MEMB     346      POPC     C22      CTL2    -0.220000       12.0110           0
     40960 MEMB     346      POPC     H2R      HAL2     0.900000E-01   1.00800           0
     40961 MEMB     346      POPC     H2S      HAL2     0.900000E-01   1.00800           0
     40962 MEMB     346      POPC     C3       CTL2     0.800000E-01   12.0110           0
     40963 MEMB     346      POPC     HX       HAL2     0.900000E-01   1.00800           0
     40964 MEMB     346      POPC     HY       HAL2     0.900000E-01   1.00800           0
     40965 MEMB     346      POPC     O31      OSL     -0.490000       15.9994           0
     40966 MEMB     346      POPC     C31      CL       0.900000       12.0110           0
     40967 MEMB     346      POPC     O32      OBL     -0.630000       15.9994           0
     40968 MEMB     346      POPC     C32      CTL2    -0.220000       12.0110           0
     40969 MEMB     346      POPC     H2X      HAL2     0.900000E-01   1.00800           0
     40970 MEMB     346      POPC     H2Y      HAL2     0.900000E-01   1.00800           0
     40971 MEMB     346      POPC     C23      CTL2    -0.180000       12.0110           0
     40972 MEMB     346      POPC     H3R      HAL2     0.900000E-01   1.00800           0
     40973 MEMB     346      POPC     H3S      HAL2     0.900000E-01   1.00800           0
     40974 MEMB     346      POPC     C24      CTL2    -0.180000       12.0110           0
     40975 MEMB     346      POPC     H4R      HAL2     0.900000E-01   1.00800           0
     40976 MEMB     346      POPC     H4S      HAL2     0.900000E-01   1.00800           0
     40977 MEMB     346      POPC     C25      CTL2    -0.180000       12.0110           0
     40978 MEMB     346      POPC     H5R      HAL2     0.900000E-01   1.00800           0
     40979 MEMB     346      POPC     H5S      HAL2     0.900000E-01   1.00800           0
     40980 MEMB     346      POPC     C26      CTL2    -0.180000       12.0110           0
     40981 MEMB     346      POPC     H6R      HAL2     0.900000E-01   1.00800           0
     40982 MEMB     346      POPC     H6S      HAL2     0.900000E-01   1.00800           0
     40983 MEMB     346      POPC     C27      CTL2    -0.180000       12.0110           0
     40984 MEMB     346      POPC     H7R      HAL2     0.900000E-01   1.00800           0
     40985 MEMB     346      POPC     H7S      HAL2     0.900000E-01   1.00800           0
     40986 MEMB     346      POPC     C28      CTL2    -0.180000       12.0110           0
     40987 MEMB     346      POPC     H8R      HAL2     0.900000E-01   1.00800           0
     40988 MEMB     346      POPC     H8S      HAL2     0.900000E-01   1.00800           0
     40989 MEMB     346      POPC     C29      CEL1    -0.150000       12.0110           0
     40990 MEMB     346      POPC     H91      HEL1     0.150000       1.00800           0
     40991 MEMB     346      POPC     C210     CEL1    -0.150000       12.0110           0
     40992 MEMB     346      POPC     H101     HEL1     0.150000       1.00800           0
     40993 MEMB     346      POPC     C211     CTL2    -0.180000       12.0110           0
     40994 MEMB     346      POPC     H11R     HAL2     0.900000E-01   1.00800           0
     40995 MEMB     346      POPC     H11S     HAL2     0.900000E-01   1.00800           0
     40996 MEMB     346      POPC     C212     CTL2    -0.180000       12.0110           0
     40997 MEMB     346      POPC     H12R     HAL2     0.900000E-01   1.00800           0
     40998 MEMB     346      POPC     H12S     HAL2     0.900000E-01   1.00800           0
     40999 MEMB     346      POPC     C213     CTL2    -0.180000       12.0110           0
     41000 MEMB     346      POPC     H13R     HAL2     0.900000E-01   1.00800           0
     41001 MEMB     346      POPC     H13S     HAL2     0.900000E-01   1.00800           0
     41002 MEMB     346      POPC     C214     CTL2    -0.180000       12.0110           0
     41003 MEMB     346      POPC     H14R     HAL2     0.900000E-01   1.00800           0
     41004 MEMB     346      POPC     H14S     HAL2     0.900000E-01   1.00800           0
     41005 MEMB     346      POPC     C215     CTL2    -0.180000       12.0110           0
     41006 MEMB     346      POPC     H15R     HAL2     0.900000E-01   1.00800           0
     41007 MEMB     346      POPC     H15S     HAL2     0.900000E-01   1.00800           0
     41008 MEMB     346      POPC     C216     CTL2    -0.180000       12.0110           0
     41009 MEMB     346      POPC     H16R     HAL2     0.900000E-01   1.00800           0
     41010 MEMB     346      POPC     H16S     HAL2     0.900000E-01   1.00800           0
     41011 MEMB     346      POPC     C217     CTL2    -0.180000       12.0110           0
     41012 MEMB     346      POPC     H17R     HAL2     0.900000E-01   1.00800           0
     41013 MEMB     346      POPC     H17S     HAL2     0.900000E-01   1.00800           0
     41014 MEMB     346      POPC     C218     CTL3    -0.270000       12.0110           0
     41015 MEMB     346      POPC     H18R     HAL3     0.900000E-01   1.00800           0
     41016 MEMB     346      POPC     H18S     HAL3     0.900000E-01   1.00800           0
     41017 MEMB     346      POPC     H18T     HAL3     0.900000E-01   1.00800           0
     41018 MEMB     346      POPC     C33      CTL2    -0.180000       12.0110           0
     41019 MEMB     346      POPC     H3X      HAL2     0.900000E-01   1.00800           0
     41020 MEMB     346      POPC     H3Y      HAL2     0.900000E-01   1.00800           0
     41021 MEMB     346      POPC     C34      CTL2    -0.180000       12.0110           0
     41022 MEMB     346      POPC     H4X      HAL2     0.900000E-01   1.00800           0
     41023 MEMB     346      POPC     H4Y      HAL2     0.900000E-01   1.00800           0
     41024 MEMB     346      POPC     C35      CTL2    -0.180000       12.0110           0
     41025 MEMB     346      POPC     H5X      HAL2     0.900000E-01   1.00800           0
     41026 MEMB     346      POPC     H5Y      HAL2     0.900000E-01   1.00800           0
     41027 MEMB     346      POPC     C36      CTL2    -0.180000       12.0110           0
     41028 MEMB     346      POPC     H6X      HAL2     0.900000E-01   1.00800           0
     41029 MEMB     346      POPC     H6Y      HAL2     0.900000E-01   1.00800           0
     41030 MEMB     346      POPC     C37      CTL2    -0.180000       12.0110           0
     41031 MEMB     346      POPC     H7X      HAL2     0.900000E-01   1.00800           0
     41032 MEMB     346      POPC     H7Y      HAL2     0.900000E-01   1.00800           0
     41033 MEMB     346      POPC     C38      CTL2    -0.180000       12.0110           0
     41034 MEMB     346      POPC     H8X      HAL2     0.900000E-01   1.00800           0
     41035 MEMB     346      POPC     H8Y      HAL2     0.900000E-01   1.00800           0
     41036 MEMB     346      POPC     C39      CTL2    -0.180000       12.0110           0
     41037 MEMB     346      POPC     H9X      HAL2     0.900000E-01   1.00800           0
     41038 MEMB     346      POPC     H9Y      HAL2     0.900000E-01   1.00800           0
     41039 MEMB     346      POPC     C310     CTL2    -0.180000       12.0110           0
     41040 MEMB     346      POPC     H10X     HAL2     0.900000E-01   1.00800           0
     41041 MEMB     346      POPC     H10Y     HAL2     0.900000E-01   1.00800           0
     41042 MEMB     346      POPC     C311     CTL2    -0.180000       12.0110           0
     41043 MEMB     346      POPC     H11X     HAL2     0.900000E-01   1.00800           0
     41044 MEMB     346      POPC     H11Y     HAL2     0.900000E-01   1.00800           0
     41045 MEMB     346      POPC     C312     CTL2    -0.180000       12.0110           0
     41046 MEMB     346      POPC     H12X     HAL2     0.900000E-01   1.00800           0
     41047 MEMB     346      POPC     H12Y     HAL2     0.900000E-01   1.00800           0
     41048 MEMB     346      POPC     C313     CTL2    -0.180000       12.0110           0
     41049 MEMB     346      POPC     H13X     HAL2     0.900000E-01   1.00800           0
     41050 MEMB     346      POPC     H13Y     HAL2     0.900000E-01   1.00800           0
     41051 MEMB     346      POPC     C314     CTL2    -0.180000       12.0110           0
     41052 MEMB     346      POPC     H14X     HAL2     0.900000E-01   1.00800           0
     41053 MEMB     346      POPC     H14Y     HAL2     0.900000E-01   1.00800           0
     41054 MEMB     346      POPC     C315     CTL2    -0.180000       12.0110           0
     41055 MEMB     346      POPC     H15X     HAL2     0.900000E-01   1.00800           0
     41056 MEMB     346      POPC     H15Y     HAL2     0.900000E-01   1.00800           0
     41057 MEMB     346      POPC     C316     CTL3    -0.270000       12.0110           0
     41058 MEMB     346      POPC     H16X     HAL3     0.900000E-01   1.00800           0
     41059 MEMB     346      POPC     H16Y     HAL3     0.900000E-01   1.00800           0
     41060 MEMB     346      POPC     H16Z     HAL3     0.900000E-01   1.00800           0
     41061 MEMB     347      POPE     N        NH3L    -0.300000       14.0070           0
     41062 MEMB     347      POPE     HN1      HCL      0.330000       1.00800           0
     41063 MEMB     347      POPE     HN2      HCL      0.330000       1.00800           0
     41064 MEMB     347      POPE     HN3      HCL      0.330000       1.00800           0
     41065 MEMB     347      POPE     C12      CTL2     0.130000       12.0110           0
     41066 MEMB     347      POPE     H12A     HAL2     0.900000E-01   1.00800           0
     41067 MEMB     347      POPE     H12B     HAL2     0.900000E-01   1.00800           0
     41068 MEMB     347      POPE     C11      CTL2    -0.800000E-01   12.0110           0
     41069 MEMB     347      POPE     H11A     HAL2     0.900000E-01   1.00800           0
     41070 MEMB     347      POPE     H11B     HAL2     0.900000E-01   1.00800           0
     41071 MEMB     347      POPE     P        PL        1.50000       30.9740           0
     41072 MEMB     347      POPE     O13      O2L     -0.780000       15.9994           0
     41073 MEMB     347      POPE     O14      O2L     -0.780000       15.9994           0
     41074 MEMB     347      POPE     O11      OSLP    -0.570000       15.9994           0
     41075 MEMB     347      POPE     O12      OSLP    -0.570000       15.9994           0
     41076 MEMB     347      POPE     C1       CTL2    -0.800000E-01   12.0110           0
     41077 MEMB     347      POPE     HA       HAL2     0.900000E-01   1.00800           0
     41078 MEMB     347      POPE     HB       HAL2     0.900000E-01   1.00800           0
     41079 MEMB     347      POPE     C2       CTL1     0.170000       12.0110           0
     41080 MEMB     347      POPE     HS       HAL1     0.900000E-01   1.00800           0
     41081 MEMB     347      POPE     O21      OSL     -0.490000       15.9994           0
     41082 MEMB     347      POPE     C21      CL       0.900000       12.0110           0
     41083 MEMB     347      POPE     O22      OBL     -0.630000       15.9994           0
     41084 MEMB     347      POPE     C22      CTL2    -0.220000       12.0110           0
     41085 MEMB     347      POPE     H2R      HAL2     0.900000E-01   1.00800           0
     41086 MEMB     347      POPE     H2S      HAL2     0.900000E-01   1.00800           0
     41087 MEMB     347      POPE     C3       CTL2     0.800000E-01   12.0110           0
     41088 MEMB     347      POPE     HX       HAL2     0.900000E-01   1.00800           0
     41089 MEMB     347      POPE     HY       HAL2     0.900000E-01   1.00800           0
     41090 MEMB     347      POPE     O31      OSL     -0.490000       15.9994           0
     41091 MEMB     347      POPE     C31      CL       0.900000       12.0110           0
     41092 MEMB     347      POPE     O32      OBL     -0.630000       15.9994           0
     41093 MEMB     347      POPE     C32      CTL2    -0.220000       12.0110           0
     41094 MEMB     347      POPE     H2X      HAL2     0.900000E-01   1.00800           0
     41095 MEMB     347      POPE     H2Y      HAL2     0.900000E-01   1.00800           0
     41096 MEMB     347      POPE     C23      CTL2    -0.180000       12.0110           0
     41097 MEMB     347      POPE     H3R      HAL2     0.900000E-01   1.00800           0
     41098 MEMB     347      POPE     H3S      HAL2     0.900000E-01   1.00800           0
     41099 MEMB     347      POPE     C24      CTL2    -0.180000       12.0110           0
     41100 MEMB     347      POPE     H4R      HAL2     0.900000E-01   1.00800           0
     41101 MEMB     347      POPE     H4S      HAL2     0.900000E-01   1.00800           0
     41102 MEMB     347      POPE     C25      CTL2    -0.180000       12.0110           0
     41103 MEMB     347      POPE     H5R      HAL2     0.900000E-01   1.00800           0
     41104 MEMB     347      POPE     H5S      HAL2     0.900000E-01   1.00800           0
     41105 MEMB     347      POPE     C26      CTL2    -0.180000       12.0110           0
     41106 MEMB     347      POPE     H6R      HAL2     0.900000E-01   1.00800           0
     41107 MEMB     347      POPE     H6S      HAL2     0.900000E-01   1.00800           0
     41108 MEMB     347      POPE     C27      CTL2    -0.180000       12.0110           0
     41109 MEMB     347      POPE     H7R      HAL2     0.900000E-01   1.00800           0
     41110 MEMB     347      POPE     H7S      HAL2     0.900000E-01   1.00800           0
     41111 MEMB     347      POPE     C28      CTL2    -0.180000       12.0110           0
     41112 MEMB     347      POPE     H8R      HAL2     0.900000E-01   1.00800           0
     41113 MEMB     347      POPE     H8S      HAL2     0.900000E-01   1.00800           0
     41114 MEMB     347      POPE     C29      CEL1    -0.150000       12.0110           0
     41115 MEMB     347      POPE     H91      HEL1     0.150000       1.00800           0
     41116 MEMB     347      POPE     C210     CEL1    -0.150000       12.0110           0
     41117 MEMB     347      POPE     H101     HEL1     0.150000       1.00800           0
     41118 MEMB     347      POPE     C211     CTL2    -0.180000       12.0110           0
     41119 MEMB     347      POPE     H11R     HAL2     0.900000E-01   1.00800           0
     41120 MEMB     347      POPE     H11S     HAL2     0.900000E-01   1.00800           0
     41121 MEMB     347      POPE     C212     CTL2    -0.180000       12.0110           0
     41122 MEMB     347      POPE     H12R     HAL2     0.900000E-01   1.00800           0
     41123 MEMB     347      POPE     H12S     HAL2     0.900000E-01   1.00800           0
     41124 MEMB     347      POPE     C213     CTL2    -0.180000       12.0110           0
     41125 MEMB     347      POPE     H13R     HAL2     0.900000E-01   1.00800           0
     41126 MEMB     347      POPE     H13S     HAL2     0.900000E-01   1.00800           0
     41127 MEMB     347      POPE     C214     CTL2    -0.180000       12.0110           0
     41128 MEMB     347      POPE     H14R     HAL2     0.900000E-01   1.00800           0
     41129 MEMB     347      POPE     H14S     HAL2     0.900000E-01   1.00800           0
     41130 MEMB     347      POPE     C215     CTL2    -0.180000       12.0110           0
     41131 MEMB     347      POPE     H15R     HAL2     0.900000E-01   1.00800           0
     41132 MEMB     347      POPE     H15S     HAL2     0.900000E-01   1.00800           0
     41133 MEMB     347      POPE     C216     CTL2    -0.180000       12.0110           0
     41134 MEMB     347      POPE     H16R     HAL2     0.900000E-01   1.00800           0
     41135 MEMB     347      POPE     H16S     HAL2     0.900000E-01   1.00800           0
     41136 MEMB     347      POPE     C217     CTL2    -0.180000       12.0110           0
     41137 MEMB     347      POPE     H17R     HAL2     0.900000E-01   1.00800           0
     41138 MEMB     347      POPE     H17S     HAL2     0.900000E-01   1.00800           0
     41139 MEMB     347      POPE     C218     CTL3    -0.270000       12.0110           0
     41140 MEMB     347      POPE     H18R     HAL3     0.900000E-01   1.00800           0
     41141 MEMB     347      POPE     H18S     HAL3     0.900000E-01   1.00800           0
     41142 MEMB     347      POPE     H18T     HAL3     0.900000E-01   1.00800           0
     41143 MEMB     347      POPE     C33      CTL2    -0.180000       12.0110           0
     41144 MEMB     347      POPE     H3X      HAL2     0.900000E-01   1.00800           0
     41145 MEMB     347      POPE     H3Y      HAL2     0.900000E-01   1.00800           0
     41146 MEMB     347      POPE     C34      CTL2    -0.180000       12.0110           0
     41147 MEMB     347      POPE     H4X      HAL2     0.900000E-01   1.00800           0
     41148 MEMB     347      POPE     H4Y      HAL2     0.900000E-01   1.00800           0
     41149 MEMB     347      POPE     C35      CTL2    -0.180000       12.0110           0
     41150 MEMB     347      POPE     H5X      HAL2     0.900000E-01   1.00800           0
     41151 MEMB     347      POPE     H5Y      HAL2     0.900000E-01   1.00800           0
     41152 MEMB     347      POPE     C36      CTL2    -0.180000       12.0110           0
     41153 MEMB     347      POPE     H6X      HAL2     0.900000E-01   1.00800           0
     41154 MEMB     347      POPE     H6Y      HAL2     0.900000E-01   1.00800           0
     41155 MEMB     347      POPE     C37      CTL2    -0.180000       12.0110           0
     41156 MEMB     347      POPE     H7X      HAL2     0.900000E-01   1.00800           0
     41157 MEMB     347      POPE     H7Y      HAL2     0.900000E-01   1.00800           0
     41158 MEMB     347      POPE     C38      CTL2    -0.180000       12.0110           0
     41159 MEMB     347      POPE     H8X      HAL2     0.900000E-01   1.00800           0
     41160 MEMB     347      POPE     H8Y      HAL2     0.900000E-01   1.00800           0
     41161 MEMB     347      POPE     C39      CTL2    -0.180000       12.0110           0
     41162 MEMB     347      POPE     H9X      HAL2     0.900000E-01   1.00800           0
     41163 MEMB     347      POPE     H9Y      HAL2     0.900000E-01   1.00800           0
     41164 MEMB     347      POPE     C310     CTL2    -0.180000       12.0110           0
     41165 MEMB     347      POPE     H10X     HAL2     0.900000E-01   1.00800           0
     41166 MEMB     347      POPE     H10Y     HAL2     0.900000E-01   1.00800           0
     41167 MEMB     347      POPE     C311     CTL2    -0.180000       12.0110           0
     41168 MEMB     347      POPE     H11X     HAL2     0.900000E-01   1.00800           0
     41169 MEMB     347      POPE     H11Y     HAL2     0.900000E-01   1.00800           0
     41170 MEMB     347      POPE     C312     CTL2    -0.180000       12.0110           0
     41171 MEMB     347      POPE     H12X     HAL2     0.900000E-01   1.00800           0
     41172 MEMB     347      POPE     H12Y     HAL2     0.900000E-01   1.00800           0
     41173 MEMB     347      POPE     C313     CTL2    -0.180000       12.0110           0
     41174 MEMB     347      POPE     H13X     HAL2     0.900000E-01   1.00800           0
     41175 MEMB     347      POPE     H13Y     HAL2     0.900000E-01   1.00800           0
     41176 MEMB     347      POPE     C314     CTL2    -0.180000       12.0110           0
     41177 MEMB     347      POPE     H14X     HAL2     0.900000E-01   1.00800           0
     41178 MEMB     347      POPE     H14Y     HAL2     0.900000E-01   1.00800           0
     41179 MEMB     347      POPE     C315     CTL2    -0.180000       12.0110           0
     41180 MEMB     347      POPE     H15X     HAL2     0.900000E-01   1.00800           0
     41181 MEMB     347      POPE     H15Y     HAL2     0.900000E-01   1.00800           0
     41182 MEMB     347      POPE     C316     CTL3    -0.270000       12.0110           0
     41183 MEMB     347      POPE     H16X     HAL3     0.900000E-01   1.00800           0
     41184 MEMB     347      POPE     H16Y     HAL3     0.900000E-01   1.00800           0
     41185 MEMB     347      POPE     H16Z     HAL3     0.900000E-01   1.00800           0
     41186 MEMB     348      POPC     N        NTL     -0.600000       14.0070           0
     41187 MEMB     348      POPC     C12      CTL2    -0.100000       12.0110           0
     41188 MEMB     348      POPC     H12A     HL       0.250000       1.00800           0
     41189 MEMB     348      POPC     H12B     HL       0.250000       1.00800           0
     41190 MEMB     348      POPC     C13      CTL5    -0.350000       12.0110           0
     41191 MEMB     348      POPC     H13A     HL       0.250000       1.00800           0
     41192 MEMB     348      POPC     H13B     HL       0.250000       1.00800           0
     41193 MEMB     348      POPC     H13C     HL       0.250000       1.00800           0
     41194 MEMB     348      POPC     C14      CTL5    -0.350000       12.0110           0
     41195 MEMB     348      POPC     H14A     HL       0.250000       1.00800           0
     41196 MEMB     348      POPC     H14B     HL       0.250000       1.00800           0
     41197 MEMB     348      POPC     H14C     HL       0.250000       1.00800           0
     41198 MEMB     348      POPC     C15      CTL5    -0.350000       12.0110           0
     41199 MEMB     348      POPC     H15A     HL       0.250000       1.00800           0
     41200 MEMB     348      POPC     H15B     HL       0.250000       1.00800           0
     41201 MEMB     348      POPC     H15C     HL       0.250000       1.00800           0
     41202 MEMB     348      POPC     C11      CTL2    -0.800000E-01   12.0110           0
     41203 MEMB     348      POPC     H11A     HAL2     0.900000E-01   1.00800           0
     41204 MEMB     348      POPC     H11B     HAL2     0.900000E-01   1.00800           0
     41205 MEMB     348      POPC     P        PL        1.50000       30.9740           0
     41206 MEMB     348      POPC     O13      O2L     -0.780000       15.9994           0
     41207 MEMB     348      POPC     O14      O2L     -0.780000       15.9994           0
     41208 MEMB     348      POPC     O12      OSLP    -0.570000       15.9994           0
     41209 MEMB     348      POPC     O11      OSLP    -0.570000       15.9994           0
     41210 MEMB     348      POPC     C1       CTL2    -0.800000E-01   12.0110           0
     41211 MEMB     348      POPC     HA       HAL2     0.900000E-01   1.00800           0
     41212 MEMB     348      POPC     HB       HAL2     0.900000E-01   1.00800           0
     41213 MEMB     348      POPC     C2       CTL1     0.170000       12.0110           0
     41214 MEMB     348      POPC     HS       HAL1     0.900000E-01   1.00800           0
     41215 MEMB     348      POPC     O21      OSL     -0.490000       15.9994           0
     41216 MEMB     348      POPC     C21      CL       0.900000       12.0110           0
     41217 MEMB     348      POPC     O22      OBL     -0.630000       15.9994           0
     41218 MEMB     348      POPC     C22      CTL2    -0.220000       12.0110           0
     41219 MEMB     348      POPC     H2R      HAL2     0.900000E-01   1.00800           0
     41220 MEMB     348      POPC     H2S      HAL2     0.900000E-01   1.00800           0
     41221 MEMB     348      POPC     C3       CTL2     0.800000E-01   12.0110           0
     41222 MEMB     348      POPC     HX       HAL2     0.900000E-01   1.00800           0
     41223 MEMB     348      POPC     HY       HAL2     0.900000E-01   1.00800           0
     41224 MEMB     348      POPC     O31      OSL     -0.490000       15.9994           0
     41225 MEMB     348      POPC     C31      CL       0.900000       12.0110           0
     41226 MEMB     348      POPC     O32      OBL     -0.630000       15.9994           0
     41227 MEMB     348      POPC     C32      CTL2    -0.220000       12.0110           0
     41228 MEMB     348      POPC     H2X      HAL2     0.900000E-01   1.00800           0
     41229 MEMB     348      POPC     H2Y      HAL2     0.900000E-01   1.00800           0
     41230 MEMB     348      POPC     C23      CTL2    -0.180000       12.0110           0
     41231 MEMB     348      POPC     H3R      HAL2     0.900000E-01   1.00800           0
     41232 MEMB     348      POPC     H3S      HAL2     0.900000E-01   1.00800           0
     41233 MEMB     348      POPC     C24      CTL2    -0.180000       12.0110           0
     41234 MEMB     348      POPC     H4R      HAL2     0.900000E-01   1.00800           0
     41235 MEMB     348      POPC     H4S      HAL2     0.900000E-01   1.00800           0
     41236 MEMB     348      POPC     C25      CTL2    -0.180000       12.0110           0
     41237 MEMB     348      POPC     H5R      HAL2     0.900000E-01   1.00800           0
     41238 MEMB     348      POPC     H5S      HAL2     0.900000E-01   1.00800           0
     41239 MEMB     348      POPC     C26      CTL2    -0.180000       12.0110           0
     41240 MEMB     348      POPC     H6R      HAL2     0.900000E-01   1.00800           0
     41241 MEMB     348      POPC     H6S      HAL2     0.900000E-01   1.00800           0
     41242 MEMB     348      POPC     C27      CTL2    -0.180000       12.0110           0
     41243 MEMB     348      POPC     H7R      HAL2     0.900000E-01   1.00800           0
     41244 MEMB     348      POPC     H7S      HAL2     0.900000E-01   1.00800           0
     41245 MEMB     348      POPC     C28      CTL2    -0.180000       12.0110           0
     41246 MEMB     348      POPC     H8R      HAL2     0.900000E-01   1.00800           0
     41247 MEMB     348      POPC     H8S      HAL2     0.900000E-01   1.00800           0
     41248 MEMB     348      POPC     C29      CEL1    -0.150000       12.0110           0
     41249 MEMB     348      POPC     H91      HEL1     0.150000       1.00800           0
     41250 MEMB     348      POPC     C210     CEL1    -0.150000       12.0110           0
     41251 MEMB     348      POPC     H101     HEL1     0.150000       1.00800           0
     41252 MEMB     348      POPC     C211     CTL2    -0.180000       12.0110           0
     41253 MEMB     348      POPC     H11R     HAL2     0.900000E-01   1.00800           0
     41254 MEMB     348      POPC     H11S     HAL2     0.900000E-01   1.00800           0
     41255 MEMB     348      POPC     C212     CTL2    -0.180000       12.0110           0
     41256 MEMB     348      POPC     H12R     HAL2     0.900000E-01   1.00800           0
     41257 MEMB     348      POPC     H12S     HAL2     0.900000E-01   1.00800           0
     41258 MEMB     348      POPC     C213     CTL2    -0.180000       12.0110           0
     41259 MEMB     348      POPC     H13R     HAL2     0.900000E-01   1.00800           0
     41260 MEMB     348      POPC     H13S     HAL2     0.900000E-01   1.00800           0
     41261 MEMB     348      POPC     C214     CTL2    -0.180000       12.0110           0
     41262 MEMB     348      POPC     H14R     HAL2     0.900000E-01   1.00800           0
     41263 MEMB     348      POPC     H14S     HAL2     0.900000E-01   1.00800           0
     41264 MEMB     348      POPC     C215     CTL2    -0.180000       12.0110           0
     41265 MEMB     348      POPC     H15R     HAL2     0.900000E-01   1.00800           0
     41266 MEMB     348      POPC     H15S     HAL2     0.900000E-01   1.00800           0
     41267 MEMB     348      POPC     C216     CTL2    -0.180000       12.0110           0
     41268 MEMB     348      POPC     H16R     HAL2     0.900000E-01   1.00800           0
     41269 MEMB     348      POPC     H16S     HAL2     0.900000E-01   1.00800           0
     41270 MEMB     348      POPC     C217     CTL2    -0.180000       12.0110           0
     41271 MEMB     348      POPC     H17R     HAL2     0.900000E-01   1.00800           0
     41272 MEMB     348      POPC     H17S     HAL2     0.900000E-01   1.00800           0
     41273 MEMB     348      POPC     C218     CTL3    -0.270000       12.0110           0
     41274 MEMB     348      POPC     H18R     HAL3     0.900000E-01   1.00800           0
     41275 MEMB     348      POPC     H18S     HAL3     0.900000E-01   1.00800           0
     41276 MEMB     348      POPC     H18T     HAL3     0.900000E-01   1.00800           0
     41277 MEMB     348      POPC     C33      CTL2    -0.180000       12.0110           0
     41278 MEMB     348      POPC     H3X      HAL2     0.900000E-01   1.00800           0
     41279 MEMB     348      POPC     H3Y      HAL2     0.900000E-01   1.00800           0
     41280 MEMB     348      POPC     C34      CTL2    -0.180000       12.0110           0
     41281 MEMB     348      POPC     H4X      HAL2     0.900000E-01   1.00800           0
     41282 MEMB     348      POPC     H4Y      HAL2     0.900000E-01   1.00800           0
     41283 MEMB     348      POPC     C35      CTL2    -0.180000       12.0110           0
     41284 MEMB     348      POPC     H5X      HAL2     0.900000E-01   1.00800           0
     41285 MEMB     348      POPC     H5Y      HAL2     0.900000E-01   1.00800           0
     41286 MEMB     348      POPC     C36      CTL2    -0.180000       12.0110           0
     41287 MEMB     348      POPC     H6X      HAL2     0.900000E-01   1.00800           0
     41288 MEMB     348      POPC     H6Y      HAL2     0.900000E-01   1.00800           0
     41289 MEMB     348      POPC     C37      CTL2    -0.180000       12.0110           0
     41290 MEMB     348      POPC     H7X      HAL2     0.900000E-01   1.00800           0
     41291 MEMB     348      POPC     H7Y      HAL2     0.900000E-01   1.00800           0
     41292 MEMB     348      POPC     C38      CTL2    -0.180000       12.0110           0
     41293 MEMB     348      POPC     H8X      HAL2     0.900000E-01   1.00800           0
     41294 MEMB     348      POPC     H8Y      HAL2     0.900000E-01   1.00800           0
     41295 MEMB     348      POPC     C39      CTL2    -0.180000       12.0110           0
     41296 MEMB     348      POPC     H9X      HAL2     0.900000E-01   1.00800           0
     41297 MEMB     348      POPC     H9Y      HAL2     0.900000E-01   1.00800           0
     41298 MEMB     348      POPC     C310     CTL2    -0.180000       12.0110           0
     41299 MEMB     348      POPC     H10X     HAL2     0.900000E-01   1.00800           0
     41300 MEMB     348      POPC     H10Y     HAL2     0.900000E-01   1.00800           0
     41301 MEMB     348      POPC     C311     CTL2    -0.180000       12.0110           0
     41302 MEMB     348      POPC     H11X     HAL2     0.900000E-01   1.00800           0
     41303 MEMB     348      POPC     H11Y     HAL2     0.900000E-01   1.00800           0
     41304 MEMB     348      POPC     C312     CTL2    -0.180000       12.0110           0
     41305 MEMB     348      POPC     H12X     HAL2     0.900000E-01   1.00800           0
     41306 MEMB     348      POPC     H12Y     HAL2     0.900000E-01   1.00800           0
     41307 MEMB     348      POPC     C313     CTL2    -0.180000       12.0110           0
     41308 MEMB     348      POPC     H13X     HAL2     0.900000E-01   1.00800           0
     41309 MEMB     348      POPC     H13Y     HAL2     0.900000E-01   1.00800           0
     41310 MEMB     348      POPC     C314     CTL2    -0.180000       12.0110           0
     41311 MEMB     348      POPC     H14X     HAL2     0.900000E-01   1.00800           0
     41312 MEMB     348      POPC     H14Y     HAL2     0.900000E-01   1.00800           0
     41313 MEMB     348      POPC     C315     CTL2    -0.180000       12.0110           0
     41314 MEMB     348      POPC     H15X     HAL2     0.900000E-01   1.00800           0
     41315 MEMB     348      POPC     H15Y     HAL2     0.900000E-01   1.00800           0
     41316 MEMB     348      POPC     C316     CTL3    -0.270000       12.0110           0
     41317 MEMB     348      POPC     H16X     HAL3     0.900000E-01   1.00800           0
     41318 MEMB     348      POPC     H16Y     HAL3     0.900000E-01   1.00800           0
     41319 MEMB     348      POPC     H16Z     HAL3     0.900000E-01   1.00800           0
     41320 MEMB     349      POPC     N        NTL     -0.600000       14.0070           0
     41321 MEMB     349      POPC     C12      CTL2    -0.100000       12.0110           0
     41322 MEMB     349      POPC     H12A     HL       0.250000       1.00800           0
     41323 MEMB     349      POPC     H12B     HL       0.250000       1.00800           0
     41324 MEMB     349      POPC     C13      CTL5    -0.350000       12.0110           0
     41325 MEMB     349      POPC     H13A     HL       0.250000       1.00800           0
     41326 MEMB     349      POPC     H13B     HL       0.250000       1.00800           0
     41327 MEMB     349      POPC     H13C     HL       0.250000       1.00800           0
     41328 MEMB     349      POPC     C14      CTL5    -0.350000       12.0110           0
     41329 MEMB     349      POPC     H14A     HL       0.250000       1.00800           0
     41330 MEMB     349      POPC     H14B     HL       0.250000       1.00800           0
     41331 MEMB     349      POPC     H14C     HL       0.250000       1.00800           0
     41332 MEMB     349      POPC     C15      CTL5    -0.350000       12.0110           0
     41333 MEMB     349      POPC     H15A     HL       0.250000       1.00800           0
     41334 MEMB     349      POPC     H15B     HL       0.250000       1.00800           0
     41335 MEMB     349      POPC     H15C     HL       0.250000       1.00800           0
     41336 MEMB     349      POPC     C11      CTL2    -0.800000E-01   12.0110           0
     41337 MEMB     349      POPC     H11A     HAL2     0.900000E-01   1.00800           0
     41338 MEMB     349      POPC     H11B     HAL2     0.900000E-01   1.00800           0
     41339 MEMB     349      POPC     P        PL        1.50000       30.9740           0
     41340 MEMB     349      POPC     O13      O2L     -0.780000       15.9994           0
     41341 MEMB     349      POPC     O14      O2L     -0.780000       15.9994           0
     41342 MEMB     349      POPC     O12      OSLP    -0.570000       15.9994           0
     41343 MEMB     349      POPC     O11      OSLP    -0.570000       15.9994           0
     41344 MEMB     349      POPC     C1       CTL2    -0.800000E-01   12.0110           0
     41345 MEMB     349      POPC     HA       HAL2     0.900000E-01   1.00800           0
     41346 MEMB     349      POPC     HB       HAL2     0.900000E-01   1.00800           0
     41347 MEMB     349      POPC     C2       CTL1     0.170000       12.0110           0
     41348 MEMB     349      POPC     HS       HAL1     0.900000E-01   1.00800           0
     41349 MEMB     349      POPC     O21      OSL     -0.490000       15.9994           0
     41350 MEMB     349      POPC     C21      CL       0.900000       12.0110           0
     41351 MEMB     349      POPC     O22      OBL     -0.630000       15.9994           0
     41352 MEMB     349      POPC     C22      CTL2    -0.220000       12.0110           0
     41353 MEMB     349      POPC     H2R      HAL2     0.900000E-01   1.00800           0
     41354 MEMB     349      POPC     H2S      HAL2     0.900000E-01   1.00800           0
     41355 MEMB     349      POPC     C3       CTL2     0.800000E-01   12.0110           0
     41356 MEMB     349      POPC     HX       HAL2     0.900000E-01   1.00800           0
     41357 MEMB     349      POPC     HY       HAL2     0.900000E-01   1.00800           0
     41358 MEMB     349      POPC     O31      OSL     -0.490000       15.9994           0
     41359 MEMB     349      POPC     C31      CL       0.900000       12.0110           0
     41360 MEMB     349      POPC     O32      OBL     -0.630000       15.9994           0
     41361 MEMB     349      POPC     C32      CTL2    -0.220000       12.0110           0
     41362 MEMB     349      POPC     H2X      HAL2     0.900000E-01   1.00800           0
     41363 MEMB     349      POPC     H2Y      HAL2     0.900000E-01   1.00800           0
     41364 MEMB     349      POPC     C23      CTL2    -0.180000       12.0110           0
     41365 MEMB     349      POPC     H3R      HAL2     0.900000E-01   1.00800           0
     41366 MEMB     349      POPC     H3S      HAL2     0.900000E-01   1.00800           0
     41367 MEMB     349      POPC     C24      CTL2    -0.180000       12.0110           0
     41368 MEMB     349      POPC     H4R      HAL2     0.900000E-01   1.00800           0
     41369 MEMB     349      POPC     H4S      HAL2     0.900000E-01   1.00800           0
     41370 MEMB     349      POPC     C25      CTL2    -0.180000       12.0110           0
     41371 MEMB     349      POPC     H5R      HAL2     0.900000E-01   1.00800           0
     41372 MEMB     349      POPC     H5S      HAL2     0.900000E-01   1.00800           0
     41373 MEMB     349      POPC     C26      CTL2    -0.180000       12.0110           0
     41374 MEMB     349      POPC     H6R      HAL2     0.900000E-01   1.00800           0
     41375 MEMB     349      POPC     H6S      HAL2     0.900000E-01   1.00800           0
     41376 MEMB     349      POPC     C27      CTL2    -0.180000       12.0110           0
     41377 MEMB     349      POPC     H7R      HAL2     0.900000E-01   1.00800           0
     41378 MEMB     349      POPC     H7S      HAL2     0.900000E-01   1.00800           0
     41379 MEMB     349      POPC     C28      CTL2    -0.180000       12.0110           0
     41380 MEMB     349      POPC     H8R      HAL2     0.900000E-01   1.00800           0
     41381 MEMB     349      POPC     H8S      HAL2     0.900000E-01   1.00800           0
     41382 MEMB     349      POPC     C29      CEL1    -0.150000       12.0110           0
     41383 MEMB     349      POPC     H91      HEL1     0.150000       1.00800           0
     41384 MEMB     349      POPC     C210     CEL1    -0.150000       12.0110           0
     41385 MEMB     349      POPC     H101     HEL1     0.150000       1.00800           0
     41386 MEMB     349      POPC     C211     CTL2    -0.180000       12.0110           0
     41387 MEMB     349      POPC     H11R     HAL2     0.900000E-01   1.00800           0
     41388 MEMB     349      POPC     H11S     HAL2     0.900000E-01   1.00800           0
     41389 MEMB     349      POPC     C212     CTL2    -0.180000       12.0110           0
     41390 MEMB     349      POPC     H12R     HAL2     0.900000E-01   1.00800           0
     41391 MEMB     349      POPC     H12S     HAL2     0.900000E-01   1.00800           0
     41392 MEMB     349      POPC     C213     CTL2    -0.180000       12.0110           0
     41393 MEMB     349      POPC     H13R     HAL2     0.900000E-01   1.00800           0
     41394 MEMB     349      POPC     H13S     HAL2     0.900000E-01   1.00800           0
     41395 MEMB     349      POPC     C214     CTL2    -0.180000       12.0110           0
     41396 MEMB     349      POPC     H14R     HAL2     0.900000E-01   1.00800           0
     41397 MEMB     349      POPC     H14S     HAL2     0.900000E-01   1.00800           0
     41398 MEMB     349      POPC     C215     CTL2    -0.180000       12.0110           0
     41399 MEMB     349      POPC     H15R     HAL2     0.900000E-01   1.00800           0
     41400 MEMB     349      POPC     H15S     HAL2     0.900000E-01   1.00800           0
     41401 MEMB     349      POPC     C216     CTL2    -0.180000       12.0110           0
     41402 MEMB     349      POPC     H16R     HAL2     0.900000E-01   1.00800           0
     41403 MEMB     349      POPC     H16S     HAL2     0.900000E-01   1.00800           0
     41404 MEMB     349      POPC     C217     CTL2    -0.180000       12.0110           0
     41405 MEMB     349      POPC     H17R     HAL2     0.900000E-01   1.00800           0
     41406 MEMB     349      POPC     H17S     HAL2     0.900000E-01   1.00800           0
     41407 MEMB     349      POPC     C218     CTL3    -0.270000       12.0110           0
     41408 MEMB     349      POPC     H18R     HAL3     0.900000E-01   1.00800           0
     41409 MEMB     349      POPC     H18S     HAL3     0.900000E-01   1.00800           0
     41410 MEMB     349      POPC     H18T     HAL3     0.900000E-01   1.00800           0
     41411 MEMB     349      POPC     C33      CTL2    -0.180000       12.0110           0
     41412 MEMB     349      POPC     H3X      HAL2     0.900000E-01   1.00800           0
     41413 MEMB     349      POPC     H3Y      HAL2     0.900000E-01   1.00800           0
     41414 MEMB     349      POPC     C34      CTL2    -0.180000       12.0110           0
     41415 MEMB     349      POPC     H4X      HAL2     0.900000E-01   1.00800           0
     41416 MEMB     349      POPC     H4Y      HAL2     0.900000E-01   1.00800           0
     41417 MEMB     349      POPC     C35      CTL2    -0.180000       12.0110           0
     41418 MEMB     349      POPC     H5X      HAL2     0.900000E-01   1.00800           0
     41419 MEMB     349      POPC     H5Y      HAL2     0.900000E-01   1.00800           0
     41420 MEMB     349      POPC     C36      CTL2    -0.180000       12.0110           0
     41421 MEMB     349      POPC     H6X      HAL2     0.900000E-01   1.00800           0
     41422 MEMB     349      POPC     H6Y      HAL2     0.900000E-01   1.00800           0
     41423 MEMB     349      POPC     C37      CTL2    -0.180000       12.0110           0
     41424 MEMB     349      POPC     H7X      HAL2     0.900000E-01   1.00800           0
     41425 MEMB     349      POPC     H7Y      HAL2     0.900000E-01   1.00800           0
     41426 MEMB     349      POPC     C38      CTL2    -0.180000       12.0110           0
     41427 MEMB     349      POPC     H8X      HAL2     0.900000E-01   1.00800           0
     41428 MEMB     349      POPC     H8Y      HAL2     0.900000E-01   1.00800           0
     41429 MEMB     349      POPC     C39      CTL2    -0.180000       12.0110           0
     41430 MEMB     349      POPC     H9X      HAL2     0.900000E-01   1.00800           0
     41431 MEMB     349      POPC     H9Y      HAL2     0.900000E-01   1.00800           0
     41432 MEMB     349      POPC     C310     CTL2    -0.180000       12.0110           0
     41433 MEMB     349      POPC     H10X     HAL2     0.900000E-01   1.00800           0
     41434 MEMB     349      POPC     H10Y     HAL2     0.900000E-01   1.00800           0
     41435 MEMB     349      POPC     C311     CTL2    -0.180000       12.0110           0
     41436 MEMB     349      POPC     H11X     HAL2     0.900000E-01   1.00800           0
     41437 MEMB     349      POPC     H11Y     HAL2     0.900000E-01   1.00800           0
     41438 MEMB     349      POPC     C312     CTL2    -0.180000       12.0110           0
     41439 MEMB     349      POPC     H12X     HAL2     0.900000E-01   1.00800           0
     41440 MEMB     349      POPC     H12Y     HAL2     0.900000E-01   1.00800           0
     41441 MEMB     349      POPC     C313     CTL2    -0.180000       12.0110           0
     41442 MEMB     349      POPC     H13X     HAL2     0.900000E-01   1.00800           0
     41443 MEMB     349      POPC     H13Y     HAL2     0.900000E-01   1.00800           0
     41444 MEMB     349      POPC     C314     CTL2    -0.180000       12.0110           0
     41445 MEMB     349      POPC     H14X     HAL2     0.900000E-01   1.00800           0
     41446 MEMB     349      POPC     H14Y     HAL2     0.900000E-01   1.00800           0
     41447 MEMB     349      POPC     C315     CTL2    -0.180000       12.0110           0
     41448 MEMB     349      POPC     H15X     HAL2     0.900000E-01   1.00800           0
     41449 MEMB     349      POPC     H15Y     HAL2     0.900000E-01   1.00800           0
     41450 MEMB     349      POPC     C316     CTL3    -0.270000       12.0110           0
     41451 MEMB     349      POPC     H16X     HAL3     0.900000E-01   1.00800           0
     41452 MEMB     349      POPC     H16Y     HAL3     0.900000E-01   1.00800           0
     41453 MEMB     349      POPC     H16Z     HAL3     0.900000E-01   1.00800           0
     41454 MEMB     350      POPE     N        NH3L    -0.300000       14.0070           0
     41455 MEMB     350      POPE     HN1      HCL      0.330000       1.00800           0
     41456 MEMB     350      POPE     HN2      HCL      0.330000       1.00800           0
     41457 MEMB     350      POPE     HN3      HCL      0.330000       1.00800           0
     41458 MEMB     350      POPE     C12      CTL2     0.130000       12.0110           0
     41459 MEMB     350      POPE     H12A     HAL2     0.900000E-01   1.00800           0
     41460 MEMB     350      POPE     H12B     HAL2     0.900000E-01   1.00800           0
     41461 MEMB     350      POPE     C11      CTL2    -0.800000E-01   12.0110           0
     41462 MEMB     350      POPE     H11A     HAL2     0.900000E-01   1.00800           0
     41463 MEMB     350      POPE     H11B     HAL2     0.900000E-01   1.00800           0
     41464 MEMB     350      POPE     P        PL        1.50000       30.9740           0
     41465 MEMB     350      POPE     O13      O2L     -0.780000       15.9994           0
     41466 MEMB     350      POPE     O14      O2L     -0.780000       15.9994           0
     41467 MEMB     350      POPE     O11      OSLP    -0.570000       15.9994           0
     41468 MEMB     350      POPE     O12      OSLP    -0.570000       15.9994           0
     41469 MEMB     350      POPE     C1       CTL2    -0.800000E-01   12.0110           0
     41470 MEMB     350      POPE     HA       HAL2     0.900000E-01   1.00800           0
     41471 MEMB     350      POPE     HB       HAL2     0.900000E-01   1.00800           0
     41472 MEMB     350      POPE     C2       CTL1     0.170000       12.0110           0
     41473 MEMB     350      POPE     HS       HAL1     0.900000E-01   1.00800           0
     41474 MEMB     350      POPE     O21      OSL     -0.490000       15.9994           0
     41475 MEMB     350      POPE     C21      CL       0.900000       12.0110           0
     41476 MEMB     350      POPE     O22      OBL     -0.630000       15.9994           0
     41477 MEMB     350      POPE     C22      CTL2    -0.220000       12.0110           0
     41478 MEMB     350      POPE     H2R      HAL2     0.900000E-01   1.00800           0
     41479 MEMB     350      POPE     H2S      HAL2     0.900000E-01   1.00800           0
     41480 MEMB     350      POPE     C3       CTL2     0.800000E-01   12.0110           0
     41481 MEMB     350      POPE     HX       HAL2     0.900000E-01   1.00800           0
     41482 MEMB     350      POPE     HY       HAL2     0.900000E-01   1.00800           0
     41483 MEMB     350      POPE     O31      OSL     -0.490000       15.9994           0
     41484 MEMB     350      POPE     C31      CL       0.900000       12.0110           0
     41485 MEMB     350      POPE     O32      OBL     -0.630000       15.9994           0
     41486 MEMB     350      POPE     C32      CTL2    -0.220000       12.0110           0
     41487 MEMB     350      POPE     H2X      HAL2     0.900000E-01   1.00800           0
     41488 MEMB     350      POPE     H2Y      HAL2     0.900000E-01   1.00800           0
     41489 MEMB     350      POPE     C23      CTL2    -0.180000       12.0110           0
     41490 MEMB     350      POPE     H3R      HAL2     0.900000E-01   1.00800           0
     41491 MEMB     350      POPE     H3S      HAL2     0.900000E-01   1.00800           0
     41492 MEMB     350      POPE     C24      CTL2    -0.180000       12.0110           0
     41493 MEMB     350      POPE     H4R      HAL2     0.900000E-01   1.00800           0
     41494 MEMB     350      POPE     H4S      HAL2     0.900000E-01   1.00800           0
     41495 MEMB     350      POPE     C25      CTL2    -0.180000       12.0110           0
     41496 MEMB     350      POPE     H5R      HAL2     0.900000E-01   1.00800           0
     41497 MEMB     350      POPE     H5S      HAL2     0.900000E-01   1.00800           0
     41498 MEMB     350      POPE     C26      CTL2    -0.180000       12.0110           0
     41499 MEMB     350      POPE     H6R      HAL2     0.900000E-01   1.00800           0
     41500 MEMB     350      POPE     H6S      HAL2     0.900000E-01   1.00800           0
     41501 MEMB     350      POPE     C27      CTL2    -0.180000       12.0110           0
     41502 MEMB     350      POPE     H7R      HAL2     0.900000E-01   1.00800           0
     41503 MEMB     350      POPE     H7S      HAL2     0.900000E-01   1.00800           0
     41504 MEMB     350      POPE     C28      CTL2    -0.180000       12.0110           0
     41505 MEMB     350      POPE     H8R      HAL2     0.900000E-01   1.00800           0
     41506 MEMB     350      POPE     H8S      HAL2     0.900000E-01   1.00800           0
     41507 MEMB     350      POPE     C29      CEL1    -0.150000       12.0110           0
     41508 MEMB     350      POPE     H91      HEL1     0.150000       1.00800           0
     41509 MEMB     350      POPE     C210     CEL1    -0.150000       12.0110           0
     41510 MEMB     350      POPE     H101     HEL1     0.150000       1.00800           0
     41511 MEMB     350      POPE     C211     CTL2    -0.180000       12.0110           0
     41512 MEMB     350      POPE     H11R     HAL2     0.900000E-01   1.00800           0
     41513 MEMB     350      POPE     H11S     HAL2     0.900000E-01   1.00800           0
     41514 MEMB     350      POPE     C212     CTL2    -0.180000       12.0110           0
     41515 MEMB     350      POPE     H12R     HAL2     0.900000E-01   1.00800           0
     41516 MEMB     350      POPE     H12S     HAL2     0.900000E-01   1.00800           0
     41517 MEMB     350      POPE     C213     CTL2    -0.180000       12.0110           0
     41518 MEMB     350      POPE     H13R     HAL2     0.900000E-01   1.00800           0
     41519 MEMB     350      POPE     H13S     HAL2     0.900000E-01   1.00800           0
     41520 MEMB     350      POPE     C214     CTL2    -0.180000       12.0110           0
     41521 MEMB     350      POPE     H14R     HAL2     0.900000E-01   1.00800           0
     41522 MEMB     350      POPE     H14S     HAL2     0.900000E-01   1.00800           0
     41523 MEMB     350      POPE     C215     CTL2    -0.180000       12.0110           0
     41524 MEMB     350      POPE     H15R     HAL2     0.900000E-01   1.00800           0
     41525 MEMB     350      POPE     H15S     HAL2     0.900000E-01   1.00800           0
     41526 MEMB     350      POPE     C216     CTL2    -0.180000       12.0110           0
     41527 MEMB     350      POPE     H16R     HAL2     0.900000E-01   1.00800           0
     41528 MEMB     350      POPE     H16S     HAL2     0.900000E-01   1.00800           0
     41529 MEMB     350      POPE     C217     CTL2    -0.180000       12.0110           0
     41530 MEMB     350      POPE     H17R     HAL2     0.900000E-01   1.00800           0
     41531 MEMB     350      POPE     H17S     HAL2     0.900000E-01   1.00800           0
     41532 MEMB     350      POPE     C218     CTL3    -0.270000       12.0110           0
     41533 MEMB     350      POPE     H18R     HAL3     0.900000E-01   1.00800           0
     41534 MEMB     350      POPE     H18S     HAL3     0.900000E-01   1.00800           0
     41535 MEMB     350      POPE     H18T     HAL3     0.900000E-01   1.00800           0
     41536 MEMB     350      POPE     C33      CTL2    -0.180000       12.0110           0
     41537 MEMB     350      POPE     H3X      HAL2     0.900000E-01   1.00800           0
     41538 MEMB     350      POPE     H3Y      HAL2     0.900000E-01   1.00800           0
     41539 MEMB     350      POPE     C34      CTL2    -0.180000       12.0110           0
     41540 MEMB     350      POPE     H4X      HAL2     0.900000E-01   1.00800           0
     41541 MEMB     350      POPE     H4Y      HAL2     0.900000E-01   1.00800           0
     41542 MEMB     350      POPE     C35      CTL2    -0.180000       12.0110           0
     41543 MEMB     350      POPE     H5X      HAL2     0.900000E-01   1.00800           0
     41544 MEMB     350      POPE     H5Y      HAL2     0.900000E-01   1.00800           0
     41545 MEMB     350      POPE     C36      CTL2    -0.180000       12.0110           0
     41546 MEMB     350      POPE     H6X      HAL2     0.900000E-01   1.00800           0
     41547 MEMB     350      POPE     H6Y      HAL2     0.900000E-01   1.00800           0
     41548 MEMB     350      POPE     C37      CTL2    -0.180000       12.0110           0
     41549 MEMB     350      POPE     H7X      HAL2     0.900000E-01   1.00800           0
     41550 MEMB     350      POPE     H7Y      HAL2     0.900000E-01   1.00800           0
     41551 MEMB     350      POPE     C38      CTL2    -0.180000       12.0110           0
     41552 MEMB     350      POPE     H8X      HAL2     0.900000E-01   1.00800           0
     41553 MEMB     350      POPE     H8Y      HAL2     0.900000E-01   1.00800           0
     41554 MEMB     350      POPE     C39      CTL2    -0.180000       12.0110           0
     41555 MEMB     350      POPE     H9X      HAL2     0.900000E-01   1.00800           0
     41556 MEMB     350      POPE     H9Y      HAL2     0.900000E-01   1.00800           0
     41557 MEMB     350      POPE     C310     CTL2    -0.180000       12.0110           0
     41558 MEMB     350      POPE     H10X     HAL2     0.900000E-01   1.00800           0
     41559 MEMB     350      POPE     H10Y     HAL2     0.900000E-01   1.00800           0
     41560 MEMB     350      POPE     C311     CTL2    -0.180000       12.0110           0
     41561 MEMB     350      POPE     H11X     HAL2     0.900000E-01   1.00800           0
     41562 MEMB     350      POPE     H11Y     HAL2     0.900000E-01   1.00800           0
     41563 MEMB     350      POPE     C312     CTL2    -0.180000       12.0110           0
     41564 MEMB     350      POPE     H12X     HAL2     0.900000E-01   1.00800           0
     41565 MEMB     350      POPE     H12Y     HAL2     0.900000E-01   1.00800           0
     41566 MEMB     350      POPE     C313     CTL2    -0.180000       12.0110           0
     41567 MEMB     350      POPE     H13X     HAL2     0.900000E-01   1.00800           0
     41568 MEMB     350      POPE     H13Y     HAL2     0.900000E-01   1.00800           0
     41569 MEMB     350      POPE     C314     CTL2    -0.180000       12.0110           0
     41570 MEMB     350      POPE     H14X     HAL2     0.900000E-01   1.00800           0
     41571 MEMB     350      POPE     H14Y     HAL2     0.900000E-01   1.00800           0
     41572 MEMB     350      POPE     C315     CTL2    -0.180000       12.0110           0
     41573 MEMB     350      POPE     H15X     HAL2     0.900000E-01   1.00800           0
     41574 MEMB     350      POPE     H15Y     HAL2     0.900000E-01   1.00800           0
     41575 MEMB     350      POPE     C316     CTL3    -0.270000       12.0110           0
     41576 MEMB     350      POPE     H16X     HAL3     0.900000E-01   1.00800           0
     41577 MEMB     350      POPE     H16Y     HAL3     0.900000E-01   1.00800           0
     41578 MEMB     350      POPE     H16Z     HAL3     0.900000E-01   1.00800           0
     41579 MEMB     351      POPE     N        NH3L    -0.300000       14.0070           0
     41580 MEMB     351      POPE     HN1      HCL      0.330000       1.00800           0
     41581 MEMB     351      POPE     HN2      HCL      0.330000       1.00800           0
     41582 MEMB     351      POPE     HN3      HCL      0.330000       1.00800           0
     41583 MEMB     351      POPE     C12      CTL2     0.130000       12.0110           0
     41584 MEMB     351      POPE     H12A     HAL2     0.900000E-01   1.00800           0
     41585 MEMB     351      POPE     H12B     HAL2     0.900000E-01   1.00800           0
     41586 MEMB     351      POPE     C11      CTL2    -0.800000E-01   12.0110           0
     41587 MEMB     351      POPE     H11A     HAL2     0.900000E-01   1.00800           0
     41588 MEMB     351      POPE     H11B     HAL2     0.900000E-01   1.00800           0
     41589 MEMB     351      POPE     P        PL        1.50000       30.9740           0
     41590 MEMB     351      POPE     O13      O2L     -0.780000       15.9994           0
     41591 MEMB     351      POPE     O14      O2L     -0.780000       15.9994           0
     41592 MEMB     351      POPE     O11      OSLP    -0.570000       15.9994           0
     41593 MEMB     351      POPE     O12      OSLP    -0.570000       15.9994           0
     41594 MEMB     351      POPE     C1       CTL2    -0.800000E-01   12.0110           0
     41595 MEMB     351      POPE     HA       HAL2     0.900000E-01   1.00800           0
     41596 MEMB     351      POPE     HB       HAL2     0.900000E-01   1.00800           0
     41597 MEMB     351      POPE     C2       CTL1     0.170000       12.0110           0
     41598 MEMB     351      POPE     HS       HAL1     0.900000E-01   1.00800           0
     41599 MEMB     351      POPE     O21      OSL     -0.490000       15.9994           0
     41600 MEMB     351      POPE     C21      CL       0.900000       12.0110           0
     41601 MEMB     351      POPE     O22      OBL     -0.630000       15.9994           0
     41602 MEMB     351      POPE     C22      CTL2    -0.220000       12.0110           0
     41603 MEMB     351      POPE     H2R      HAL2     0.900000E-01   1.00800           0
     41604 MEMB     351      POPE     H2S      HAL2     0.900000E-01   1.00800           0
     41605 MEMB     351      POPE     C3       CTL2     0.800000E-01   12.0110           0
     41606 MEMB     351      POPE     HX       HAL2     0.900000E-01   1.00800           0
     41607 MEMB     351      POPE     HY       HAL2     0.900000E-01   1.00800           0
     41608 MEMB     351      POPE     O31      OSL     -0.490000       15.9994           0
     41609 MEMB     351      POPE     C31      CL       0.900000       12.0110           0
     41610 MEMB     351      POPE     O32      OBL     -0.630000       15.9994           0
     41611 MEMB     351      POPE     C32      CTL2    -0.220000       12.0110           0
     41612 MEMB     351      POPE     H2X      HAL2     0.900000E-01   1.00800           0
     41613 MEMB     351      POPE     H2Y      HAL2     0.900000E-01   1.00800           0
     41614 MEMB     351      POPE     C23      CTL2    -0.180000       12.0110           0
     41615 MEMB     351      POPE     H3R      HAL2     0.900000E-01   1.00800           0
     41616 MEMB     351      POPE     H3S      HAL2     0.900000E-01   1.00800           0
     41617 MEMB     351      POPE     C24      CTL2    -0.180000       12.0110           0
     41618 MEMB     351      POPE     H4R      HAL2     0.900000E-01   1.00800           0
     41619 MEMB     351      POPE     H4S      HAL2     0.900000E-01   1.00800           0
     41620 MEMB     351      POPE     C25      CTL2    -0.180000       12.0110           0
     41621 MEMB     351      POPE     H5R      HAL2     0.900000E-01   1.00800           0
     41622 MEMB     351      POPE     H5S      HAL2     0.900000E-01   1.00800           0
     41623 MEMB     351      POPE     C26      CTL2    -0.180000       12.0110           0
     41624 MEMB     351      POPE     H6R      HAL2     0.900000E-01   1.00800           0
     41625 MEMB     351      POPE     H6S      HAL2     0.900000E-01   1.00800           0
     41626 MEMB     351      POPE     C27      CTL2    -0.180000       12.0110           0
     41627 MEMB     351      POPE     H7R      HAL2     0.900000E-01   1.00800           0
     41628 MEMB     351      POPE     H7S      HAL2     0.900000E-01   1.00800           0
     41629 MEMB     351      POPE     C28      CTL2    -0.180000       12.0110           0
     41630 MEMB     351      POPE     H8R      HAL2     0.900000E-01   1.00800           0
     41631 MEMB     351      POPE     H8S      HAL2     0.900000E-01   1.00800           0
     41632 MEMB     351      POPE     C29      CEL1    -0.150000       12.0110           0
     41633 MEMB     351      POPE     H91      HEL1     0.150000       1.00800           0
     41634 MEMB     351      POPE     C210     CEL1    -0.150000       12.0110           0
     41635 MEMB     351      POPE     H101     HEL1     0.150000       1.00800           0
     41636 MEMB     351      POPE     C211     CTL2    -0.180000       12.0110           0
     41637 MEMB     351      POPE     H11R     HAL2     0.900000E-01   1.00800           0
     41638 MEMB     351      POPE     H11S     HAL2     0.900000E-01   1.00800           0
     41639 MEMB     351      POPE     C212     CTL2    -0.180000       12.0110           0
     41640 MEMB     351      POPE     H12R     HAL2     0.900000E-01   1.00800           0
     41641 MEMB     351      POPE     H12S     HAL2     0.900000E-01   1.00800           0
     41642 MEMB     351      POPE     C213     CTL2    -0.180000       12.0110           0
     41643 MEMB     351      POPE     H13R     HAL2     0.900000E-01   1.00800           0
     41644 MEMB     351      POPE     H13S     HAL2     0.900000E-01   1.00800           0
     41645 MEMB     351      POPE     C214     CTL2    -0.180000       12.0110           0
     41646 MEMB     351      POPE     H14R     HAL2     0.900000E-01   1.00800           0
     41647 MEMB     351      POPE     H14S     HAL2     0.900000E-01   1.00800           0
     41648 MEMB     351      POPE     C215     CTL2    -0.180000       12.0110           0
     41649 MEMB     351      POPE     H15R     HAL2     0.900000E-01   1.00800           0
     41650 MEMB     351      POPE     H15S     HAL2     0.900000E-01   1.00800           0
     41651 MEMB     351      POPE     C216     CTL2    -0.180000       12.0110           0
     41652 MEMB     351      POPE     H16R     HAL2     0.900000E-01   1.00800           0
     41653 MEMB     351      POPE     H16S     HAL2     0.900000E-01   1.00800           0
     41654 MEMB     351      POPE     C217     CTL2    -0.180000       12.0110           0
     41655 MEMB     351      POPE     H17R     HAL2     0.900000E-01   1.00800           0
     41656 MEMB     351      POPE     H17S     HAL2     0.900000E-01   1.00800           0
     41657 MEMB     351      POPE     C218     CTL3    -0.270000       12.0110           0
     41658 MEMB     351      POPE     H18R     HAL3     0.900000E-01   1.00800           0
     41659 MEMB     351      POPE     H18S     HAL3     0.900000E-01   1.00800           0
     41660 MEMB     351      POPE     H18T     HAL3     0.900000E-01   1.00800           0
     41661 MEMB     351      POPE     C33      CTL2    -0.180000       12.0110           0
     41662 MEMB     351      POPE     H3X      HAL2     0.900000E-01   1.00800           0
     41663 MEMB     351      POPE     H3Y      HAL2     0.900000E-01   1.00800           0
     41664 MEMB     351      POPE     C34      CTL2    -0.180000       12.0110           0
     41665 MEMB     351      POPE     H4X      HAL2     0.900000E-01   1.00800           0
     41666 MEMB     351      POPE     H4Y      HAL2     0.900000E-01   1.00800           0
     41667 MEMB     351      POPE     C35      CTL2    -0.180000       12.0110           0
     41668 MEMB     351      POPE     H5X      HAL2     0.900000E-01   1.00800           0
     41669 MEMB     351      POPE     H5Y      HAL2     0.900000E-01   1.00800           0
     41670 MEMB     351      POPE     C36      CTL2    -0.180000       12.0110           0
     41671 MEMB     351      POPE     H6X      HAL2     0.900000E-01   1.00800           0
     41672 MEMB     351      POPE     H6Y      HAL2     0.900000E-01   1.00800           0
     41673 MEMB     351      POPE     C37      CTL2    -0.180000       12.0110           0
     41674 MEMB     351      POPE     H7X      HAL2     0.900000E-01   1.00800           0
     41675 MEMB     351      POPE     H7Y      HAL2     0.900000E-01   1.00800           0
     41676 MEMB     351      POPE     C38      CTL2    -0.180000       12.0110           0
     41677 MEMB     351      POPE     H8X      HAL2     0.900000E-01   1.00800           0
     41678 MEMB     351      POPE     H8Y      HAL2     0.900000E-01   1.00800           0
     41679 MEMB     351      POPE     C39      CTL2    -0.180000       12.0110           0
     41680 MEMB     351      POPE     H9X      HAL2     0.900000E-01   1.00800           0
     41681 MEMB     351      POPE     H9Y      HAL2     0.900000E-01   1.00800           0
     41682 MEMB     351      POPE     C310     CTL2    -0.180000       12.0110           0
     41683 MEMB     351      POPE     H10X     HAL2     0.900000E-01   1.00800           0
     41684 MEMB     351      POPE     H10Y     HAL2     0.900000E-01   1.00800           0
     41685 MEMB     351      POPE     C311     CTL2    -0.180000       12.0110           0
     41686 MEMB     351      POPE     H11X     HAL2     0.900000E-01   1.00800           0
     41687 MEMB     351      POPE     H11Y     HAL2     0.900000E-01   1.00800           0
     41688 MEMB     351      POPE     C312     CTL2    -0.180000       12.0110           0
     41689 MEMB     351      POPE     H12X     HAL2     0.900000E-01   1.00800           0
     41690 MEMB     351      POPE     H12Y     HAL2     0.900000E-01   1.00800           0
     41691 MEMB     351      POPE     C313     CTL2    -0.180000       12.0110           0
     41692 MEMB     351      POPE     H13X     HAL2     0.900000E-01   1.00800           0
     41693 MEMB     351      POPE     H13Y     HAL2     0.900000E-01   1.00800           0
     41694 MEMB     351      POPE     C314     CTL2    -0.180000       12.0110           0
     41695 MEMB     351      POPE     H14X     HAL2     0.900000E-01   1.00800           0
     41696 MEMB     351      POPE     H14Y     HAL2     0.900000E-01   1.00800           0
     41697 MEMB     351      POPE     C315     CTL2    -0.180000       12.0110           0
     41698 MEMB     351      POPE     H15X     HAL2     0.900000E-01   1.00800           0
     41699 MEMB     351      POPE     H15Y     HAL2     0.900000E-01   1.00800           0
     41700 MEMB     351      POPE     C316     CTL3    -0.270000       12.0110           0
     41701 MEMB     351      POPE     H16X     HAL3     0.900000E-01   1.00800           0
     41702 MEMB     351      POPE     H16Y     HAL3     0.900000E-01   1.00800           0
     41703 MEMB     351      POPE     H16Z     HAL3     0.900000E-01   1.00800           0
     41704 MEMB     352      POPC     N        NTL     -0.600000       14.0070           0
     41705 MEMB     352      POPC     C12      CTL2    -0.100000       12.0110           0
     41706 MEMB     352      POPC     H12A     HL       0.250000       1.00800           0
     41707 MEMB     352      POPC     H12B     HL       0.250000       1.00800           0
     41708 MEMB     352      POPC     C13      CTL5    -0.350000       12.0110           0
     41709 MEMB     352      POPC     H13A     HL       0.250000       1.00800           0
     41710 MEMB     352      POPC     H13B     HL       0.250000       1.00800           0
     41711 MEMB     352      POPC     H13C     HL       0.250000       1.00800           0
     41712 MEMB     352      POPC     C14      CTL5    -0.350000       12.0110           0
     41713 MEMB     352      POPC     H14A     HL       0.250000       1.00800           0
     41714 MEMB     352      POPC     H14B     HL       0.250000       1.00800           0
     41715 MEMB     352      POPC     H14C     HL       0.250000       1.00800           0
     41716 MEMB     352      POPC     C15      CTL5    -0.350000       12.0110           0
     41717 MEMB     352      POPC     H15A     HL       0.250000       1.00800           0
     41718 MEMB     352      POPC     H15B     HL       0.250000       1.00800           0
     41719 MEMB     352      POPC     H15C     HL       0.250000       1.00800           0
     41720 MEMB     352      POPC     C11      CTL2    -0.800000E-01   12.0110           0
     41721 MEMB     352      POPC     H11A     HAL2     0.900000E-01   1.00800           0
     41722 MEMB     352      POPC     H11B     HAL2     0.900000E-01   1.00800           0
     41723 MEMB     352      POPC     P        PL        1.50000       30.9740           0
     41724 MEMB     352      POPC     O13      O2L     -0.780000       15.9994           0
     41725 MEMB     352      POPC     O14      O2L     -0.780000       15.9994           0
     41726 MEMB     352      POPC     O12      OSLP    -0.570000       15.9994           0
     41727 MEMB     352      POPC     O11      OSLP    -0.570000       15.9994           0
     41728 MEMB     352      POPC     C1       CTL2    -0.800000E-01   12.0110           0
     41729 MEMB     352      POPC     HA       HAL2     0.900000E-01   1.00800           0
     41730 MEMB     352      POPC     HB       HAL2     0.900000E-01   1.00800           0
     41731 MEMB     352      POPC     C2       CTL1     0.170000       12.0110           0
     41732 MEMB     352      POPC     HS       HAL1     0.900000E-01   1.00800           0
     41733 MEMB     352      POPC     O21      OSL     -0.490000       15.9994           0
     41734 MEMB     352      POPC     C21      CL       0.900000       12.0110           0
     41735 MEMB     352      POPC     O22      OBL     -0.630000       15.9994           0
     41736 MEMB     352      POPC     C22      CTL2    -0.220000       12.0110           0
     41737 MEMB     352      POPC     H2R      HAL2     0.900000E-01   1.00800           0
     41738 MEMB     352      POPC     H2S      HAL2     0.900000E-01   1.00800           0
     41739 MEMB     352      POPC     C3       CTL2     0.800000E-01   12.0110           0
     41740 MEMB     352      POPC     HX       HAL2     0.900000E-01   1.00800           0
     41741 MEMB     352      POPC     HY       HAL2     0.900000E-01   1.00800           0
     41742 MEMB     352      POPC     O31      OSL     -0.490000       15.9994           0
     41743 MEMB     352      POPC     C31      CL       0.900000       12.0110           0
     41744 MEMB     352      POPC     O32      OBL     -0.630000       15.9994           0
     41745 MEMB     352      POPC     C32      CTL2    -0.220000       12.0110           0
     41746 MEMB     352      POPC     H2X      HAL2     0.900000E-01   1.00800           0
     41747 MEMB     352      POPC     H2Y      HAL2     0.900000E-01   1.00800           0
     41748 MEMB     352      POPC     C23      CTL2    -0.180000       12.0110           0
     41749 MEMB     352      POPC     H3R      HAL2     0.900000E-01   1.00800           0
     41750 MEMB     352      POPC     H3S      HAL2     0.900000E-01   1.00800           0
     41751 MEMB     352      POPC     C24      CTL2    -0.180000       12.0110           0
     41752 MEMB     352      POPC     H4R      HAL2     0.900000E-01   1.00800           0
     41753 MEMB     352      POPC     H4S      HAL2     0.900000E-01   1.00800           0
     41754 MEMB     352      POPC     C25      CTL2    -0.180000       12.0110           0
     41755 MEMB     352      POPC     H5R      HAL2     0.900000E-01   1.00800           0
     41756 MEMB     352      POPC     H5S      HAL2     0.900000E-01   1.00800           0
     41757 MEMB     352      POPC     C26      CTL2    -0.180000       12.0110           0
     41758 MEMB     352      POPC     H6R      HAL2     0.900000E-01   1.00800           0
     41759 MEMB     352      POPC     H6S      HAL2     0.900000E-01   1.00800           0
     41760 MEMB     352      POPC     C27      CTL2    -0.180000       12.0110           0
     41761 MEMB     352      POPC     H7R      HAL2     0.900000E-01   1.00800           0
     41762 MEMB     352      POPC     H7S      HAL2     0.900000E-01   1.00800           0
     41763 MEMB     352      POPC     C28      CTL2    -0.180000       12.0110           0
     41764 MEMB     352      POPC     H8R      HAL2     0.900000E-01   1.00800           0
     41765 MEMB     352      POPC     H8S      HAL2     0.900000E-01   1.00800           0
     41766 MEMB     352      POPC     C29      CEL1    -0.150000       12.0110           0
     41767 MEMB     352      POPC     H91      HEL1     0.150000       1.00800           0
     41768 MEMB     352      POPC     C210     CEL1    -0.150000       12.0110           0
     41769 MEMB     352      POPC     H101     HEL1     0.150000       1.00800           0
     41770 MEMB     352      POPC     C211     CTL2    -0.180000       12.0110           0
     41771 MEMB     352      POPC     H11R     HAL2     0.900000E-01   1.00800           0
     41772 MEMB     352      POPC     H11S     HAL2     0.900000E-01   1.00800           0
     41773 MEMB     352      POPC     C212     CTL2    -0.180000       12.0110           0
     41774 MEMB     352      POPC     H12R     HAL2     0.900000E-01   1.00800           0
     41775 MEMB     352      POPC     H12S     HAL2     0.900000E-01   1.00800           0
     41776 MEMB     352      POPC     C213     CTL2    -0.180000       12.0110           0
     41777 MEMB     352      POPC     H13R     HAL2     0.900000E-01   1.00800           0
     41778 MEMB     352      POPC     H13S     HAL2     0.900000E-01   1.00800           0
     41779 MEMB     352      POPC     C214     CTL2    -0.180000       12.0110           0
     41780 MEMB     352      POPC     H14R     HAL2     0.900000E-01   1.00800           0
     41781 MEMB     352      POPC     H14S     HAL2     0.900000E-01   1.00800           0
     41782 MEMB     352      POPC     C215     CTL2    -0.180000       12.0110           0
     41783 MEMB     352      POPC     H15R     HAL2     0.900000E-01   1.00800           0
     41784 MEMB     352      POPC     H15S     HAL2     0.900000E-01   1.00800           0
     41785 MEMB     352      POPC     C216     CTL2    -0.180000       12.0110           0
     41786 MEMB     352      POPC     H16R     HAL2     0.900000E-01   1.00800           0
     41787 MEMB     352      POPC     H16S     HAL2     0.900000E-01   1.00800           0
     41788 MEMB     352      POPC     C217     CTL2    -0.180000       12.0110           0
     41789 MEMB     352      POPC     H17R     HAL2     0.900000E-01   1.00800           0
     41790 MEMB     352      POPC     H17S     HAL2     0.900000E-01   1.00800           0
     41791 MEMB     352      POPC     C218     CTL3    -0.270000       12.0110           0
     41792 MEMB     352      POPC     H18R     HAL3     0.900000E-01   1.00800           0
     41793 MEMB     352      POPC     H18S     HAL3     0.900000E-01   1.00800           0
     41794 MEMB     352      POPC     H18T     HAL3     0.900000E-01   1.00800           0
     41795 MEMB     352      POPC     C33      CTL2    -0.180000       12.0110           0
     41796 MEMB     352      POPC     H3X      HAL2     0.900000E-01   1.00800           0
     41797 MEMB     352      POPC     H3Y      HAL2     0.900000E-01   1.00800           0
     41798 MEMB     352      POPC     C34      CTL2    -0.180000       12.0110           0
     41799 MEMB     352      POPC     H4X      HAL2     0.900000E-01   1.00800           0
     41800 MEMB     352      POPC     H4Y      HAL2     0.900000E-01   1.00800           0
     41801 MEMB     352      POPC     C35      CTL2    -0.180000       12.0110           0
     41802 MEMB     352      POPC     H5X      HAL2     0.900000E-01   1.00800           0
     41803 MEMB     352      POPC     H5Y      HAL2     0.900000E-01   1.00800           0
     41804 MEMB     352      POPC     C36      CTL2    -0.180000       12.0110           0
     41805 MEMB     352      POPC     H6X      HAL2     0.900000E-01   1.00800           0
     41806 MEMB     352      POPC     H6Y      HAL2     0.900000E-01   1.00800           0
     41807 MEMB     352      POPC     C37      CTL2    -0.180000       12.0110           0
     41808 MEMB     352      POPC     H7X      HAL2     0.900000E-01   1.00800           0
     41809 MEMB     352      POPC     H7Y      HAL2     0.900000E-01   1.00800           0
     41810 MEMB     352      POPC     C38      CTL2    -0.180000       12.0110           0
     41811 MEMB     352      POPC     H8X      HAL2     0.900000E-01   1.00800           0
     41812 MEMB     352      POPC     H8Y      HAL2     0.900000E-01   1.00800           0
     41813 MEMB     352      POPC     C39      CTL2    -0.180000       12.0110           0
     41814 MEMB     352      POPC     H9X      HAL2     0.900000E-01   1.00800           0
     41815 MEMB     352      POPC     H9Y      HAL2     0.900000E-01   1.00800           0
     41816 MEMB     352      POPC     C310     CTL2    -0.180000       12.0110           0
     41817 MEMB     352      POPC     H10X     HAL2     0.900000E-01   1.00800           0
     41818 MEMB     352      POPC     H10Y     HAL2     0.900000E-01   1.00800           0
     41819 MEMB     352      POPC     C311     CTL2    -0.180000       12.0110           0
     41820 MEMB     352      POPC     H11X     HAL2     0.900000E-01   1.00800           0
     41821 MEMB     352      POPC     H11Y     HAL2     0.900000E-01   1.00800           0
     41822 MEMB     352      POPC     C312     CTL2    -0.180000       12.0110           0
     41823 MEMB     352      POPC     H12X     HAL2     0.900000E-01   1.00800           0
     41824 MEMB     352      POPC     H12Y     HAL2     0.900000E-01   1.00800           0
     41825 MEMB     352      POPC     C313     CTL2    -0.180000       12.0110           0
     41826 MEMB     352      POPC     H13X     HAL2     0.900000E-01   1.00800           0
     41827 MEMB     352      POPC     H13Y     HAL2     0.900000E-01   1.00800           0
     41828 MEMB     352      POPC     C314     CTL2    -0.180000       12.0110           0
     41829 MEMB     352      POPC     H14X     HAL2     0.900000E-01   1.00800           0
     41830 MEMB     352      POPC     H14Y     HAL2     0.900000E-01   1.00800           0
     41831 MEMB     352      POPC     C315     CTL2    -0.180000       12.0110           0
     41832 MEMB     352      POPC     H15X     HAL2     0.900000E-01   1.00800           0
     41833 MEMB     352      POPC     H15Y     HAL2     0.900000E-01   1.00800           0
     41834 MEMB     352      POPC     C316     CTL3    -0.270000       12.0110           0
     41835 MEMB     352      POPC     H16X     HAL3     0.900000E-01   1.00800           0
     41836 MEMB     352      POPC     H16Y     HAL3     0.900000E-01   1.00800           0
     41837 MEMB     352      POPC     H16Z     HAL3     0.900000E-01   1.00800           0
     41838 MEMB     353      POPE     N        NH3L    -0.300000       14.0070           0
     41839 MEMB     353      POPE     HN1      HCL      0.330000       1.00800           0
     41840 MEMB     353      POPE     HN2      HCL      0.330000       1.00800           0
     41841 MEMB     353      POPE     HN3      HCL      0.330000       1.00800           0
     41842 MEMB     353      POPE     C12      CTL2     0.130000       12.0110           0
     41843 MEMB     353      POPE     H12A     HAL2     0.900000E-01   1.00800           0
     41844 MEMB     353      POPE     H12B     HAL2     0.900000E-01   1.00800           0
     41845 MEMB     353      POPE     C11      CTL2    -0.800000E-01   12.0110           0
     41846 MEMB     353      POPE     H11A     HAL2     0.900000E-01   1.00800           0
     41847 MEMB     353      POPE     H11B     HAL2     0.900000E-01   1.00800           0
     41848 MEMB     353      POPE     P        PL        1.50000       30.9740           0
     41849 MEMB     353      POPE     O13      O2L     -0.780000       15.9994           0
     41850 MEMB     353      POPE     O14      O2L     -0.780000       15.9994           0
     41851 MEMB     353      POPE     O11      OSLP    -0.570000       15.9994           0
     41852 MEMB     353      POPE     O12      OSLP    -0.570000       15.9994           0
     41853 MEMB     353      POPE     C1       CTL2    -0.800000E-01   12.0110           0
     41854 MEMB     353      POPE     HA       HAL2     0.900000E-01   1.00800           0
     41855 MEMB     353      POPE     HB       HAL2     0.900000E-01   1.00800           0
     41856 MEMB     353      POPE     C2       CTL1     0.170000       12.0110           0
     41857 MEMB     353      POPE     HS       HAL1     0.900000E-01   1.00800           0
     41858 MEMB     353      POPE     O21      OSL     -0.490000       15.9994           0
     41859 MEMB     353      POPE     C21      CL       0.900000       12.0110           0
     41860 MEMB     353      POPE     O22      OBL     -0.630000       15.9994           0
     41861 MEMB     353      POPE     C22      CTL2    -0.220000       12.0110           0
     41862 MEMB     353      POPE     H2R      HAL2     0.900000E-01   1.00800           0
     41863 MEMB     353      POPE     H2S      HAL2     0.900000E-01   1.00800           0
     41864 MEMB     353      POPE     C3       CTL2     0.800000E-01   12.0110           0
     41865 MEMB     353      POPE     HX       HAL2     0.900000E-01   1.00800           0
     41866 MEMB     353      POPE     HY       HAL2     0.900000E-01   1.00800           0
     41867 MEMB     353      POPE     O31      OSL     -0.490000       15.9994           0
     41868 MEMB     353      POPE     C31      CL       0.900000       12.0110           0
     41869 MEMB     353      POPE     O32      OBL     -0.630000       15.9994           0
     41870 MEMB     353      POPE     C32      CTL2    -0.220000       12.0110           0
     41871 MEMB     353      POPE     H2X      HAL2     0.900000E-01   1.00800           0
     41872 MEMB     353      POPE     H2Y      HAL2     0.900000E-01   1.00800           0
     41873 MEMB     353      POPE     C23      CTL2    -0.180000       12.0110           0
     41874 MEMB     353      POPE     H3R      HAL2     0.900000E-01   1.00800           0
     41875 MEMB     353      POPE     H3S      HAL2     0.900000E-01   1.00800           0
     41876 MEMB     353      POPE     C24      CTL2    -0.180000       12.0110           0
     41877 MEMB     353      POPE     H4R      HAL2     0.900000E-01   1.00800           0
     41878 MEMB     353      POPE     H4S      HAL2     0.900000E-01   1.00800           0
     41879 MEMB     353      POPE     C25      CTL2    -0.180000       12.0110           0
     41880 MEMB     353      POPE     H5R      HAL2     0.900000E-01   1.00800           0
     41881 MEMB     353      POPE     H5S      HAL2     0.900000E-01   1.00800           0
     41882 MEMB     353      POPE     C26      CTL2    -0.180000       12.0110           0
     41883 MEMB     353      POPE     H6R      HAL2     0.900000E-01   1.00800           0
     41884 MEMB     353      POPE     H6S      HAL2     0.900000E-01   1.00800           0
     41885 MEMB     353      POPE     C27      CTL2    -0.180000       12.0110           0
     41886 MEMB     353      POPE     H7R      HAL2     0.900000E-01   1.00800           0
     41887 MEMB     353      POPE     H7S      HAL2     0.900000E-01   1.00800           0
     41888 MEMB     353      POPE     C28      CTL2    -0.180000       12.0110           0
     41889 MEMB     353      POPE     H8R      HAL2     0.900000E-01   1.00800           0
     41890 MEMB     353      POPE     H8S      HAL2     0.900000E-01   1.00800           0
     41891 MEMB     353      POPE     C29      CEL1    -0.150000       12.0110           0
     41892 MEMB     353      POPE     H91      HEL1     0.150000       1.00800           0
     41893 MEMB     353      POPE     C210     CEL1    -0.150000       12.0110           0
     41894 MEMB     353      POPE     H101     HEL1     0.150000       1.00800           0
     41895 MEMB     353      POPE     C211     CTL2    -0.180000       12.0110           0
     41896 MEMB     353      POPE     H11R     HAL2     0.900000E-01   1.00800           0
     41897 MEMB     353      POPE     H11S     HAL2     0.900000E-01   1.00800           0
     41898 MEMB     353      POPE     C212     CTL2    -0.180000       12.0110           0
     41899 MEMB     353      POPE     H12R     HAL2     0.900000E-01   1.00800           0
     41900 MEMB     353      POPE     H12S     HAL2     0.900000E-01   1.00800           0
     41901 MEMB     353      POPE     C213     CTL2    -0.180000       12.0110           0
     41902 MEMB     353      POPE     H13R     HAL2     0.900000E-01   1.00800           0
     41903 MEMB     353      POPE     H13S     HAL2     0.900000E-01   1.00800           0
     41904 MEMB     353      POPE     C214     CTL2    -0.180000       12.0110           0
     41905 MEMB     353      POPE     H14R     HAL2     0.900000E-01   1.00800           0
     41906 MEMB     353      POPE     H14S     HAL2     0.900000E-01   1.00800           0
     41907 MEMB     353      POPE     C215     CTL2    -0.180000       12.0110           0
     41908 MEMB     353      POPE     H15R     HAL2     0.900000E-01   1.00800           0
     41909 MEMB     353      POPE     H15S     HAL2     0.900000E-01   1.00800           0
     41910 MEMB     353      POPE     C216     CTL2    -0.180000       12.0110           0
     41911 MEMB     353      POPE     H16R     HAL2     0.900000E-01   1.00800           0
     41912 MEMB     353      POPE     H16S     HAL2     0.900000E-01   1.00800           0
     41913 MEMB     353      POPE     C217     CTL2    -0.180000       12.0110           0
     41914 MEMB     353      POPE     H17R     HAL2     0.900000E-01   1.00800           0
     41915 MEMB     353      POPE     H17S     HAL2     0.900000E-01   1.00800           0
     41916 MEMB     353      POPE     C218     CTL3    -0.270000       12.0110           0
     41917 MEMB     353      POPE     H18R     HAL3     0.900000E-01   1.00800           0
     41918 MEMB     353      POPE     H18S     HAL3     0.900000E-01   1.00800           0
     41919 MEMB     353      POPE     H18T     HAL3     0.900000E-01   1.00800           0
     41920 MEMB     353      POPE     C33      CTL2    -0.180000       12.0110           0
     41921 MEMB     353      POPE     H3X      HAL2     0.900000E-01   1.00800           0
     41922 MEMB     353      POPE     H3Y      HAL2     0.900000E-01   1.00800           0
     41923 MEMB     353      POPE     C34      CTL2    -0.180000       12.0110           0
     41924 MEMB     353      POPE     H4X      HAL2     0.900000E-01   1.00800           0
     41925 MEMB     353      POPE     H4Y      HAL2     0.900000E-01   1.00800           0
     41926 MEMB     353      POPE     C35      CTL2    -0.180000       12.0110           0
     41927 MEMB     353      POPE     H5X      HAL2     0.900000E-01   1.00800           0
     41928 MEMB     353      POPE     H5Y      HAL2     0.900000E-01   1.00800           0
     41929 MEMB     353      POPE     C36      CTL2    -0.180000       12.0110           0
     41930 MEMB     353      POPE     H6X      HAL2     0.900000E-01   1.00800           0
     41931 MEMB     353      POPE     H6Y      HAL2     0.900000E-01   1.00800           0
     41932 MEMB     353      POPE     C37      CTL2    -0.180000       12.0110           0
     41933 MEMB     353      POPE     H7X      HAL2     0.900000E-01   1.00800           0
     41934 MEMB     353      POPE     H7Y      HAL2     0.900000E-01   1.00800           0
     41935 MEMB     353      POPE     C38      CTL2    -0.180000       12.0110           0
     41936 MEMB     353      POPE     H8X      HAL2     0.900000E-01   1.00800           0
     41937 MEMB     353      POPE     H8Y      HAL2     0.900000E-01   1.00800           0
     41938 MEMB     353      POPE     C39      CTL2    -0.180000       12.0110           0
     41939 MEMB     353      POPE     H9X      HAL2     0.900000E-01   1.00800           0
     41940 MEMB     353      POPE     H9Y      HAL2     0.900000E-01   1.00800           0
     41941 MEMB     353      POPE     C310     CTL2    -0.180000       12.0110           0
     41942 MEMB     353      POPE     H10X     HAL2     0.900000E-01   1.00800           0
     41943 MEMB     353      POPE     H10Y     HAL2     0.900000E-01   1.00800           0
     41944 MEMB     353      POPE     C311     CTL2    -0.180000       12.0110           0
     41945 MEMB     353      POPE     H11X     HAL2     0.900000E-01   1.00800           0
     41946 MEMB     353      POPE     H11Y     HAL2     0.900000E-01   1.00800           0
     41947 MEMB     353      POPE     C312     CTL2    -0.180000       12.0110           0
     41948 MEMB     353      POPE     H12X     HAL2     0.900000E-01   1.00800           0
     41949 MEMB     353      POPE     H12Y     HAL2     0.900000E-01   1.00800           0
     41950 MEMB     353      POPE     C313     CTL2    -0.180000       12.0110           0
     41951 MEMB     353      POPE     H13X     HAL2     0.900000E-01   1.00800           0
     41952 MEMB     353      POPE     H13Y     HAL2     0.900000E-01   1.00800           0
     41953 MEMB     353      POPE     C314     CTL2    -0.180000       12.0110           0
     41954 MEMB     353      POPE     H14X     HAL2     0.900000E-01   1.00800           0
     41955 MEMB     353      POPE     H14Y     HAL2     0.900000E-01   1.00800           0
     41956 MEMB     353      POPE     C315     CTL2    -0.180000       12.0110           0
     41957 MEMB     353      POPE     H15X     HAL2     0.900000E-01   1.00800           0
     41958 MEMB     353      POPE     H15Y     HAL2     0.900000E-01   1.00800           0
     41959 MEMB     353      POPE     C316     CTL3    -0.270000       12.0110           0
     41960 MEMB     353      POPE     H16X     HAL3     0.900000E-01   1.00800           0
     41961 MEMB     353      POPE     H16Y     HAL3     0.900000E-01   1.00800           0
     41962 MEMB     353      POPE     H16Z     HAL3     0.900000E-01   1.00800           0
     41963 MEMB     354      POPC     N        NTL     -0.600000       14.0070           0
     41964 MEMB     354      POPC     C12      CTL2    -0.100000       12.0110           0
     41965 MEMB     354      POPC     H12A     HL       0.250000       1.00800           0
     41966 MEMB     354      POPC     H12B     HL       0.250000       1.00800           0
     41967 MEMB     354      POPC     C13      CTL5    -0.350000       12.0110           0
     41968 MEMB     354      POPC     H13A     HL       0.250000       1.00800           0
     41969 MEMB     354      POPC     H13B     HL       0.250000       1.00800           0
     41970 MEMB     354      POPC     H13C     HL       0.250000       1.00800           0
     41971 MEMB     354      POPC     C14      CTL5    -0.350000       12.0110           0
     41972 MEMB     354      POPC     H14A     HL       0.250000       1.00800           0
     41973 MEMB     354      POPC     H14B     HL       0.250000       1.00800           0
     41974 MEMB     354      POPC     H14C     HL       0.250000       1.00800           0
     41975 MEMB     354      POPC     C15      CTL5    -0.350000       12.0110           0
     41976 MEMB     354      POPC     H15A     HL       0.250000       1.00800           0
     41977 MEMB     354      POPC     H15B     HL       0.250000       1.00800           0
     41978 MEMB     354      POPC     H15C     HL       0.250000       1.00800           0
     41979 MEMB     354      POPC     C11      CTL2    -0.800000E-01   12.0110           0
     41980 MEMB     354      POPC     H11A     HAL2     0.900000E-01   1.00800           0
     41981 MEMB     354      POPC     H11B     HAL2     0.900000E-01   1.00800           0
     41982 MEMB     354      POPC     P        PL        1.50000       30.9740           0
     41983 MEMB     354      POPC     O13      O2L     -0.780000       15.9994           0
     41984 MEMB     354      POPC     O14      O2L     -0.780000       15.9994           0
     41985 MEMB     354      POPC     O12      OSLP    -0.570000       15.9994           0
     41986 MEMB     354      POPC     O11      OSLP    -0.570000       15.9994           0
     41987 MEMB     354      POPC     C1       CTL2    -0.800000E-01   12.0110           0
     41988 MEMB     354      POPC     HA       HAL2     0.900000E-01   1.00800           0
     41989 MEMB     354      POPC     HB       HAL2     0.900000E-01   1.00800           0
     41990 MEMB     354      POPC     C2       CTL1     0.170000       12.0110           0
     41991 MEMB     354      POPC     HS       HAL1     0.900000E-01   1.00800           0
     41992 MEMB     354      POPC     O21      OSL     -0.490000       15.9994           0
     41993 MEMB     354      POPC     C21      CL       0.900000       12.0110           0
     41994 MEMB     354      POPC     O22      OBL     -0.630000       15.9994           0
     41995 MEMB     354      POPC     C22      CTL2    -0.220000       12.0110           0
     41996 MEMB     354      POPC     H2R      HAL2     0.900000E-01   1.00800           0
     41997 MEMB     354      POPC     H2S      HAL2     0.900000E-01   1.00800           0
     41998 MEMB     354      POPC     C3       CTL2     0.800000E-01   12.0110           0
     41999 MEMB     354      POPC     HX       HAL2     0.900000E-01   1.00800           0
     42000 MEMB     354      POPC     HY       HAL2     0.900000E-01   1.00800           0
     42001 MEMB     354      POPC     O31      OSL     -0.490000       15.9994           0
     42002 MEMB     354      POPC     C31      CL       0.900000       12.0110           0
     42003 MEMB     354      POPC     O32      OBL     -0.630000       15.9994           0
     42004 MEMB     354      POPC     C32      CTL2    -0.220000       12.0110           0
     42005 MEMB     354      POPC     H2X      HAL2     0.900000E-01   1.00800           0
     42006 MEMB     354      POPC     H2Y      HAL2     0.900000E-01   1.00800           0
     42007 MEMB     354      POPC     C23      CTL2    -0.180000       12.0110           0
     42008 MEMB     354      POPC     H3R      HAL2     0.900000E-01   1.00800           0
     42009 MEMB     354      POPC     H3S      HAL2     0.900000E-01   1.00800           0
     42010 MEMB     354      POPC     C24      CTL2    -0.180000       12.0110           0
     42011 MEMB     354      POPC     H4R      HAL2     0.900000E-01   1.00800           0
     42012 MEMB     354      POPC     H4S      HAL2     0.900000E-01   1.00800           0
     42013 MEMB     354      POPC     C25      CTL2    -0.180000       12.0110           0
     42014 MEMB     354      POPC     H5R      HAL2     0.900000E-01   1.00800           0
     42015 MEMB     354      POPC     H5S      HAL2     0.900000E-01   1.00800           0
     42016 MEMB     354      POPC     C26      CTL2    -0.180000       12.0110           0
     42017 MEMB     354      POPC     H6R      HAL2     0.900000E-01   1.00800           0
     42018 MEMB     354      POPC     H6S      HAL2     0.900000E-01   1.00800           0
     42019 MEMB     354      POPC     C27      CTL2    -0.180000       12.0110           0
     42020 MEMB     354      POPC     H7R      HAL2     0.900000E-01   1.00800           0
     42021 MEMB     354      POPC     H7S      HAL2     0.900000E-01   1.00800           0
     42022 MEMB     354      POPC     C28      CTL2    -0.180000       12.0110           0
     42023 MEMB     354      POPC     H8R      HAL2     0.900000E-01   1.00800           0
     42024 MEMB     354      POPC     H8S      HAL2     0.900000E-01   1.00800           0
     42025 MEMB     354      POPC     C29      CEL1    -0.150000       12.0110           0
     42026 MEMB     354      POPC     H91      HEL1     0.150000       1.00800           0
     42027 MEMB     354      POPC     C210     CEL1    -0.150000       12.0110           0
     42028 MEMB     354      POPC     H101     HEL1     0.150000       1.00800           0
     42029 MEMB     354      POPC     C211     CTL2    -0.180000       12.0110           0
     42030 MEMB     354      POPC     H11R     HAL2     0.900000E-01   1.00800           0
     42031 MEMB     354      POPC     H11S     HAL2     0.900000E-01   1.00800           0
     42032 MEMB     354      POPC     C212     CTL2    -0.180000       12.0110           0
     42033 MEMB     354      POPC     H12R     HAL2     0.900000E-01   1.00800           0
     42034 MEMB     354      POPC     H12S     HAL2     0.900000E-01   1.00800           0
     42035 MEMB     354      POPC     C213     CTL2    -0.180000       12.0110           0
     42036 MEMB     354      POPC     H13R     HAL2     0.900000E-01   1.00800           0
     42037 MEMB     354      POPC     H13S     HAL2     0.900000E-01   1.00800           0
     42038 MEMB     354      POPC     C214     CTL2    -0.180000       12.0110           0
     42039 MEMB     354      POPC     H14R     HAL2     0.900000E-01   1.00800           0
     42040 MEMB     354      POPC     H14S     HAL2     0.900000E-01   1.00800           0
     42041 MEMB     354      POPC     C215     CTL2    -0.180000       12.0110           0
     42042 MEMB     354      POPC     H15R     HAL2     0.900000E-01   1.00800           0
     42043 MEMB     354      POPC     H15S     HAL2     0.900000E-01   1.00800           0
     42044 MEMB     354      POPC     C216     CTL2    -0.180000       12.0110           0
     42045 MEMB     354      POPC     H16R     HAL2     0.900000E-01   1.00800           0
     42046 MEMB     354      POPC     H16S     HAL2     0.900000E-01   1.00800           0
     42047 MEMB     354      POPC     C217     CTL2    -0.180000       12.0110           0
     42048 MEMB     354      POPC     H17R     HAL2     0.900000E-01   1.00800           0
     42049 MEMB     354      POPC     H17S     HAL2     0.900000E-01   1.00800           0
     42050 MEMB     354      POPC     C218     CTL3    -0.270000       12.0110           0
     42051 MEMB     354      POPC     H18R     HAL3     0.900000E-01   1.00800           0
     42052 MEMB     354      POPC     H18S     HAL3     0.900000E-01   1.00800           0
     42053 MEMB     354      POPC     H18T     HAL3     0.900000E-01   1.00800           0
     42054 MEMB     354      POPC     C33      CTL2    -0.180000       12.0110           0
     42055 MEMB     354      POPC     H3X      HAL2     0.900000E-01   1.00800           0
     42056 MEMB     354      POPC     H3Y      HAL2     0.900000E-01   1.00800           0
     42057 MEMB     354      POPC     C34      CTL2    -0.180000       12.0110           0
     42058 MEMB     354      POPC     H4X      HAL2     0.900000E-01   1.00800           0
     42059 MEMB     354      POPC     H4Y      HAL2     0.900000E-01   1.00800           0
     42060 MEMB     354      POPC     C35      CTL2    -0.180000       12.0110           0
     42061 MEMB     354      POPC     H5X      HAL2     0.900000E-01   1.00800           0
     42062 MEMB     354      POPC     H5Y      HAL2     0.900000E-01   1.00800           0
     42063 MEMB     354      POPC     C36      CTL2    -0.180000       12.0110           0
     42064 MEMB     354      POPC     H6X      HAL2     0.900000E-01   1.00800           0
     42065 MEMB     354      POPC     H6Y      HAL2     0.900000E-01   1.00800           0
     42066 MEMB     354      POPC     C37      CTL2    -0.180000       12.0110           0
     42067 MEMB     354      POPC     H7X      HAL2     0.900000E-01   1.00800           0
     42068 MEMB     354      POPC     H7Y      HAL2     0.900000E-01   1.00800           0
     42069 MEMB     354      POPC     C38      CTL2    -0.180000       12.0110           0
     42070 MEMB     354      POPC     H8X      HAL2     0.900000E-01   1.00800           0
     42071 MEMB     354      POPC     H8Y      HAL2     0.900000E-01   1.00800           0
     42072 MEMB     354      POPC     C39      CTL2    -0.180000       12.0110           0
     42073 MEMB     354      POPC     H9X      HAL2     0.900000E-01   1.00800           0
     42074 MEMB     354      POPC     H9Y      HAL2     0.900000E-01   1.00800           0
     42075 MEMB     354      POPC     C310     CTL2    -0.180000       12.0110           0
     42076 MEMB     354      POPC     H10X     HAL2     0.900000E-01   1.00800           0
     42077 MEMB     354      POPC     H10Y     HAL2     0.900000E-01   1.00800           0
     42078 MEMB     354      POPC     C311     CTL2    -0.180000       12.0110           0
     42079 MEMB     354      POPC     H11X     HAL2     0.900000E-01   1.00800           0
     42080 MEMB     354      POPC     H11Y     HAL2     0.900000E-01   1.00800           0
     42081 MEMB     354      POPC     C312     CTL2    -0.180000       12.0110           0
     42082 MEMB     354      POPC     H12X     HAL2     0.900000E-01   1.00800           0
     42083 MEMB     354      POPC     H12Y     HAL2     0.900000E-01   1.00800           0
     42084 MEMB     354      POPC     C313     CTL2    -0.180000       12.0110           0
     42085 MEMB     354      POPC     H13X     HAL2     0.900000E-01   1.00800           0
     42086 MEMB     354      POPC     H13Y     HAL2     0.900000E-01   1.00800           0
     42087 MEMB     354      POPC     C314     CTL2    -0.180000       12.0110           0
     42088 MEMB     354      POPC     H14X     HAL2     0.900000E-01   1.00800           0
     42089 MEMB     354      POPC     H14Y     HAL2     0.900000E-01   1.00800           0
     42090 MEMB     354      POPC     C315     CTL2    -0.180000       12.0110           0
     42091 MEMB     354      POPC     H15X     HAL2     0.900000E-01   1.00800           0
     42092 MEMB     354      POPC     H15Y     HAL2     0.900000E-01   1.00800           0
     42093 MEMB     354      POPC     C316     CTL3    -0.270000       12.0110           0
     42094 MEMB     354      POPC     H16X     HAL3     0.900000E-01   1.00800           0
     42095 MEMB     354      POPC     H16Y     HAL3     0.900000E-01   1.00800           0
     42096 MEMB     354      POPC     H16Z     HAL3     0.900000E-01   1.00800           0
     42097 MEMB     355      POPE     N        NH3L    -0.300000       14.0070           0
     42098 MEMB     355      POPE     HN1      HCL      0.330000       1.00800           0
     42099 MEMB     355      POPE     HN2      HCL      0.330000       1.00800           0
     42100 MEMB     355      POPE     HN3      HCL      0.330000       1.00800           0
     42101 MEMB     355      POPE     C12      CTL2     0.130000       12.0110           0
     42102 MEMB     355      POPE     H12A     HAL2     0.900000E-01   1.00800           0
     42103 MEMB     355      POPE     H12B     HAL2     0.900000E-01   1.00800           0
     42104 MEMB     355      POPE     C11      CTL2    -0.800000E-01   12.0110           0
     42105 MEMB     355      POPE     H11A     HAL2     0.900000E-01   1.00800           0
     42106 MEMB     355      POPE     H11B     HAL2     0.900000E-01   1.00800           0
     42107 MEMB     355      POPE     P        PL        1.50000       30.9740           0
     42108 MEMB     355      POPE     O13      O2L     -0.780000       15.9994           0
     42109 MEMB     355      POPE     O14      O2L     -0.780000       15.9994           0
     42110 MEMB     355      POPE     O11      OSLP    -0.570000       15.9994           0
     42111 MEMB     355      POPE     O12      OSLP    -0.570000       15.9994           0
     42112 MEMB     355      POPE     C1       CTL2    -0.800000E-01   12.0110           0
     42113 MEMB     355      POPE     HA       HAL2     0.900000E-01   1.00800           0
     42114 MEMB     355      POPE     HB       HAL2     0.900000E-01   1.00800           0
     42115 MEMB     355      POPE     C2       CTL1     0.170000       12.0110           0
     42116 MEMB     355      POPE     HS       HAL1     0.900000E-01   1.00800           0
     42117 MEMB     355      POPE     O21      OSL     -0.490000       15.9994           0
     42118 MEMB     355      POPE     C21      CL       0.900000       12.0110           0
     42119 MEMB     355      POPE     O22      OBL     -0.630000       15.9994           0
     42120 MEMB     355      POPE     C22      CTL2    -0.220000       12.0110           0
     42121 MEMB     355      POPE     H2R      HAL2     0.900000E-01   1.00800           0
     42122 MEMB     355      POPE     H2S      HAL2     0.900000E-01   1.00800           0
     42123 MEMB     355      POPE     C3       CTL2     0.800000E-01   12.0110           0
     42124 MEMB     355      POPE     HX       HAL2     0.900000E-01   1.00800           0
     42125 MEMB     355      POPE     HY       HAL2     0.900000E-01   1.00800           0
     42126 MEMB     355      POPE     O31      OSL     -0.490000       15.9994           0
     42127 MEMB     355      POPE     C31      CL       0.900000       12.0110           0
     42128 MEMB     355      POPE     O32      OBL     -0.630000       15.9994           0
     42129 MEMB     355      POPE     C32      CTL2    -0.220000       12.0110           0
     42130 MEMB     355      POPE     H2X      HAL2     0.900000E-01   1.00800           0
     42131 MEMB     355      POPE     H2Y      HAL2     0.900000E-01   1.00800           0
     42132 MEMB     355      POPE     C23      CTL2    -0.180000       12.0110           0
     42133 MEMB     355      POPE     H3R      HAL2     0.900000E-01   1.00800           0
     42134 MEMB     355      POPE     H3S      HAL2     0.900000E-01   1.00800           0
     42135 MEMB     355      POPE     C24      CTL2    -0.180000       12.0110           0
     42136 MEMB     355      POPE     H4R      HAL2     0.900000E-01   1.00800           0
     42137 MEMB     355      POPE     H4S      HAL2     0.900000E-01   1.00800           0
     42138 MEMB     355      POPE     C25      CTL2    -0.180000       12.0110           0
     42139 MEMB     355      POPE     H5R      HAL2     0.900000E-01   1.00800           0
     42140 MEMB     355      POPE     H5S      HAL2     0.900000E-01   1.00800           0
     42141 MEMB     355      POPE     C26      CTL2    -0.180000       12.0110           0
     42142 MEMB     355      POPE     H6R      HAL2     0.900000E-01   1.00800           0
     42143 MEMB     355      POPE     H6S      HAL2     0.900000E-01   1.00800           0
     42144 MEMB     355      POPE     C27      CTL2    -0.180000       12.0110           0
     42145 MEMB     355      POPE     H7R      HAL2     0.900000E-01   1.00800           0
     42146 MEMB     355      POPE     H7S      HAL2     0.900000E-01   1.00800           0
     42147 MEMB     355      POPE     C28      CTL2    -0.180000       12.0110           0
     42148 MEMB     355      POPE     H8R      HAL2     0.900000E-01   1.00800           0
     42149 MEMB     355      POPE     H8S      HAL2     0.900000E-01   1.00800           0
     42150 MEMB     355      POPE     C29      CEL1    -0.150000       12.0110           0
     42151 MEMB     355      POPE     H91      HEL1     0.150000       1.00800           0
     42152 MEMB     355      POPE     C210     CEL1    -0.150000       12.0110           0
     42153 MEMB     355      POPE     H101     HEL1     0.150000       1.00800           0
     42154 MEMB     355      POPE     C211     CTL2    -0.180000       12.0110           0
     42155 MEMB     355      POPE     H11R     HAL2     0.900000E-01   1.00800           0
     42156 MEMB     355      POPE     H11S     HAL2     0.900000E-01   1.00800           0
     42157 MEMB     355      POPE     C212     CTL2    -0.180000       12.0110           0
     42158 MEMB     355      POPE     H12R     HAL2     0.900000E-01   1.00800           0
     42159 MEMB     355      POPE     H12S     HAL2     0.900000E-01   1.00800           0
     42160 MEMB     355      POPE     C213     CTL2    -0.180000       12.0110           0
     42161 MEMB     355      POPE     H13R     HAL2     0.900000E-01   1.00800           0
     42162 MEMB     355      POPE     H13S     HAL2     0.900000E-01   1.00800           0
     42163 MEMB     355      POPE     C214     CTL2    -0.180000       12.0110           0
     42164 MEMB     355      POPE     H14R     HAL2     0.900000E-01   1.00800           0
     42165 MEMB     355      POPE     H14S     HAL2     0.900000E-01   1.00800           0
     42166 MEMB     355      POPE     C215     CTL2    -0.180000       12.0110           0
     42167 MEMB     355      POPE     H15R     HAL2     0.900000E-01   1.00800           0
     42168 MEMB     355      POPE     H15S     HAL2     0.900000E-01   1.00800           0
     42169 MEMB     355      POPE     C216     CTL2    -0.180000       12.0110           0
     42170 MEMB     355      POPE     H16R     HAL2     0.900000E-01   1.00800           0
     42171 MEMB     355      POPE     H16S     HAL2     0.900000E-01   1.00800           0
     42172 MEMB     355      POPE     C217     CTL2    -0.180000       12.0110           0
     42173 MEMB     355      POPE     H17R     HAL2     0.900000E-01   1.00800           0
     42174 MEMB     355      POPE     H17S     HAL2     0.900000E-01   1.00800           0
     42175 MEMB     355      POPE     C218     CTL3    -0.270000       12.0110           0
     42176 MEMB     355      POPE     H18R     HAL3     0.900000E-01   1.00800           0
     42177 MEMB     355      POPE     H18S     HAL3     0.900000E-01   1.00800           0
     42178 MEMB     355      POPE     H18T     HAL3     0.900000E-01   1.00800           0
     42179 MEMB     355      POPE     C33      CTL2    -0.180000       12.0110           0
     42180 MEMB     355      POPE     H3X      HAL2     0.900000E-01   1.00800           0
     42181 MEMB     355      POPE     H3Y      HAL2     0.900000E-01   1.00800           0
     42182 MEMB     355      POPE     C34      CTL2    -0.180000       12.0110           0
     42183 MEMB     355      POPE     H4X      HAL2     0.900000E-01   1.00800           0
     42184 MEMB     355      POPE     H4Y      HAL2     0.900000E-01   1.00800           0
     42185 MEMB     355      POPE     C35      CTL2    -0.180000       12.0110           0
     42186 MEMB     355      POPE     H5X      HAL2     0.900000E-01   1.00800           0
     42187 MEMB     355      POPE     H5Y      HAL2     0.900000E-01   1.00800           0
     42188 MEMB     355      POPE     C36      CTL2    -0.180000       12.0110           0
     42189 MEMB     355      POPE     H6X      HAL2     0.900000E-01   1.00800           0
     42190 MEMB     355      POPE     H6Y      HAL2     0.900000E-01   1.00800           0
     42191 MEMB     355      POPE     C37      CTL2    -0.180000       12.0110           0
     42192 MEMB     355      POPE     H7X      HAL2     0.900000E-01   1.00800           0
     42193 MEMB     355      POPE     H7Y      HAL2     0.900000E-01   1.00800           0
     42194 MEMB     355      POPE     C38      CTL2    -0.180000       12.0110           0
     42195 MEMB     355      POPE     H8X      HAL2     0.900000E-01   1.00800           0
     42196 MEMB     355      POPE     H8Y      HAL2     0.900000E-01   1.00800           0
     42197 MEMB     355      POPE     C39      CTL2    -0.180000       12.0110           0
     42198 MEMB     355      POPE     H9X      HAL2     0.900000E-01   1.00800           0
     42199 MEMB     355      POPE     H9Y      HAL2     0.900000E-01   1.00800           0
     42200 MEMB     355      POPE     C310     CTL2    -0.180000       12.0110           0
     42201 MEMB     355      POPE     H10X     HAL2     0.900000E-01   1.00800           0
     42202 MEMB     355      POPE     H10Y     HAL2     0.900000E-01   1.00800           0
     42203 MEMB     355      POPE     C311     CTL2    -0.180000       12.0110           0
     42204 MEMB     355      POPE     H11X     HAL2     0.900000E-01   1.00800           0
     42205 MEMB     355      POPE     H11Y     HAL2     0.900000E-01   1.00800           0
     42206 MEMB     355      POPE     C312     CTL2    -0.180000       12.0110           0
     42207 MEMB     355      POPE     H12X     HAL2     0.900000E-01   1.00800           0
     42208 MEMB     355      POPE     H12Y     HAL2     0.900000E-01   1.00800           0
     42209 MEMB     355      POPE     C313     CTL2    -0.180000       12.0110           0
     42210 MEMB     355      POPE     H13X     HAL2     0.900000E-01   1.00800           0
     42211 MEMB     355      POPE     H13Y     HAL2     0.900000E-01   1.00800           0
     42212 MEMB     355      POPE     C314     CTL2    -0.180000       12.0110           0
     42213 MEMB     355      POPE     H14X     HAL2     0.900000E-01   1.00800           0
     42214 MEMB     355      POPE     H14Y     HAL2     0.900000E-01   1.00800           0
     42215 MEMB     355      POPE     C315     CTL2    -0.180000       12.0110           0
     42216 MEMB     355      POPE     H15X     HAL2     0.900000E-01   1.00800           0
     42217 MEMB     355      POPE     H15Y     HAL2     0.900000E-01   1.00800           0
     42218 MEMB     355      POPE     C316     CTL3    -0.270000       12.0110           0
     42219 MEMB     355      POPE     H16X     HAL3     0.900000E-01   1.00800           0
     42220 MEMB     355      POPE     H16Y     HAL3     0.900000E-01   1.00800           0
     42221 MEMB     355      POPE     H16Z     HAL3     0.900000E-01   1.00800           0
     42222 MEMB     356      POPE     N        NH3L    -0.300000       14.0070           0
     42223 MEMB     356      POPE     HN1      HCL      0.330000       1.00800           0
     42224 MEMB     356      POPE     HN2      HCL      0.330000       1.00800           0
     42225 MEMB     356      POPE     HN3      HCL      0.330000       1.00800           0
     42226 MEMB     356      POPE     C12      CTL2     0.130000       12.0110           0
     42227 MEMB     356      POPE     H12A     HAL2     0.900000E-01   1.00800           0
     42228 MEMB     356      POPE     H12B     HAL2     0.900000E-01   1.00800           0
     42229 MEMB     356      POPE     C11      CTL2    -0.800000E-01   12.0110           0
     42230 MEMB     356      POPE     H11A     HAL2     0.900000E-01   1.00800           0
     42231 MEMB     356      POPE     H11B     HAL2     0.900000E-01   1.00800           0
     42232 MEMB     356      POPE     P        PL        1.50000       30.9740           0
     42233 MEMB     356      POPE     O13      O2L     -0.780000       15.9994           0
     42234 MEMB     356      POPE     O14      O2L     -0.780000       15.9994           0
     42235 MEMB     356      POPE     O11      OSLP    -0.570000       15.9994           0
     42236 MEMB     356      POPE     O12      OSLP    -0.570000       15.9994           0
     42237 MEMB     356      POPE     C1       CTL2    -0.800000E-01   12.0110           0
     42238 MEMB     356      POPE     HA       HAL2     0.900000E-01   1.00800           0
     42239 MEMB     356      POPE     HB       HAL2     0.900000E-01   1.00800           0
     42240 MEMB     356      POPE     C2       CTL1     0.170000       12.0110           0
     42241 MEMB     356      POPE     HS       HAL1     0.900000E-01   1.00800           0
     42242 MEMB     356      POPE     O21      OSL     -0.490000       15.9994           0
     42243 MEMB     356      POPE     C21      CL       0.900000       12.0110           0
     42244 MEMB     356      POPE     O22      OBL     -0.630000       15.9994           0
     42245 MEMB     356      POPE     C22      CTL2    -0.220000       12.0110           0
     42246 MEMB     356      POPE     H2R      HAL2     0.900000E-01   1.00800           0
     42247 MEMB     356      POPE     H2S      HAL2     0.900000E-01   1.00800           0
     42248 MEMB     356      POPE     C3       CTL2     0.800000E-01   12.0110           0
     42249 MEMB     356      POPE     HX       HAL2     0.900000E-01   1.00800           0
     42250 MEMB     356      POPE     HY       HAL2     0.900000E-01   1.00800           0
     42251 MEMB     356      POPE     O31      OSL     -0.490000       15.9994           0
     42252 MEMB     356      POPE     C31      CL       0.900000       12.0110           0
     42253 MEMB     356      POPE     O32      OBL     -0.630000       15.9994           0
     42254 MEMB     356      POPE     C32      CTL2    -0.220000       12.0110           0
     42255 MEMB     356      POPE     H2X      HAL2     0.900000E-01   1.00800           0
     42256 MEMB     356      POPE     H2Y      HAL2     0.900000E-01   1.00800           0
     42257 MEMB     356      POPE     C23      CTL2    -0.180000       12.0110           0
     42258 MEMB     356      POPE     H3R      HAL2     0.900000E-01   1.00800           0
     42259 MEMB     356      POPE     H3S      HAL2     0.900000E-01   1.00800           0
     42260 MEMB     356      POPE     C24      CTL2    -0.180000       12.0110           0
     42261 MEMB     356      POPE     H4R      HAL2     0.900000E-01   1.00800           0
     42262 MEMB     356      POPE     H4S      HAL2     0.900000E-01   1.00800           0
     42263 MEMB     356      POPE     C25      CTL2    -0.180000       12.0110           0
     42264 MEMB     356      POPE     H5R      HAL2     0.900000E-01   1.00800           0
     42265 MEMB     356      POPE     H5S      HAL2     0.900000E-01   1.00800           0
     42266 MEMB     356      POPE     C26      CTL2    -0.180000       12.0110           0
     42267 MEMB     356      POPE     H6R      HAL2     0.900000E-01   1.00800           0
     42268 MEMB     356      POPE     H6S      HAL2     0.900000E-01   1.00800           0
     42269 MEMB     356      POPE     C27      CTL2    -0.180000       12.0110           0
     42270 MEMB     356      POPE     H7R      HAL2     0.900000E-01   1.00800           0
     42271 MEMB     356      POPE     H7S      HAL2     0.900000E-01   1.00800           0
     42272 MEMB     356      POPE     C28      CTL2    -0.180000       12.0110           0
     42273 MEMB     356      POPE     H8R      HAL2     0.900000E-01   1.00800           0
     42274 MEMB     356      POPE     H8S      HAL2     0.900000E-01   1.00800           0
     42275 MEMB     356      POPE     C29      CEL1    -0.150000       12.0110           0
     42276 MEMB     356      POPE     H91      HEL1     0.150000       1.00800           0
     42277 MEMB     356      POPE     C210     CEL1    -0.150000       12.0110           0
     42278 MEMB     356      POPE     H101     HEL1     0.150000       1.00800           0
     42279 MEMB     356      POPE     C211     CTL2    -0.180000       12.0110           0
     42280 MEMB     356      POPE     H11R     HAL2     0.900000E-01   1.00800           0
     42281 MEMB     356      POPE     H11S     HAL2     0.900000E-01   1.00800           0
     42282 MEMB     356      POPE     C212     CTL2    -0.180000       12.0110           0
     42283 MEMB     356      POPE     H12R     HAL2     0.900000E-01   1.00800           0
     42284 MEMB     356      POPE     H12S     HAL2     0.900000E-01   1.00800           0
     42285 MEMB     356      POPE     C213     CTL2    -0.180000       12.0110           0
     42286 MEMB     356      POPE     H13R     HAL2     0.900000E-01   1.00800           0
     42287 MEMB     356      POPE     H13S     HAL2     0.900000E-01   1.00800           0
     42288 MEMB     356      POPE     C214     CTL2    -0.180000       12.0110           0
     42289 MEMB     356      POPE     H14R     HAL2     0.900000E-01   1.00800           0
     42290 MEMB     356      POPE     H14S     HAL2     0.900000E-01   1.00800           0
     42291 MEMB     356      POPE     C215     CTL2    -0.180000       12.0110           0
     42292 MEMB     356      POPE     H15R     HAL2     0.900000E-01   1.00800           0
     42293 MEMB     356      POPE     H15S     HAL2     0.900000E-01   1.00800           0
     42294 MEMB     356      POPE     C216     CTL2    -0.180000       12.0110           0
     42295 MEMB     356      POPE     H16R     HAL2     0.900000E-01   1.00800           0
     42296 MEMB     356      POPE     H16S     HAL2     0.900000E-01   1.00800           0
     42297 MEMB     356      POPE     C217     CTL2    -0.180000       12.0110           0
     42298 MEMB     356      POPE     H17R     HAL2     0.900000E-01   1.00800           0
     42299 MEMB     356      POPE     H17S     HAL2     0.900000E-01   1.00800           0
     42300 MEMB     356      POPE     C218     CTL3    -0.270000       12.0110           0
     42301 MEMB     356      POPE     H18R     HAL3     0.900000E-01   1.00800           0
     42302 MEMB     356      POPE     H18S     HAL3     0.900000E-01   1.00800           0
     42303 MEMB     356      POPE     H18T     HAL3     0.900000E-01   1.00800           0
     42304 MEMB     356      POPE     C33      CTL2    -0.180000       12.0110           0
     42305 MEMB     356      POPE     H3X      HAL2     0.900000E-01   1.00800           0
     42306 MEMB     356      POPE     H3Y      HAL2     0.900000E-01   1.00800           0
     42307 MEMB     356      POPE     C34      CTL2    -0.180000       12.0110           0
     42308 MEMB     356      POPE     H4X      HAL2     0.900000E-01   1.00800           0
     42309 MEMB     356      POPE     H4Y      HAL2     0.900000E-01   1.00800           0
     42310 MEMB     356      POPE     C35      CTL2    -0.180000       12.0110           0
     42311 MEMB     356      POPE     H5X      HAL2     0.900000E-01   1.00800           0
     42312 MEMB     356      POPE     H5Y      HAL2     0.900000E-01   1.00800           0
     42313 MEMB     356      POPE     C36      CTL2    -0.180000       12.0110           0
     42314 MEMB     356      POPE     H6X      HAL2     0.900000E-01   1.00800           0
     42315 MEMB     356      POPE     H6Y      HAL2     0.900000E-01   1.00800           0
     42316 MEMB     356      POPE     C37      CTL2    -0.180000       12.0110           0
     42317 MEMB     356      POPE     H7X      HAL2     0.900000E-01   1.00800           0
     42318 MEMB     356      POPE     H7Y      HAL2     0.900000E-01   1.00800           0
     42319 MEMB     356      POPE     C38      CTL2    -0.180000       12.0110           0
     42320 MEMB     356      POPE     H8X      HAL2     0.900000E-01   1.00800           0
     42321 MEMB     356      POPE     H8Y      HAL2     0.900000E-01   1.00800           0
     42322 MEMB     356      POPE     C39      CTL2    -0.180000       12.0110           0
     42323 MEMB     356      POPE     H9X      HAL2     0.900000E-01   1.00800           0
     42324 MEMB     356      POPE     H9Y      HAL2     0.900000E-01   1.00800           0
     42325 MEMB     356      POPE     C310     CTL2    -0.180000       12.0110           0
     42326 MEMB     356      POPE     H10X     HAL2     0.900000E-01   1.00800           0
     42327 MEMB     356      POPE     H10Y     HAL2     0.900000E-01   1.00800           0
     42328 MEMB     356      POPE     C311     CTL2    -0.180000       12.0110           0
     42329 MEMB     356      POPE     H11X     HAL2     0.900000E-01   1.00800           0
     42330 MEMB     356      POPE     H11Y     HAL2     0.900000E-01   1.00800           0
     42331 MEMB     356      POPE     C312     CTL2    -0.180000       12.0110           0
     42332 MEMB     356      POPE     H12X     HAL2     0.900000E-01   1.00800           0
     42333 MEMB     356      POPE     H12Y     HAL2     0.900000E-01   1.00800           0
     42334 MEMB     356      POPE     C313     CTL2    -0.180000       12.0110           0
     42335 MEMB     356      POPE     H13X     HAL2     0.900000E-01   1.00800           0
     42336 MEMB     356      POPE     H13Y     HAL2     0.900000E-01   1.00800           0
     42337 MEMB     356      POPE     C314     CTL2    -0.180000       12.0110           0
     42338 MEMB     356      POPE     H14X     HAL2     0.900000E-01   1.00800           0
     42339 MEMB     356      POPE     H14Y     HAL2     0.900000E-01   1.00800           0
     42340 MEMB     356      POPE     C315     CTL2    -0.180000       12.0110           0
     42341 MEMB     356      POPE     H15X     HAL2     0.900000E-01   1.00800           0
     42342 MEMB     356      POPE     H15Y     HAL2     0.900000E-01   1.00800           0
     42343 MEMB     356      POPE     C316     CTL3    -0.270000       12.0110           0
     42344 MEMB     356      POPE     H16X     HAL3     0.900000E-01   1.00800           0
     42345 MEMB     356      POPE     H16Y     HAL3     0.900000E-01   1.00800           0
     42346 MEMB     356      POPE     H16Z     HAL3     0.900000E-01   1.00800           0
     42347 MEMB     357      POPE     N        NH3L    -0.300000       14.0070           0
     42348 MEMB     357      POPE     HN1      HCL      0.330000       1.00800           0
     42349 MEMB     357      POPE     HN2      HCL      0.330000       1.00800           0
     42350 MEMB     357      POPE     HN3      HCL      0.330000       1.00800           0
     42351 MEMB     357      POPE     C12      CTL2     0.130000       12.0110           0
     42352 MEMB     357      POPE     H12A     HAL2     0.900000E-01   1.00800           0
     42353 MEMB     357      POPE     H12B     HAL2     0.900000E-01   1.00800           0
     42354 MEMB     357      POPE     C11      CTL2    -0.800000E-01   12.0110           0
     42355 MEMB     357      POPE     H11A     HAL2     0.900000E-01   1.00800           0
     42356 MEMB     357      POPE     H11B     HAL2     0.900000E-01   1.00800           0
     42357 MEMB     357      POPE     P        PL        1.50000       30.9740           0
     42358 MEMB     357      POPE     O13      O2L     -0.780000       15.9994           0
     42359 MEMB     357      POPE     O14      O2L     -0.780000       15.9994           0
     42360 MEMB     357      POPE     O11      OSLP    -0.570000       15.9994           0
     42361 MEMB     357      POPE     O12      OSLP    -0.570000       15.9994           0
     42362 MEMB     357      POPE     C1       CTL2    -0.800000E-01   12.0110           0
     42363 MEMB     357      POPE     HA       HAL2     0.900000E-01   1.00800           0
     42364 MEMB     357      POPE     HB       HAL2     0.900000E-01   1.00800           0
     42365 MEMB     357      POPE     C2       CTL1     0.170000       12.0110           0
     42366 MEMB     357      POPE     HS       HAL1     0.900000E-01   1.00800           0
     42367 MEMB     357      POPE     O21      OSL     -0.490000       15.9994           0
     42368 MEMB     357      POPE     C21      CL       0.900000       12.0110           0
     42369 MEMB     357      POPE     O22      OBL     -0.630000       15.9994           0
     42370 MEMB     357      POPE     C22      CTL2    -0.220000       12.0110           0
     42371 MEMB     357      POPE     H2R      HAL2     0.900000E-01   1.00800           0
     42372 MEMB     357      POPE     H2S      HAL2     0.900000E-01   1.00800           0
     42373 MEMB     357      POPE     C3       CTL2     0.800000E-01   12.0110           0
     42374 MEMB     357      POPE     HX       HAL2     0.900000E-01   1.00800           0
     42375 MEMB     357      POPE     HY       HAL2     0.900000E-01   1.00800           0
     42376 MEMB     357      POPE     O31      OSL     -0.490000       15.9994           0
     42377 MEMB     357      POPE     C31      CL       0.900000       12.0110           0
     42378 MEMB     357      POPE     O32      OBL     -0.630000       15.9994           0
     42379 MEMB     357      POPE     C32      CTL2    -0.220000       12.0110           0
     42380 MEMB     357      POPE     H2X      HAL2     0.900000E-01   1.00800           0
     42381 MEMB     357      POPE     H2Y      HAL2     0.900000E-01   1.00800           0
     42382 MEMB     357      POPE     C23      CTL2    -0.180000       12.0110           0
     42383 MEMB     357      POPE     H3R      HAL2     0.900000E-01   1.00800           0
     42384 MEMB     357      POPE     H3S      HAL2     0.900000E-01   1.00800           0
     42385 MEMB     357      POPE     C24      CTL2    -0.180000       12.0110           0
     42386 MEMB     357      POPE     H4R      HAL2     0.900000E-01   1.00800           0
     42387 MEMB     357      POPE     H4S      HAL2     0.900000E-01   1.00800           0
     42388 MEMB     357      POPE     C25      CTL2    -0.180000       12.0110           0
     42389 MEMB     357      POPE     H5R      HAL2     0.900000E-01   1.00800           0
     42390 MEMB     357      POPE     H5S      HAL2     0.900000E-01   1.00800           0
     42391 MEMB     357      POPE     C26      CTL2    -0.180000       12.0110           0
     42392 MEMB     357      POPE     H6R      HAL2     0.900000E-01   1.00800           0
     42393 MEMB     357      POPE     H6S      HAL2     0.900000E-01   1.00800           0
     42394 MEMB     357      POPE     C27      CTL2    -0.180000       12.0110           0
     42395 MEMB     357      POPE     H7R      HAL2     0.900000E-01   1.00800           0
     42396 MEMB     357      POPE     H7S      HAL2     0.900000E-01   1.00800           0
     42397 MEMB     357      POPE     C28      CTL2    -0.180000       12.0110           0
     42398 MEMB     357      POPE     H8R      HAL2     0.900000E-01   1.00800           0
     42399 MEMB     357      POPE     H8S      HAL2     0.900000E-01   1.00800           0
     42400 MEMB     357      POPE     C29      CEL1    -0.150000       12.0110           0
     42401 MEMB     357      POPE     H91      HEL1     0.150000       1.00800           0
     42402 MEMB     357      POPE     C210     CEL1    -0.150000       12.0110           0
     42403 MEMB     357      POPE     H101     HEL1     0.150000       1.00800           0
     42404 MEMB     357      POPE     C211     CTL2    -0.180000       12.0110           0
     42405 MEMB     357      POPE     H11R     HAL2     0.900000E-01   1.00800           0
     42406 MEMB     357      POPE     H11S     HAL2     0.900000E-01   1.00800           0
     42407 MEMB     357      POPE     C212     CTL2    -0.180000       12.0110           0
     42408 MEMB     357      POPE     H12R     HAL2     0.900000E-01   1.00800           0
     42409 MEMB     357      POPE     H12S     HAL2     0.900000E-01   1.00800           0
     42410 MEMB     357      POPE     C213     CTL2    -0.180000       12.0110           0
     42411 MEMB     357      POPE     H13R     HAL2     0.900000E-01   1.00800           0
     42412 MEMB     357      POPE     H13S     HAL2     0.900000E-01   1.00800           0
     42413 MEMB     357      POPE     C214     CTL2    -0.180000       12.0110           0
     42414 MEMB     357      POPE     H14R     HAL2     0.900000E-01   1.00800           0
     42415 MEMB     357      POPE     H14S     HAL2     0.900000E-01   1.00800           0
     42416 MEMB     357      POPE     C215     CTL2    -0.180000       12.0110           0
     42417 MEMB     357      POPE     H15R     HAL2     0.900000E-01   1.00800           0
     42418 MEMB     357      POPE     H15S     HAL2     0.900000E-01   1.00800           0
     42419 MEMB     357      POPE     C216     CTL2    -0.180000       12.0110           0
     42420 MEMB     357      POPE     H16R     HAL2     0.900000E-01   1.00800           0
     42421 MEMB     357      POPE     H16S     HAL2     0.900000E-01   1.00800           0
     42422 MEMB     357      POPE     C217     CTL2    -0.180000       12.0110           0
     42423 MEMB     357      POPE     H17R     HAL2     0.900000E-01   1.00800           0
     42424 MEMB     357      POPE     H17S     HAL2     0.900000E-01   1.00800           0
     42425 MEMB     357      POPE     C218     CTL3    -0.270000       12.0110           0
     42426 MEMB     357      POPE     H18R     HAL3     0.900000E-01   1.00800           0
     42427 MEMB     357      POPE     H18S     HAL3     0.900000E-01   1.00800           0
     42428 MEMB     357      POPE     H18T     HAL3     0.900000E-01   1.00800           0
     42429 MEMB     357      POPE     C33      CTL2    -0.180000       12.0110           0
     42430 MEMB     357      POPE     H3X      HAL2     0.900000E-01   1.00800           0
     42431 MEMB     357      POPE     H3Y      HAL2     0.900000E-01   1.00800           0
     42432 MEMB     357      POPE     C34      CTL2    -0.180000       12.0110           0
     42433 MEMB     357      POPE     H4X      HAL2     0.900000E-01   1.00800           0
     42434 MEMB     357      POPE     H4Y      HAL2     0.900000E-01   1.00800           0
     42435 MEMB     357      POPE     C35      CTL2    -0.180000       12.0110           0
     42436 MEMB     357      POPE     H5X      HAL2     0.900000E-01   1.00800           0
     42437 MEMB     357      POPE     H5Y      HAL2     0.900000E-01   1.00800           0
     42438 MEMB     357      POPE     C36      CTL2    -0.180000       12.0110           0
     42439 MEMB     357      POPE     H6X      HAL2     0.900000E-01   1.00800           0
     42440 MEMB     357      POPE     H6Y      HAL2     0.900000E-01   1.00800           0
     42441 MEMB     357      POPE     C37      CTL2    -0.180000       12.0110           0
     42442 MEMB     357      POPE     H7X      HAL2     0.900000E-01   1.00800           0
     42443 MEMB     357      POPE     H7Y      HAL2     0.900000E-01   1.00800           0
     42444 MEMB     357      POPE     C38      CTL2    -0.180000       12.0110           0
     42445 MEMB     357      POPE     H8X      HAL2     0.900000E-01   1.00800           0
     42446 MEMB     357      POPE     H8Y      HAL2     0.900000E-01   1.00800           0
     42447 MEMB     357      POPE     C39      CTL2    -0.180000       12.0110           0
     42448 MEMB     357      POPE     H9X      HAL2     0.900000E-01   1.00800           0
     42449 MEMB     357      POPE     H9Y      HAL2     0.900000E-01   1.00800           0
     42450 MEMB     357      POPE     C310     CTL2    -0.180000       12.0110           0
     42451 MEMB     357      POPE     H10X     HAL2     0.900000E-01   1.00800           0
     42452 MEMB     357      POPE     H10Y     HAL2     0.900000E-01   1.00800           0
     42453 MEMB     357      POPE     C311     CTL2    -0.180000       12.0110           0
     42454 MEMB     357      POPE     H11X     HAL2     0.900000E-01   1.00800           0
     42455 MEMB     357      POPE     H11Y     HAL2     0.900000E-01   1.00800           0
     42456 MEMB     357      POPE     C312     CTL2    -0.180000       12.0110           0
     42457 MEMB     357      POPE     H12X     HAL2     0.900000E-01   1.00800           0
     42458 MEMB     357      POPE     H12Y     HAL2     0.900000E-01   1.00800           0
     42459 MEMB     357      POPE     C313     CTL2    -0.180000       12.0110           0
     42460 MEMB     357      POPE     H13X     HAL2     0.900000E-01   1.00800           0
     42461 MEMB     357      POPE     H13Y     HAL2     0.900000E-01   1.00800           0
     42462 MEMB     357      POPE     C314     CTL2    -0.180000       12.0110           0
     42463 MEMB     357      POPE     H14X     HAL2     0.900000E-01   1.00800           0
     42464 MEMB     357      POPE     H14Y     HAL2     0.900000E-01   1.00800           0
     42465 MEMB     357      POPE     C315     CTL2    -0.180000       12.0110           0
     42466 MEMB     357      POPE     H15X     HAL2     0.900000E-01   1.00800           0
     42467 MEMB     357      POPE     H15Y     HAL2     0.900000E-01   1.00800           0
     42468 MEMB     357      POPE     C316     CTL3    -0.270000       12.0110           0
     42469 MEMB     357      POPE     H16X     HAL3     0.900000E-01   1.00800           0
     42470 MEMB     357      POPE     H16Y     HAL3     0.900000E-01   1.00800           0
     42471 MEMB     357      POPE     H16Z     HAL3     0.900000E-01   1.00800           0
     42472 MEMB     358      POPE     N        NH3L    -0.300000       14.0070           0
     42473 MEMB     358      POPE     HN1      HCL      0.330000       1.00800           0
     42474 MEMB     358      POPE     HN2      HCL      0.330000       1.00800           0
     42475 MEMB     358      POPE     HN3      HCL      0.330000       1.00800           0
     42476 MEMB     358      POPE     C12      CTL2     0.130000       12.0110           0
     42477 MEMB     358      POPE     H12A     HAL2     0.900000E-01   1.00800           0
     42478 MEMB     358      POPE     H12B     HAL2     0.900000E-01   1.00800           0
     42479 MEMB     358      POPE     C11      CTL2    -0.800000E-01   12.0110           0
     42480 MEMB     358      POPE     H11A     HAL2     0.900000E-01   1.00800           0
     42481 MEMB     358      POPE     H11B     HAL2     0.900000E-01   1.00800           0
     42482 MEMB     358      POPE     P        PL        1.50000       30.9740           0
     42483 MEMB     358      POPE     O13      O2L     -0.780000       15.9994           0
     42484 MEMB     358      POPE     O14      O2L     -0.780000       15.9994           0
     42485 MEMB     358      POPE     O11      OSLP    -0.570000       15.9994           0
     42486 MEMB     358      POPE     O12      OSLP    -0.570000       15.9994           0
     42487 MEMB     358      POPE     C1       CTL2    -0.800000E-01   12.0110           0
     42488 MEMB     358      POPE     HA       HAL2     0.900000E-01   1.00800           0
     42489 MEMB     358      POPE     HB       HAL2     0.900000E-01   1.00800           0
     42490 MEMB     358      POPE     C2       CTL1     0.170000       12.0110           0
     42491 MEMB     358      POPE     HS       HAL1     0.900000E-01   1.00800           0
     42492 MEMB     358      POPE     O21      OSL     -0.490000       15.9994           0
     42493 MEMB     358      POPE     C21      CL       0.900000       12.0110           0
     42494 MEMB     358      POPE     O22      OBL     -0.630000       15.9994           0
     42495 MEMB     358      POPE     C22      CTL2    -0.220000       12.0110           0
     42496 MEMB     358      POPE     H2R      HAL2     0.900000E-01   1.00800           0
     42497 MEMB     358      POPE     H2S      HAL2     0.900000E-01   1.00800           0
     42498 MEMB     358      POPE     C3       CTL2     0.800000E-01   12.0110           0
     42499 MEMB     358      POPE     HX       HAL2     0.900000E-01   1.00800           0
     42500 MEMB     358      POPE     HY       HAL2     0.900000E-01   1.00800           0
     42501 MEMB     358      POPE     O31      OSL     -0.490000       15.9994           0
     42502 MEMB     358      POPE     C31      CL       0.900000       12.0110           0
     42503 MEMB     358      POPE     O32      OBL     -0.630000       15.9994           0
     42504 MEMB     358      POPE     C32      CTL2    -0.220000       12.0110           0
     42505 MEMB     358      POPE     H2X      HAL2     0.900000E-01   1.00800           0
     42506 MEMB     358      POPE     H2Y      HAL2     0.900000E-01   1.00800           0
     42507 MEMB     358      POPE     C23      CTL2    -0.180000       12.0110           0
     42508 MEMB     358      POPE     H3R      HAL2     0.900000E-01   1.00800           0
     42509 MEMB     358      POPE     H3S      HAL2     0.900000E-01   1.00800           0
     42510 MEMB     358      POPE     C24      CTL2    -0.180000       12.0110           0
     42511 MEMB     358      POPE     H4R      HAL2     0.900000E-01   1.00800           0
     42512 MEMB     358      POPE     H4S      HAL2     0.900000E-01   1.00800           0
     42513 MEMB     358      POPE     C25      CTL2    -0.180000       12.0110           0
     42514 MEMB     358      POPE     H5R      HAL2     0.900000E-01   1.00800           0
     42515 MEMB     358      POPE     H5S      HAL2     0.900000E-01   1.00800           0
     42516 MEMB     358      POPE     C26      CTL2    -0.180000       12.0110           0
     42517 MEMB     358      POPE     H6R      HAL2     0.900000E-01   1.00800           0
     42518 MEMB     358      POPE     H6S      HAL2     0.900000E-01   1.00800           0
     42519 MEMB     358      POPE     C27      CTL2    -0.180000       12.0110           0
     42520 MEMB     358      POPE     H7R      HAL2     0.900000E-01   1.00800           0
     42521 MEMB     358      POPE     H7S      HAL2     0.900000E-01   1.00800           0
     42522 MEMB     358      POPE     C28      CTL2    -0.180000       12.0110           0
     42523 MEMB     358      POPE     H8R      HAL2     0.900000E-01   1.00800           0
     42524 MEMB     358      POPE     H8S      HAL2     0.900000E-01   1.00800           0
     42525 MEMB     358      POPE     C29      CEL1    -0.150000       12.0110           0
     42526 MEMB     358      POPE     H91      HEL1     0.150000       1.00800           0
     42527 MEMB     358      POPE     C210     CEL1    -0.150000       12.0110           0
     42528 MEMB     358      POPE     H101     HEL1     0.150000       1.00800           0
     42529 MEMB     358      POPE     C211     CTL2    -0.180000       12.0110           0
     42530 MEMB     358      POPE     H11R     HAL2     0.900000E-01   1.00800           0
     42531 MEMB     358      POPE     H11S     HAL2     0.900000E-01   1.00800           0
     42532 MEMB     358      POPE     C212     CTL2    -0.180000       12.0110           0
     42533 MEMB     358      POPE     H12R     HAL2     0.900000E-01   1.00800           0
     42534 MEMB     358      POPE     H12S     HAL2     0.900000E-01   1.00800           0
     42535 MEMB     358      POPE     C213     CTL2    -0.180000       12.0110           0
     42536 MEMB     358      POPE     H13R     HAL2     0.900000E-01   1.00800           0
     42537 MEMB     358      POPE     H13S     HAL2     0.900000E-01   1.00800           0
     42538 MEMB     358      POPE     C214     CTL2    -0.180000       12.0110           0
     42539 MEMB     358      POPE     H14R     HAL2     0.900000E-01   1.00800           0
     42540 MEMB     358      POPE     H14S     HAL2     0.900000E-01   1.00800           0
     42541 MEMB     358      POPE     C215     CTL2    -0.180000       12.0110           0
     42542 MEMB     358      POPE     H15R     HAL2     0.900000E-01   1.00800           0
     42543 MEMB     358      POPE     H15S     HAL2     0.900000E-01   1.00800           0
     42544 MEMB     358      POPE     C216     CTL2    -0.180000       12.0110           0
     42545 MEMB     358      POPE     H16R     HAL2     0.900000E-01   1.00800           0
     42546 MEMB     358      POPE     H16S     HAL2     0.900000E-01   1.00800           0
     42547 MEMB     358      POPE     C217     CTL2    -0.180000       12.0110           0
     42548 MEMB     358      POPE     H17R     HAL2     0.900000E-01   1.00800           0
     42549 MEMB     358      POPE     H17S     HAL2     0.900000E-01   1.00800           0
     42550 MEMB     358      POPE     C218     CTL3    -0.270000       12.0110           0
     42551 MEMB     358      POPE     H18R     HAL3     0.900000E-01   1.00800           0
     42552 MEMB     358      POPE     H18S     HAL3     0.900000E-01   1.00800           0
     42553 MEMB     358      POPE     H18T     HAL3     0.900000E-01   1.00800           0
     42554 MEMB     358      POPE     C33      CTL2    -0.180000       12.0110           0
     42555 MEMB     358      POPE     H3X      HAL2     0.900000E-01   1.00800           0
     42556 MEMB     358      POPE     H3Y      HAL2     0.900000E-01   1.00800           0
     42557 MEMB     358      POPE     C34      CTL2    -0.180000       12.0110           0
     42558 MEMB     358      POPE     H4X      HAL2     0.900000E-01   1.00800           0
     42559 MEMB     358      POPE     H4Y      HAL2     0.900000E-01   1.00800           0
     42560 MEMB     358      POPE     C35      CTL2    -0.180000       12.0110           0
     42561 MEMB     358      POPE     H5X      HAL2     0.900000E-01   1.00800           0
     42562 MEMB     358      POPE     H5Y      HAL2     0.900000E-01   1.00800           0
     42563 MEMB     358      POPE     C36      CTL2    -0.180000       12.0110           0
     42564 MEMB     358      POPE     H6X      HAL2     0.900000E-01   1.00800           0
     42565 MEMB     358      POPE     H6Y      HAL2     0.900000E-01   1.00800           0
     42566 MEMB     358      POPE     C37      CTL2    -0.180000       12.0110           0
     42567 MEMB     358      POPE     H7X      HAL2     0.900000E-01   1.00800           0
     42568 MEMB     358      POPE     H7Y      HAL2     0.900000E-01   1.00800           0
     42569 MEMB     358      POPE     C38      CTL2    -0.180000       12.0110           0
     42570 MEMB     358      POPE     H8X      HAL2     0.900000E-01   1.00800           0
     42571 MEMB     358      POPE     H8Y      HAL2     0.900000E-01   1.00800           0
     42572 MEMB     358      POPE     C39      CTL2    -0.180000       12.0110           0
     42573 MEMB     358      POPE     H9X      HAL2     0.900000E-01   1.00800           0
     42574 MEMB     358      POPE     H9Y      HAL2     0.900000E-01   1.00800           0
     42575 MEMB     358      POPE     C310     CTL2    -0.180000       12.0110           0
     42576 MEMB     358      POPE     H10X     HAL2     0.900000E-01   1.00800           0
     42577 MEMB     358      POPE     H10Y     HAL2     0.900000E-01   1.00800           0
     42578 MEMB     358      POPE     C311     CTL2    -0.180000       12.0110           0
     42579 MEMB     358      POPE     H11X     HAL2     0.900000E-01   1.00800           0
     42580 MEMB     358      POPE     H11Y     HAL2     0.900000E-01   1.00800           0
     42581 MEMB     358      POPE     C312     CTL2    -0.180000       12.0110           0
     42582 MEMB     358      POPE     H12X     HAL2     0.900000E-01   1.00800           0
     42583 MEMB     358      POPE     H12Y     HAL2     0.900000E-01   1.00800           0
     42584 MEMB     358      POPE     C313     CTL2    -0.180000       12.0110           0
     42585 MEMB     358      POPE     H13X     HAL2     0.900000E-01   1.00800           0
     42586 MEMB     358      POPE     H13Y     HAL2     0.900000E-01   1.00800           0
     42587 MEMB     358      POPE     C314     CTL2    -0.180000       12.0110           0
     42588 MEMB     358      POPE     H14X     HAL2     0.900000E-01   1.00800           0
     42589 MEMB     358      POPE     H14Y     HAL2     0.900000E-01   1.00800           0
     42590 MEMB     358      POPE     C315     CTL2    -0.180000       12.0110           0
     42591 MEMB     358      POPE     H15X     HAL2     0.900000E-01   1.00800           0
     42592 MEMB     358      POPE     H15Y     HAL2     0.900000E-01   1.00800           0
     42593 MEMB     358      POPE     C316     CTL3    -0.270000       12.0110           0
     42594 MEMB     358      POPE     H16X     HAL3     0.900000E-01   1.00800           0
     42595 MEMB     358      POPE     H16Y     HAL3     0.900000E-01   1.00800           0
     42596 MEMB     358      POPE     H16Z     HAL3     0.900000E-01   1.00800           0
     42597 MEMB     359      POPE     N        NH3L    -0.300000       14.0070           0
     42598 MEMB     359      POPE     HN1      HCL      0.330000       1.00800           0
     42599 MEMB     359      POPE     HN2      HCL      0.330000       1.00800           0
     42600 MEMB     359      POPE     HN3      HCL      0.330000       1.00800           0
     42601 MEMB     359      POPE     C12      CTL2     0.130000       12.0110           0
     42602 MEMB     359      POPE     H12A     HAL2     0.900000E-01   1.00800           0
     42603 MEMB     359      POPE     H12B     HAL2     0.900000E-01   1.00800           0
     42604 MEMB     359      POPE     C11      CTL2    -0.800000E-01   12.0110           0
     42605 MEMB     359      POPE     H11A     HAL2     0.900000E-01   1.00800           0
     42606 MEMB     359      POPE     H11B     HAL2     0.900000E-01   1.00800           0
     42607 MEMB     359      POPE     P        PL        1.50000       30.9740           0
     42608 MEMB     359      POPE     O13      O2L     -0.780000       15.9994           0
     42609 MEMB     359      POPE     O14      O2L     -0.780000       15.9994           0
     42610 MEMB     359      POPE     O11      OSLP    -0.570000       15.9994           0
     42611 MEMB     359      POPE     O12      OSLP    -0.570000       15.9994           0
     42612 MEMB     359      POPE     C1       CTL2    -0.800000E-01   12.0110           0
     42613 MEMB     359      POPE     HA       HAL2     0.900000E-01   1.00800           0
     42614 MEMB     359      POPE     HB       HAL2     0.900000E-01   1.00800           0
     42615 MEMB     359      POPE     C2       CTL1     0.170000       12.0110           0
     42616 MEMB     359      POPE     HS       HAL1     0.900000E-01   1.00800           0
     42617 MEMB     359      POPE     O21      OSL     -0.490000       15.9994           0
     42618 MEMB     359      POPE     C21      CL       0.900000       12.0110           0
     42619 MEMB     359      POPE     O22      OBL     -0.630000       15.9994           0
     42620 MEMB     359      POPE     C22      CTL2    -0.220000       12.0110           0
     42621 MEMB     359      POPE     H2R      HAL2     0.900000E-01   1.00800           0
     42622 MEMB     359      POPE     H2S      HAL2     0.900000E-01   1.00800           0
     42623 MEMB     359      POPE     C3       CTL2     0.800000E-01   12.0110           0
     42624 MEMB     359      POPE     HX       HAL2     0.900000E-01   1.00800           0
     42625 MEMB     359      POPE     HY       HAL2     0.900000E-01   1.00800           0
     42626 MEMB     359      POPE     O31      OSL     -0.490000       15.9994           0
     42627 MEMB     359      POPE     C31      CL       0.900000       12.0110           0
     42628 MEMB     359      POPE     O32      OBL     -0.630000       15.9994           0
     42629 MEMB     359      POPE     C32      CTL2    -0.220000       12.0110           0
     42630 MEMB     359      POPE     H2X      HAL2     0.900000E-01   1.00800           0
     42631 MEMB     359      POPE     H2Y      HAL2     0.900000E-01   1.00800           0
     42632 MEMB     359      POPE     C23      CTL2    -0.180000       12.0110           0
     42633 MEMB     359      POPE     H3R      HAL2     0.900000E-01   1.00800           0
     42634 MEMB     359      POPE     H3S      HAL2     0.900000E-01   1.00800           0
     42635 MEMB     359      POPE     C24      CTL2    -0.180000       12.0110           0
     42636 MEMB     359      POPE     H4R      HAL2     0.900000E-01   1.00800           0
     42637 MEMB     359      POPE     H4S      HAL2     0.900000E-01   1.00800           0
     42638 MEMB     359      POPE     C25      CTL2    -0.180000       12.0110           0
     42639 MEMB     359      POPE     H5R      HAL2     0.900000E-01   1.00800           0
     42640 MEMB     359      POPE     H5S      HAL2     0.900000E-01   1.00800           0
     42641 MEMB     359      POPE     C26      CTL2    -0.180000       12.0110           0
     42642 MEMB     359      POPE     H6R      HAL2     0.900000E-01   1.00800           0
     42643 MEMB     359      POPE     H6S      HAL2     0.900000E-01   1.00800           0
     42644 MEMB     359      POPE     C27      CTL2    -0.180000       12.0110           0
     42645 MEMB     359      POPE     H7R      HAL2     0.900000E-01   1.00800           0
     42646 MEMB     359      POPE     H7S      HAL2     0.900000E-01   1.00800           0
     42647 MEMB     359      POPE     C28      CTL2    -0.180000       12.0110           0
     42648 MEMB     359      POPE     H8R      HAL2     0.900000E-01   1.00800           0
     42649 MEMB     359      POPE     H8S      HAL2     0.900000E-01   1.00800           0
     42650 MEMB     359      POPE     C29      CEL1    -0.150000       12.0110           0
     42651 MEMB     359      POPE     H91      HEL1     0.150000       1.00800           0
     42652 MEMB     359      POPE     C210     CEL1    -0.150000       12.0110           0
     42653 MEMB     359      POPE     H101     HEL1     0.150000       1.00800           0
     42654 MEMB     359      POPE     C211     CTL2    -0.180000       12.0110           0
     42655 MEMB     359      POPE     H11R     HAL2     0.900000E-01   1.00800           0
     42656 MEMB     359      POPE     H11S     HAL2     0.900000E-01   1.00800           0
     42657 MEMB     359      POPE     C212     CTL2    -0.180000       12.0110           0
     42658 MEMB     359      POPE     H12R     HAL2     0.900000E-01   1.00800           0
     42659 MEMB     359      POPE     H12S     HAL2     0.900000E-01   1.00800           0
     42660 MEMB     359      POPE     C213     CTL2    -0.180000       12.0110           0
     42661 MEMB     359      POPE     H13R     HAL2     0.900000E-01   1.00800           0
     42662 MEMB     359      POPE     H13S     HAL2     0.900000E-01   1.00800           0
     42663 MEMB     359      POPE     C214     CTL2    -0.180000       12.0110           0
     42664 MEMB     359      POPE     H14R     HAL2     0.900000E-01   1.00800           0
     42665 MEMB     359      POPE     H14S     HAL2     0.900000E-01   1.00800           0
     42666 MEMB     359      POPE     C215     CTL2    -0.180000       12.0110           0
     42667 MEMB     359      POPE     H15R     HAL2     0.900000E-01   1.00800           0
     42668 MEMB     359      POPE     H15S     HAL2     0.900000E-01   1.00800           0
     42669 MEMB     359      POPE     C216     CTL2    -0.180000       12.0110           0
     42670 MEMB     359      POPE     H16R     HAL2     0.900000E-01   1.00800           0
     42671 MEMB     359      POPE     H16S     HAL2     0.900000E-01   1.00800           0
     42672 MEMB     359      POPE     C217     CTL2    -0.180000       12.0110           0
     42673 MEMB     359      POPE     H17R     HAL2     0.900000E-01   1.00800           0
     42674 MEMB     359      POPE     H17S     HAL2     0.900000E-01   1.00800           0
     42675 MEMB     359      POPE     C218     CTL3    -0.270000       12.0110           0
     42676 MEMB     359      POPE     H18R     HAL3     0.900000E-01   1.00800           0
     42677 MEMB     359      POPE     H18S     HAL3     0.900000E-01   1.00800           0
     42678 MEMB     359      POPE     H18T     HAL3     0.900000E-01   1.00800           0
     42679 MEMB     359      POPE     C33      CTL2    -0.180000       12.0110           0
     42680 MEMB     359      POPE     H3X      HAL2     0.900000E-01   1.00800           0
     42681 MEMB     359      POPE     H3Y      HAL2     0.900000E-01   1.00800           0
     42682 MEMB     359      POPE     C34      CTL2    -0.180000       12.0110           0
     42683 MEMB     359      POPE     H4X      HAL2     0.900000E-01   1.00800           0
     42684 MEMB     359      POPE     H4Y      HAL2     0.900000E-01   1.00800           0
     42685 MEMB     359      POPE     C35      CTL2    -0.180000       12.0110           0
     42686 MEMB     359      POPE     H5X      HAL2     0.900000E-01   1.00800           0
     42687 MEMB     359      POPE     H5Y      HAL2     0.900000E-01   1.00800           0
     42688 MEMB     359      POPE     C36      CTL2    -0.180000       12.0110           0
     42689 MEMB     359      POPE     H6X      HAL2     0.900000E-01   1.00800           0
     42690 MEMB     359      POPE     H6Y      HAL2     0.900000E-01   1.00800           0
     42691 MEMB     359      POPE     C37      CTL2    -0.180000       12.0110           0
     42692 MEMB     359      POPE     H7X      HAL2     0.900000E-01   1.00800           0
     42693 MEMB     359      POPE     H7Y      HAL2     0.900000E-01   1.00800           0
     42694 MEMB     359      POPE     C38      CTL2    -0.180000       12.0110           0
     42695 MEMB     359      POPE     H8X      HAL2     0.900000E-01   1.00800           0
     42696 MEMB     359      POPE     H8Y      HAL2     0.900000E-01   1.00800           0
     42697 MEMB     359      POPE     C39      CTL2    -0.180000       12.0110           0
     42698 MEMB     359      POPE     H9X      HAL2     0.900000E-01   1.00800           0
     42699 MEMB     359      POPE     H9Y      HAL2     0.900000E-01   1.00800           0
     42700 MEMB     359      POPE     C310     CTL2    -0.180000       12.0110           0
     42701 MEMB     359      POPE     H10X     HAL2     0.900000E-01   1.00800           0
     42702 MEMB     359      POPE     H10Y     HAL2     0.900000E-01   1.00800           0
     42703 MEMB     359      POPE     C311     CTL2    -0.180000       12.0110           0
     42704 MEMB     359      POPE     H11X     HAL2     0.900000E-01   1.00800           0
     42705 MEMB     359      POPE     H11Y     HAL2     0.900000E-01   1.00800           0
     42706 MEMB     359      POPE     C312     CTL2    -0.180000       12.0110           0
     42707 MEMB     359      POPE     H12X     HAL2     0.900000E-01   1.00800           0
     42708 MEMB     359      POPE     H12Y     HAL2     0.900000E-01   1.00800           0
     42709 MEMB     359      POPE     C313     CTL2    -0.180000       12.0110           0
     42710 MEMB     359      POPE     H13X     HAL2     0.900000E-01   1.00800           0
     42711 MEMB     359      POPE     H13Y     HAL2     0.900000E-01   1.00800           0
     42712 MEMB     359      POPE     C314     CTL2    -0.180000       12.0110           0
     42713 MEMB     359      POPE     H14X     HAL2     0.900000E-01   1.00800           0
     42714 MEMB     359      POPE     H14Y     HAL2     0.900000E-01   1.00800           0
     42715 MEMB     359      POPE     C315     CTL2    -0.180000       12.0110           0
     42716 MEMB     359      POPE     H15X     HAL2     0.900000E-01   1.00800           0
     42717 MEMB     359      POPE     H15Y     HAL2     0.900000E-01   1.00800           0
     42718 MEMB     359      POPE     C316     CTL3    -0.270000       12.0110           0
     42719 MEMB     359      POPE     H16X     HAL3     0.900000E-01   1.00800           0
     42720 MEMB     359      POPE     H16Y     HAL3     0.900000E-01   1.00800           0
     42721 MEMB     359      POPE     H16Z     HAL3     0.900000E-01   1.00800           0
     42722 MEMB     360      POPE     N        NH3L    -0.300000       14.0070           0
     42723 MEMB     360      POPE     HN1      HCL      0.330000       1.00800           0
     42724 MEMB     360      POPE     HN2      HCL      0.330000       1.00800           0
     42725 MEMB     360      POPE     HN3      HCL      0.330000       1.00800           0
     42726 MEMB     360      POPE     C12      CTL2     0.130000       12.0110           0
     42727 MEMB     360      POPE     H12A     HAL2     0.900000E-01   1.00800           0
     42728 MEMB     360      POPE     H12B     HAL2     0.900000E-01   1.00800           0
     42729 MEMB     360      POPE     C11      CTL2    -0.800000E-01   12.0110           0
     42730 MEMB     360      POPE     H11A     HAL2     0.900000E-01   1.00800           0
     42731 MEMB     360      POPE     H11B     HAL2     0.900000E-01   1.00800           0
     42732 MEMB     360      POPE     P        PL        1.50000       30.9740           0
     42733 MEMB     360      POPE     O13      O2L     -0.780000       15.9994           0
     42734 MEMB     360      POPE     O14      O2L     -0.780000       15.9994           0
     42735 MEMB     360      POPE     O11      OSLP    -0.570000       15.9994           0
     42736 MEMB     360      POPE     O12      OSLP    -0.570000       15.9994           0
     42737 MEMB     360      POPE     C1       CTL2    -0.800000E-01   12.0110           0
     42738 MEMB     360      POPE     HA       HAL2     0.900000E-01   1.00800           0
     42739 MEMB     360      POPE     HB       HAL2     0.900000E-01   1.00800           0
     42740 MEMB     360      POPE     C2       CTL1     0.170000       12.0110           0
     42741 MEMB     360      POPE     HS       HAL1     0.900000E-01   1.00800           0
     42742 MEMB     360      POPE     O21      OSL     -0.490000       15.9994           0
     42743 MEMB     360      POPE     C21      CL       0.900000       12.0110           0
     42744 MEMB     360      POPE     O22      OBL     -0.630000       15.9994           0
     42745 MEMB     360      POPE     C22      CTL2    -0.220000       12.0110           0
     42746 MEMB     360      POPE     H2R      HAL2     0.900000E-01   1.00800           0
     42747 MEMB     360      POPE     H2S      HAL2     0.900000E-01   1.00800           0
     42748 MEMB     360      POPE     C3       CTL2     0.800000E-01   12.0110           0
     42749 MEMB     360      POPE     HX       HAL2     0.900000E-01   1.00800           0
     42750 MEMB     360      POPE     HY       HAL2     0.900000E-01   1.00800           0
     42751 MEMB     360      POPE     O31      OSL     -0.490000       15.9994           0
     42752 MEMB     360      POPE     C31      CL       0.900000       12.0110           0
     42753 MEMB     360      POPE     O32      OBL     -0.630000       15.9994           0
     42754 MEMB     360      POPE     C32      CTL2    -0.220000       12.0110           0
     42755 MEMB     360      POPE     H2X      HAL2     0.900000E-01   1.00800           0
     42756 MEMB     360      POPE     H2Y      HAL2     0.900000E-01   1.00800           0
     42757 MEMB     360      POPE     C23      CTL2    -0.180000       12.0110           0
     42758 MEMB     360      POPE     H3R      HAL2     0.900000E-01   1.00800           0
     42759 MEMB     360      POPE     H3S      HAL2     0.900000E-01   1.00800           0
     42760 MEMB     360      POPE     C24      CTL2    -0.180000       12.0110           0
     42761 MEMB     360      POPE     H4R      HAL2     0.900000E-01   1.00800           0
     42762 MEMB     360      POPE     H4S      HAL2     0.900000E-01   1.00800           0
     42763 MEMB     360      POPE     C25      CTL2    -0.180000       12.0110           0
     42764 MEMB     360      POPE     H5R      HAL2     0.900000E-01   1.00800           0
     42765 MEMB     360      POPE     H5S      HAL2     0.900000E-01   1.00800           0
     42766 MEMB     360      POPE     C26      CTL2    -0.180000       12.0110           0
     42767 MEMB     360      POPE     H6R      HAL2     0.900000E-01   1.00800           0
     42768 MEMB     360      POPE     H6S      HAL2     0.900000E-01   1.00800           0
     42769 MEMB     360      POPE     C27      CTL2    -0.180000       12.0110           0
     42770 MEMB     360      POPE     H7R      HAL2     0.900000E-01   1.00800           0
     42771 MEMB     360      POPE     H7S      HAL2     0.900000E-01   1.00800           0
     42772 MEMB     360      POPE     C28      CTL2    -0.180000       12.0110           0
     42773 MEMB     360      POPE     H8R      HAL2     0.900000E-01   1.00800           0
     42774 MEMB     360      POPE     H8S      HAL2     0.900000E-01   1.00800           0
     42775 MEMB     360      POPE     C29      CEL1    -0.150000       12.0110           0
     42776 MEMB     360      POPE     H91      HEL1     0.150000       1.00800           0
     42777 MEMB     360      POPE     C210     CEL1    -0.150000       12.0110           0
     42778 MEMB     360      POPE     H101     HEL1     0.150000       1.00800           0
     42779 MEMB     360      POPE     C211     CTL2    -0.180000       12.0110           0
     42780 MEMB     360      POPE     H11R     HAL2     0.900000E-01   1.00800           0
     42781 MEMB     360      POPE     H11S     HAL2     0.900000E-01   1.00800           0
     42782 MEMB     360      POPE     C212     CTL2    -0.180000       12.0110           0
     42783 MEMB     360      POPE     H12R     HAL2     0.900000E-01   1.00800           0
     42784 MEMB     360      POPE     H12S     HAL2     0.900000E-01   1.00800           0
     42785 MEMB     360      POPE     C213     CTL2    -0.180000       12.0110           0
     42786 MEMB     360      POPE     H13R     HAL2     0.900000E-01   1.00800           0
     42787 MEMB     360      POPE     H13S     HAL2     0.900000E-01   1.00800           0
     42788 MEMB     360      POPE     C214     CTL2    -0.180000       12.0110           0
     42789 MEMB     360      POPE     H14R     HAL2     0.900000E-01   1.00800           0
     42790 MEMB     360      POPE     H14S     HAL2     0.900000E-01   1.00800           0
     42791 MEMB     360      POPE     C215     CTL2    -0.180000       12.0110           0
     42792 MEMB     360      POPE     H15R     HAL2     0.900000E-01   1.00800           0
     42793 MEMB     360      POPE     H15S     HAL2     0.900000E-01   1.00800           0
     42794 MEMB     360      POPE     C216     CTL2    -0.180000       12.0110           0
     42795 MEMB     360      POPE     H16R     HAL2     0.900000E-01   1.00800           0
     42796 MEMB     360      POPE     H16S     HAL2     0.900000E-01   1.00800           0
     42797 MEMB     360      POPE     C217     CTL2    -0.180000       12.0110           0
     42798 MEMB     360      POPE     H17R     HAL2     0.900000E-01   1.00800           0
     42799 MEMB     360      POPE     H17S     HAL2     0.900000E-01   1.00800           0
     42800 MEMB     360      POPE     C218     CTL3    -0.270000       12.0110           0
     42801 MEMB     360      POPE     H18R     HAL3     0.900000E-01   1.00800           0
     42802 MEMB     360      POPE     H18S     HAL3     0.900000E-01   1.00800           0
     42803 MEMB     360      POPE     H18T     HAL3     0.900000E-01   1.00800           0
     42804 MEMB     360      POPE     C33      CTL2    -0.180000       12.0110           0
     42805 MEMB     360      POPE     H3X      HAL2     0.900000E-01   1.00800           0
     42806 MEMB     360      POPE     H3Y      HAL2     0.900000E-01   1.00800           0
     42807 MEMB     360      POPE     C34      CTL2    -0.180000       12.0110           0
     42808 MEMB     360      POPE     H4X      HAL2     0.900000E-01   1.00800           0
     42809 MEMB     360      POPE     H4Y      HAL2     0.900000E-01   1.00800           0
     42810 MEMB     360      POPE     C35      CTL2    -0.180000       12.0110           0
     42811 MEMB     360      POPE     H5X      HAL2     0.900000E-01   1.00800           0
     42812 MEMB     360      POPE     H5Y      HAL2     0.900000E-01   1.00800           0
     42813 MEMB     360      POPE     C36      CTL2    -0.180000       12.0110           0
     42814 MEMB     360      POPE     H6X      HAL2     0.900000E-01   1.00800           0
     42815 MEMB     360      POPE     H6Y      HAL2     0.900000E-01   1.00800           0
     42816 MEMB     360      POPE     C37      CTL2    -0.180000       12.0110           0
     42817 MEMB     360      POPE     H7X      HAL2     0.900000E-01   1.00800           0
     42818 MEMB     360      POPE     H7Y      HAL2     0.900000E-01   1.00800           0
     42819 MEMB     360      POPE     C38      CTL2    -0.180000       12.0110           0
     42820 MEMB     360      POPE     H8X      HAL2     0.900000E-01   1.00800           0
     42821 MEMB     360      POPE     H8Y      HAL2     0.900000E-01   1.00800           0
     42822 MEMB     360      POPE     C39      CTL2    -0.180000       12.0110           0
     42823 MEMB     360      POPE     H9X      HAL2     0.900000E-01   1.00800           0
     42824 MEMB     360      POPE     H9Y      HAL2     0.900000E-01   1.00800           0
     42825 MEMB     360      POPE     C310     CTL2    -0.180000       12.0110           0
     42826 MEMB     360      POPE     H10X     HAL2     0.900000E-01   1.00800           0
     42827 MEMB     360      POPE     H10Y     HAL2     0.900000E-01   1.00800           0
     42828 MEMB     360      POPE     C311     CTL2    -0.180000       12.0110           0
     42829 MEMB     360      POPE     H11X     HAL2     0.900000E-01   1.00800           0
     42830 MEMB     360      POPE     H11Y     HAL2     0.900000E-01   1.00800           0
     42831 MEMB     360      POPE     C312     CTL2    -0.180000       12.0110           0
     42832 MEMB     360      POPE     H12X     HAL2     0.900000E-01   1.00800           0
     42833 MEMB     360      POPE     H12Y     HAL2     0.900000E-01   1.00800           0
     42834 MEMB     360      POPE     C313     CTL2    -0.180000       12.0110           0
     42835 MEMB     360      POPE     H13X     HAL2     0.900000E-01   1.00800           0
     42836 MEMB     360      POPE     H13Y     HAL2     0.900000E-01   1.00800           0
     42837 MEMB     360      POPE     C314     CTL2    -0.180000       12.0110           0
     42838 MEMB     360      POPE     H14X     HAL2     0.900000E-01   1.00800           0
     42839 MEMB     360      POPE     H14Y     HAL2     0.900000E-01   1.00800           0
     42840 MEMB     360      POPE     C315     CTL2    -0.180000       12.0110           0
     42841 MEMB     360      POPE     H15X     HAL2     0.900000E-01   1.00800           0
     42842 MEMB     360      POPE     H15Y     HAL2     0.900000E-01   1.00800           0
     42843 MEMB     360      POPE     C316     CTL3    -0.270000       12.0110           0
     42844 MEMB     360      POPE     H16X     HAL3     0.900000E-01   1.00800           0
     42845 MEMB     360      POPE     H16Y     HAL3     0.900000E-01   1.00800           0
     42846 MEMB     360      POPE     H16Z     HAL3     0.900000E-01   1.00800           0

     42758 !NBOND: bonds
         1         3         1         2         3         4         1        47
        47        48        47        49        47        44        44        45
        44        46         1         5         5         6         5         7
         5         8         8        39        39        44        39        40
        40        41        40        42        40        43         8         9
         9        10         9        11        11        12        11        13
        11        14        14        15        14        37        37        38
        37        39        14        16        16        17        16        26
        26        31        31        32        31        33        31        34
        34        35        34        36        34        37        26        27
        27        28        27        29        27        30        16        18
        18        19        18        20        18        21        21        22
        21        23        21        24        24        25        24        26
        24        50        50        51        50        52        52        53
        52        54        52        55        50        56        56        57
        56        58        56        59        59        60        59        61
        59        62        62        63        62        64        62        65
        65        66        65        67        67        68        67        69
        67        70        65        71        71        72        71        73
        71        74        75        77        75        76        77        78
        75       121       121       122       121       123       121       118
       118       119       118       120        75        79        79        80
        79        81        79        82        82       113       113       118
       113       114       114       115       114       116       114       117
        82        83        83        84        83        85        85        86
        85        87        85        88        88        89        88       111
       111       112       111       113        88        90        90        91
        90       100       100       105       105       106       105       107
       105       108       108       109       108       110       108       111
       100       101       101       102       101       103       101       104
        90        92        92        93        92        94        92        95
        95        96        95        97        95        98        98        99
        98       100        98       124       124       125       124       126
       126       127       126       128       126       129       124       130
       130       131       130       132       130       133       133       134
       133       135       133       136       136       137       136       138
       136       139       139       140       139       141       141       142
       141       143       141       144       139       145       145       146
       145       147       145       148       149       151       149       150
       151       152       149       195       195       196       195       197
       195       192       192       193       192       194       149       153
       153       154       153       155       153       156       156       187
       187       192       187       188       188       189       188       190
       188       191       156       157       157       158       157       159
       159       160       159       161       159       162       162       163
       162       185       185       186       185       187       162       164
       164       165       164       174       174       179       179       180
       179       181       179       182       182       183       182       184
       182       185       174       175       175       176       175       177
       175       178       164       166       166       167       166       168
       166       169       169       170       169       171       169       172
       172       173       172       174       172       198       198       199
       198       200       200       201       200       202       200       203
       198       204       204       205       204       206       204       207
       207       208       207       209       207       210       210       211
       210       212       210       213       213       214       213       215
       215       216       215       217       215       218       213       219
       219       220       219       221       219       222       223       225
       223       224       225       226       223       269       269       270
       269       271       269       266       266       267       266       268
       223       227       227       228       227       229       227       230
       230       261       261       266       261       262       262       263
       262       264       262       265       230       231       231       232
       231       233       233       234       233       235       233       236
       236       237       236       259       259       260       259       261
       236       238       238       239       238       248       248       253
       253       254       253       255       253       256       256       257
       256       258       256       259       248       249       249       250
       249       251       249       252       238       240       240       241
       240       242       240       243       243       244       243       245
       243       246       246       247       246       248       246       272
       272       273       272       274       274       275       274       276
       274       277       272       278       278       279       278       280
       278       281       281       282       281       283       281       284
       284       285       284       286       284       287       287       288
       287       289       289       290       289       291       289       292
       287       293       293       294       293       295       293       296
       297       299       297       298       299       300       297       343
       343       344       343       345       343       340       340       341
       340       342       297       301       301       302       301       303
       301       304       304       335       335       340       335       336
       336       337       336       338       336       339       304       305
       305       306       305       307       307       308       307       309
       307       310       310       311       310       333       333       334
       333       335       310       312       312       313       312       322
       322       327       327       328       327       329       327       330
       330       331       330       332       330       333       322       323
       323       324       323       325       323       326       312       314
       314       315       314       316       314       317       317       318
       317       319       317       320       320       321       320       322
       320       346       346       347       346       348       348       349
       348       350       348       351       346       352       352       353
       352       354       352       355       355       356       355       357
       355       358       358       359       358       360       358       361
       361       362       361       363       363       364       363       365
       363       366       361       367       367       368       367       369
       367       370       371       373       371       372       373       374
       371       417       417       418       417       419       417       414
       414       415       414       416       371       375       375       376
       375       377       375       378       378       409       409       414
       409       410       410       411       410       412       410       413
       378       379       379       380       379       381       381       382
       381       383       381       384       384       385       384       407
       407       408       407       409       384       386       386       387
       386       396       396       401       401       402       401       403
       401       404       404       405       404       406       404       407
       396       397       397       398       397       399       397       400
       386       388       388       389       388       390       388       391
       391       392       391       393       391       394       394       395
       394       396       394       420       420       421       420       422
       422       423       422       424       422       425       420       426
       426       427       426       428       426       429       429       430
       429       431       429       432       432       433       432       434
       432       435       435       436       435       437       437       438
       437       439       437       440       435       441       441       442
       441       443       441       444       445       447       445       446
       447       448       445       491       491       492       491       493
       491       488       488       489       488       490       445       449
       449       450       449       451       449       452       452       483
       483       488       483       484       484       485       484       486
       484       487       452       453       453       454       453       455
       455       456       455       457       455       458       458       459
       458       481       481       482       481       483       458       460
       460       461       460       470       470       475       475       476
       475       477       475       478       478       479       478       480
       478       481       470       471       471       472       471       473
       471       474       460       462       462       463       462       464
       462       465       465       466       465       467       465       468
       468       469       468       470       468       494       494       495
       494       496       496       497       496       498       496       499
       494       500       500       501       500       502       500       503
       503       504       503       505       503       506       506       507
       506       508       506       509       509       510       509       511
       511       512       511       513       511       514       509       515
       515       516       515       517       515       518       519       521
       519       520       521       522       519       565       565       566
       565       567       565       562       562       563       562       564
       519       523       523       524       523       525       523       526
       526       557       557       562       557       558       558       559
       558       560       558       561       526       527       527       528
       527       529       529       530       529       531       529       532
       532       533       532       555       555       556       555       557
       532       534       534       535       534       544       544       549
       549       550       549       551       549       552       552       553
       552       554       552       555       544       545       545       546
       545       547       545       548       534       536       536       537
       536       538       536       539       539       540       539       541
       539       542       542       543       542       544       542       568
       568       569       568       570       570       571       570       572
       570       573       568       574       574       575       574       576
       574       577       577       578       577       579       577       580
       580       581       580       582       580       583       583       584
       583       585       585       586       585       587       585       588
       583       589       589       590       589       591       589       592
       593       595       593       594       595       596       593       639
       639       640       639       641       639       636       636       637
       636       638       593       597       597       598       597       599
       597       600       600       631       631       636       631       632
       632       633       632       634       632       635       600       601
       601       602       601       603       603       604       603       605
       603       606       606       607       606       629       629       630
       629       631       606       608       608       609       608       618
       618       623       623       624       623       625       623       626
       626       627       626       628       626       629       618       619
       619       620       619       621       619       622       608       610
       610       611       610       612       610       613       613       614
       613       615       613       616       616       617       616       618
       616       642       642       643       642       644       644       645
       644       646       644       647       642       648       648       649
       648       650       648       651       651       652       651       653
       651       654       654       655       654       656       654       657
       657       658       657       659       659       660       659       661
       659       662       657       663       663       664       663       665
       663       666       667       669       667       668       669       670
       667       713       713       714       713       715       713       710
       710       711       710       712       667       671       671       672
       671       673       671       674       674       705       705       710
       705       706       706       707       706       708       706       709
       674       675       675       676       675       677       677       678
       677       679       677       680       680       681       680       703
       703       704       703       705       680       682       682       683
       682       692       692       697       697       698       697       699
       697       700       700       701       700       702       700       703
       692       693       693       694       693       695       693       696
       682       684       684       685       684       686       684       687
       687       688       687       689       687       690       690       691
       690       692       690       716       716       717       716       718
       718       719       718       720       718       721       716       722
       722       723       722       724       722       725       725       726
       725       727       725       728       728       729       728       730
       728       731       731       732       731       733       733       734
       733       735       733       736       731       737       737       738
       737       739       737       740       741       743       741       742
       743       744       741       787       787       788       787       789
       787       784       784       785       784       786       741       745
       745       746       745       747       745       748       748       779
       779       784       779       780       780       781       780       782
       780       783       748       749       749       750       749       751
       751       752       751       753       751       754       754       755
       754       777       777       778       777       779       754       756
       756       757       756       766       766       771       771       772
       771       773       771       774       774       775       774       776
       774       777       766       767       767       768       767       769
       767       770       756       758       758       759       758       760
       758       761       761       762       761       763       761       764
       764       765       764       766       764       790       790       791
       790       792       792       793       792       794       792       795
       790       796       796       797       796       798       796       799
       799       800       799       801       799       802       802       803
       802       804       802       805       805       806       805       807
       807       808       807       809       807       810       805       811
       811       812       811       813       811       814       815       817
       815       816       817       818       815       861       861       862
       861       863       861       858       858       859       858       860
       815       819       819       820       819       821       819       822
       822       853       853       858       853       854       854       855
       854       856       854       857       822       823       823       824
       823       825       825       826       825       827       825       828
       828       829       828       851       851       852       851       853
       828       830       830       831       830       840       840       845
       845       846       845       847       845       848       848       849
       848       850       848       851       840       841       841       842
       841       843       841       844       830       832       832       833
       832       834       832       835       835       836       835       837
       835       838       838       839       838       840       838       864
       864       865       864       866       866       867       866       868
       866       869       864       870       870       871       870       872
       870       873       873       874       873       875       873       876
       876       877       876       878       876       879       879       880
       879       881       881       882       881       883       881       884
       879       885       885       886       885       887       885       888
       889       891       889       890       891       892       889       935
       935       936       935       937       935       932       932       933
       932       934       889       893       893       894       893       895
       893       896       896       927       927       932       927       928
       928       929       928       930       928       931       896       897
       897       898       897       899       899       900       899       901
       899       902       902       903       902       925       925       926
       925       927       902       904       904       905       904       914
       914       919       919       920       919       921       919       922
       922       923       922       924       922       925       914       915
       915       916       915       917       915       918       904       906
       906       907       906       908       906       909       909       910
       909       911       909       912       912       913       912       914
       912       938       938       939       938       940       940       941
       940       942       940       943       938       944       944       945
       944       946       944       947       947       948       947       949
       947       950       950       951       950       952       950       953
       953       954       953       955       955       956       955       957
       955       958       953       959       959       960       959       961
       959       962       963       965       963       964       965       966
       963      1009      1009      1010      1009      1011      1009      1006
      1006      1007      1006      1008       963       967       967       968
       967       969       967       970       970      1001      1001      1006
      1001      1002      1002      1003      1002      1004      1002      1005
       970       971       971       972       971       973       973       974
       973       975       973       976       976       977       976       999
       999      1000       999      1001       976       978       978       979
       978       988       988       993       993       994       993       995
       993       996       996       997       996       998       996       999
       988       989       989       990       989       991       989       992
       978       980       980       981       980       982       980       983
       983       984       983       985       983       986       986       987
       986       988       986      1012      1012      1013      1012      1014
      1014      1015      1014      1016      1014      1017      1012      1018
      1018      1019      1018      1020      1018      1021      1021      1022
      1021      1023      1021      1024      1024      1025      1024      1026
      1024      1027      1027      1028      1027      1029      1029      1030
      1029      1031      1029      1032      1027      1033      1033      1034
      1033      1035      1033      1036      1037      1039      1037      1038
      1039      1040      1037      1083      1083      1084      1083      1085
      1083      1080      1080      1081      1080      1082      1037      1041
      1041      1042      1041      1043      1041      1044      1044      1075
      1075      1080      1075      1076      1076      1077      1076      1078
      1076      1079      1044      1045      1045      1046      1045      1047
      1047      1048      1047      1049      1047      1050      1050      1051
      1050      1073      1073      1074      1073      1075      1050      1052
      1052      1053      1052      1062      1062      1067      1067      1068
      1067      1069      1067      1070      1070      1071      1070      1072
      1070      1073      1062      1063      1063      1064      1063      1065
      1063      1066      1052      1054      1054      1055      1054      1056
      1054      1057      1057      1058      1057      1059      1057      1060
      1060      1061      1060      1062      1060      1086      1086      1087
      1086      1088      1088      1089      1088      1090      1088      1091
      1086      1092      1092      1093      1092      1094      1092      1095
      1095      1096      1095      1097      1095      1098      1098      1099
      1098      1100      1098      1101      1101      1102      1101      1103
      1103      1104      1103      1105      1103      1106      1101      1107
      1107      1108      1107      1109      1107      1110      1111      1113
      1111      1112      1113      1114      1111      1157      1157      1158
      1157      1159      1157      1154      1154      1155      1154      1156
      1111      1115      1115      1116      1115      1117      1115      1118
      1118      1149      1149      1154      1149      1150      1150      1151
      1150      1152      1150      1153      1118      1119      1119      1120
      1119      1121      1121      1122      1121      1123      1121      1124
      1124      1125      1124      1147      1147      1148      1147      1149
      1124      1126      1126      1127      1126      1136      1136      1141
      1141      1142      1141      1143      1141      1144      1144      1145
      1144      1146      1144      1147      1136      1137      1137      1138
      1137      1139      1137      1140      1126      1128      1128      1129
      1128      1130      1128      1131      1131      1132      1131      1133
      1131      1134      1134      1135      1134      1136      1134      1160
      1160      1161      1160      1162      1162      1163      1162      1164
      1162      1165      1160      1166      1166      1167      1166      1168
      1166      1169      1169      1170      1169      1171      1169      1172
      1172      1173      1172      1174      1172      1175      1175      1176
      1175      1177      1177      1178      1177      1179      1177      1180
      1175      1181      1181      1182      1181      1183      1181      1184
      1185      1187      1185      1186      1187      1188      1185      1231
      1231      1232      1231      1233      1231      1228      1228      1229
      1228      1230      1185      1189      1189      1190      1189      1191
      1189      1192      1192      1223      1223      1228      1223      1224
      1224      1225      1224      1226      1224      1227      1192      1193
      1193      1194      1193      1195      1195      1196      1195      1197
      1195      1198      1198      1199      1198      1221      1221      1222
      1221      1223      1198      1200      1200      1201      1200      1210
      1210      1215      1215      1216      1215      1217      1215      1218
      1218      1219      1218      1220      1218      1221      1210      1211
      1211      1212      1211      1213      1211      1214      1200      1202
      1202      1203      1202      1204      1202      1205      1205      1206
      1205      1207      1205      1208      1208      1209      1208      1210
      1208      1234      1234      1235      1234      1236      1236      1237
      1236      1238      1236      1239      1234      1240      1240      1241
      1240      1242      1240      1243      1243      1244      1243      1245
      1243      1246      1246      1247      1246      1248      1246      1249
      1249      1250      1249      1251      1251      1252      1251      1253
      1251      1254      1249      1255      1255      1256      1255      1257
      1255      1258      1259      1261      1259      1260      1261      1262
      1259      1305      1305      1306      1305      1307      1305      1302
      1302      1303      1302      1304      1259      1263      1263      1264
      1263      1265      1263      1266      1266      1297      1297      1302
      1297      1298      1298      1299      1298      1300      1298      1301
      1266      1267      1267      1268      1267      1269      1269      1270
      1269      1271      1269      1272      1272      1273      1272      1295
      1295      1296      1295      1297      1272      1274      1274      1275
      1274      1284      1284      1289      1289      1290      1289      1291
      1289      1292      1292      1293      1292      1294      1292      1295
      1284      1285      1285      1286      1285      1287      1285      1288
      1274      1276      1276      1277      1276      1278      1276      1279
      1279      1280      1279      1281      1279      1282      1282      1283
      1282      1284      1282      1308      1308      1309      1308      1310
      1310      1311      1310      1312      1310      1313      1308      1314
      1314      1315      1314      1316      1314      1317      1317      1318
      1317      1319      1317      1320      1320      1321      1320      1322
      1320      1323      1323      1324      1323      1325      1325      1326
      1325      1327      1325      1328      1323      1329      1329      1330
      1329      1331      1329      1332      1333      1335      1333      1334
      1335      1336      1333      1379      1379      1380      1379      1381
      1379      1376      1376      1377      1376      1378      1333      1337
      1337      1338      1337      1339      1337      1340      1340      1371
      1371      1376      1371      1372      1372      1373      1372      1374
      1372      1375      1340      1341      1341      1342      1341      1343
      1343      1344      1343      1345      1343      1346      1346      1347
      1346      1369      1369      1370      1369      1371      1346      1348
      1348      1349      1348      1358      1358      1363      1363      1364
      1363      1365      1363      1366      1366      1367      1366      1368
      1366      1369      1358      1359      1359      1360      1359      1361
      1359      1362      1348      1350      1350      1351      1350      1352
      1350      1353      1353      1354      1353      1355      1353      1356
      1356      1357      1356      1358      1356      1382      1382      1383
      1382      1384      1384      1385      1384      1386      1384      1387
      1382      1388      1388      1389      1388      1390      1388      1391
      1391      1392      1391      1393      1391      1394      1394      1395
      1394      1396      1394      1397      1397      1398      1397      1399
      1399      1400      1399      1401      1399      1402      1397      1403
      1403      1404      1403      1405      1403      1406      1407      1409
      1407      1408      1409      1410      1407      1453      1453      1454
      1453      1455      1453      1450      1450      1451      1450      1452
      1407      1411      1411      1412      1411      1413      1411      1414
      1414      1445      1445      1450      1445      1446      1446      1447
      1446      1448      1446      1449      1414      1415      1415      1416
      1415      1417      1417      1418      1417      1419      1417      1420
      1420      1421      1420      1443      1443      1444      1443      1445
      1420      1422      1422      1423      1422      1432      1432      1437
      1437      1438      1437      1439      1437      1440      1440      1441
      1440      1442      1440      1443      1432      1433      1433      1434
      1433      1435      1433      1436      1422      1424      1424      1425
      1424      1426      1424      1427      1427      1428      1427      1429
      1427      1430      1430      1431      1430      1432      1430      1456
      1456      1457      1456      1458      1458      1459      1458      1460
      1458      1461      1456      1462      1462      1463      1462      1464
      1462      1465      1465      1466      1465      1467      1465      1468
      1468      1469      1468      1470      1468      1471      1471      1472
      1471      1473      1473      1474      1473      1475      1473      1476
      1471      1477      1477      1478      1477      1479      1477      1480
      1481      1483      1481      1482      1483      1484      1481      1527
      1527      1528      1527      1529      1527      1524      1524      1525
      1524      1526      1481      1485      1485      1486      1485      1487
      1485      1488      1488      1519      1519      1524      1519      1520
      1520      1521      1520      1522      1520      1523      1488      1489
      1489      1490      1489      1491      1491      1492      1491      1493
      1491      1494      1494      1495      1494      1517      1517      1518
      1517      1519      1494      1496      1496      1497      1496      1506
      1506      1511      1511      1512      1511      1513      1511      1514
      1514      1515      1514      1516      1514      1517      1506      1507
      1507      1508      1507      1509      1507      1510      1496      1498
      1498      1499      1498      1500      1498      1501      1501      1502
      1501      1503      1501      1504      1504      1505      1504      1506
      1504      1530      1530      1531      1530      1532      1532      1533
      1532      1534      1532      1535      1530      1536      1536      1537
      1536      1538      1536      1539      1539      1540      1539      1541
      1539      1542      1542      1543      1542      1544      1542      1545
      1545      1546      1545      1547      1547      1548      1547      1549
      1547      1550      1545      1551      1551      1552      1551      1553
      1551      1554      1555      1557      1555      1556      1557      1558
      1555      1601      1601      1602      1601      1603      1601      1598
      1598      1599      1598      1600      1555      1559      1559      1560
      1559      1561      1559      1562      1562      1593      1593      1598
      1593      1594      1594      1595      1594      1596      1594      1597
      1562      1563      1563      1564      1563      1565      1565      1566
      1565      1567      1565      1568      1568      1569      1568      1591
      1591      1592      1591      1593      1568      1570      1570      1571
      1570      1580      1580      1585      1585      1586      1585      1587
      1585      1588      1588      1589      1588      1590      1588      1591
      1580      1581      1581      1582      1581      1583      1581      1584
      1570      1572      1572      1573      1572      1574      1572      1575
      1575      1576      1575      1577      1575      1578      1578      1579
      1578      1580      1578      1604      1604      1605      1604      1606
      1606      1607      1606      1608      1606      1609      1604      1610
      1610      1611      1610      1612      1610      1613      1613      1614
      1613      1615      1613      1616      1616      1617      1616      1618
      1616      1619      1619      1620      1619      1621      1621      1622
      1621      1623      1621      1624      1619      1625      1625      1626
      1625      1627      1625      1628      1629      1631      1629      1630
      1631      1632      1629      1675      1675      1676      1675      1677
      1675      1672      1672      1673      1672      1674      1629      1633
      1633      1634      1633      1635      1633      1636      1636      1667
      1667      1672      1667      1668      1668      1669      1668      1670
      1668      1671      1636      1637      1637      1638      1637      1639
      1639      1640      1639      1641      1639      1642      1642      1643
      1642      1665      1665      1666      1665      1667      1642      1644
      1644      1645      1644      1654      1654      1659      1659      1660
      1659      1661      1659      1662      1662      1663      1662      1664
      1662      1665      1654      1655      1655      1656      1655      1657
      1655      1658      1644      1646      1646      1647      1646      1648
      1646      1649      1649      1650      1649      1651      1649      1652
      1652      1653      1652      1654      1652      1678      1678      1679
      1678      1680      1680      1681      1680      1682      1680      1683
      1678      1684      1684      1685      1684      1686      1684      1687
      1687      1688      1687      1689      1687      1690      1690      1691
      1690      1692      1690      1693      1693      1694      1693      1695
      1695      1696      1695      1697      1695      1698      1693      1699
      1699      1700      1699      1701      1699      1702      1703      1705
      1703      1704      1705      1706      1703      1749      1749      1750
      1749      1751      1749      1746      1746      1747      1746      1748
      1703      1707      1707      1708      1707      1709      1707      1710
      1710      1741      1741      1746      1741      1742      1742      1743
      1742      1744      1742      1745      1710      1711      1711      1712
      1711      1713      1713      1714      1713      1715      1713      1716
      1716      1717      1716      1739      1739      1740      1739      1741
      1716      1718      1718      1719      1718      1728      1728      1733
      1733      1734      1733      1735      1733      1736      1736      1737
      1736      1738      1736      1739      1728      1729      1729      1730
      1729      1731      1729      1732      1718      1720      1720      1721
      1720      1722      1720      1723      1723      1724      1723      1725
      1723      1726      1726      1727      1726      1728      1726      1752
      1752      1753      1752      1754      1754      1755      1754      1756
      1754      1757      1752      1758      1758      1759      1758      1760
      1758      1761      1761      1762      1761      1763      1761      1764
      1764      1765      1764      1766      1764      1767      1767      1768
      1767      1769      1769      1770      1769      1771      1769      1772
      1767      1773      1773      1774      1773      1775      1773      1776
      1777      1779      1777      1778      1779      1780      1777      1823
      1823      1824      1823      1825      1823      1820      1820      1821
      1820      1822      1777      1781      1781      1782      1781      1783
      1781      1784      1784      1815      1815      1820      1815      1816
      1816      1817      1816      1818      1816      1819      1784      1785
      1785      1786      1785      1787      1787      1788      1787      1789
      1787      1790      1790      1791      1790      1813      1813      1814
      1813      1815      1790      1792      1792      1793      1792      1802
      1802      1807      1807      1808      1807      1809      1807      1810
      1810      1811      1810      1812      1810      1813      1802      1803
      1803      1804      1803      1805      1803      1806      1792      1794
      1794      1795      1794      1796      1794      1797      1797      1798
      1797      1799      1797      1800      1800      1801      1800      1802
      1800      1826      1826      1827      1826      1828      1828      1829
      1828      1830      1828      1831      1826      1832      1832      1833
      1832      1834      1832      1835      1835      1836      1835      1837
      1835      1838      1838      1839      1838      1840      1838      1841
      1841      1842      1841      1843      1843      1844      1843      1845
      1843      1846      1841      1847      1847      1848      1847      1849
      1847      1850      1851      1853      1851      1852      1853      1854
      1851      1897      1897      1898      1897      1899      1897      1894
      1894      1895      1894      1896      1851      1855      1855      1856
      1855      1857      1855      1858      1858      1889      1889      1894
      1889      1890      1890      1891      1890      1892      1890      1893
      1858      1859      1859      1860      1859      1861      1861      1862
      1861      1863      1861      1864      1864      1865      1864      1887
      1887      1888      1887      1889      1864      1866      1866      1867
      1866      1876      1876      1881      1881      1882      1881      1883
      1881      1884      1884      1885      1884      1886      1884      1887
      1876      1877      1877      1878      1877      1879      1877      1880
      1866      1868      1868      1869      1868      1870      1868      1871
      1871      1872      1871      1873      1871      1874      1874      1875
      1874      1876      1874      1900      1900      1901      1900      1902
      1902      1903      1902      1904      1902      1905      1900      1906
      1906      1907      1906      1908      1906      1909      1909      1910
      1909      1911      1909      1912      1912      1913      1912      1914
      1912      1915      1915      1916      1915      1917      1917      1918
      1917      1919      1917      1920      1915      1921      1921      1922
      1921      1923      1921      1924      1925      1927      1925      1926
      1927      1928      1925      1971      1971      1972      1971      1973
      1971      1968      1968      1969      1968      1970      1925      1929
      1929      1930      1929      1931      1929      1932      1932      1963
      1963      1968      1963      1964      1964      1965      1964      1966
      1964      1967      1932      1933      1933      1934      1933      1935
      1935      1936      1935      1937      1935      1938      1938      1939
      1938      1961      1961      1962      1961      1963      1938      1940
      1940      1941      1940      1950      1950      1955      1955      1956
      1955      1957      1955      1958      1958      1959      1958      1960
      1958      1961      1950      1951      1951      1952      1951      1953
      1951      1954      1940      1942      1942      1943      1942      1944
      1942      1945      1945      1946      1945      1947      1945      1948
      1948      1949      1948      1950      1948      1974      1974      1975
      1974      1976      1976      1977      1976      1978      1976      1979
      1974      1980      1980      1981      1980      1982      1980      1983
      1983      1984      1983      1985      1983      1986      1986      1987
      1986      1988      1986      1989      1989      1990      1989      1991
      1991      1992      1991      1993      1991      1994      1989      1995
      1995      1996      1995      1997      1995      1998      1999      2001
      1999      2000      2001      2002      1999      2045      2045      2046
      2045      2047      2045      2042      2042      2043      2042      2044
      1999      2003      2003      2004      2003      2005      2003      2006
      2006      2037      2037      2042      2037      2038      2038      2039
      2038      2040      2038      2041      2006      2007      2007      2008
      2007      2009      2009      2010      2009      2011      2009      2012
      2012      2013      2012      2035      2035      2036      2035      2037
      2012      2014      2014      2015      2014      2024      2024      2029
      2029      2030      2029      2031      2029      2032      2032      2033
      2032      2034      2032      2035      2024      2025      2025      2026
      2025      2027      2025      2028      2014      2016      2016      2017
      2016      2018      2016      2019      2019      2020      2019      2021
      2019      2022      2022      2023      2022      2024      2022      2048
      2048      2049      2048      2050      2050      2051      2050      2052
      2050      2053      2048      2054      2054      2055      2054      2056
      2054      2057      2057      2058      2057      2059      2057      2060
      2060      2061      2060      2062      2060      2063      2063      2064
      2063      2065      2065      2066      2065      2067      2065      2068
      2063      2069      2069      2070      2069      2071      2069      2072
      2073      2075      2073      2074      2075      2076      2073      2119
      2119      2120      2119      2121      2119      2116      2116      2117
      2116      2118      2073      2077      2077      2078      2077      2079
      2077      2080      2080      2111      2111      2116      2111      2112
      2112      2113      2112      2114      2112      2115      2080      2081
      2081      2082      2081      2083      2083      2084      2083      2085
      2083      2086      2086      2087      2086      2109      2109      2110
      2109      2111      2086      2088      2088      2089      2088      2098
      2098      2103      2103      2104      2103      2105      2103      2106
      2106      2107      2106      2108      2106      2109      2098      2099
      2099      2100      2099      2101      2099      2102      2088      2090
      2090      2091      2090      2092      2090      2093      2093      2094
      2093      2095      2093      2096      2096      2097      2096      2098
      2096      2122      2122      2123      2122      2124      2124      2125
      2124      2126      2124      2127      2122      2128      2128      2129
      2128      2130      2128      2131      2131      2132      2131      2133
      2131      2134      2134      2135      2134      2136      2134      2137
      2137      2138      2137      2139      2139      2140      2139      2141
      2139      2142      2137      2143      2143      2144      2143      2145
      2143      2146      2147      2149      2147      2148      2149      2150
      2147      2193      2193      2194      2193      2195      2193      2190
      2190      2191      2190      2192      2147      2151      2151      2152
      2151      2153      2151      2154      2154      2185      2185      2190
      2185      2186      2186      2187      2186      2188      2186      2189
      2154      2155      2155      2156      2155      2157      2157      2158
      2157      2159      2157      2160      2160      2161      2160      2183
      2183      2184      2183      2185      2160      2162      2162      2163
      2162      2172      2172      2177      2177      2178      2177      2179
      2177      2180      2180      2181      2180      2182      2180      2183
      2172      2173      2173      2174      2173      2175      2173      2176
      2162      2164      2164      2165      2164      2166      2164      2167
      2167      2168      2167      2169      2167      2170      2170      2171
      2170      2172      2170      2196      2196      2197      2196      2198
      2198      2199      2198      2200      2198      2201      2196      2202
      2202      2203      2202      2204      2202      2205      2205      2206
      2205      2207      2205      2208      2208      2209      2208      2210
      2208      2211      2211      2212      2211      2213      2213      2214
      2213      2215      2213      2216      2211      2217      2217      2218
      2217      2219      2217      2220      2221      2223      2221      2222
      2223      2224      2221      2267      2267      2268      2267      2269
      2267      2264      2264      2265      2264      2266      2221      2225
      2225      2226      2225      2227      2225      2228      2228      2259
      2259      2264      2259      2260      2260      2261      2260      2262
      2260      2263      2228      2229      2229      2230      2229      2231
      2231      2232      2231      2233      2231      2234      2234      2235
      2234      2257      2257      2258      2257      2259      2234      2236
      2236      2237      2236      2246      2246      2251      2251      2252
      2251      2253      2251      2254      2254      2255      2254      2256
      2254      2257      2246      2247      2247      2248      2247      2249
      2247      2250      2236      2238      2238      2239      2238      2240
      2238      2241      2241      2242      2241      2243      2241      2244
      2244      2245      2244      2246      2244      2270      2270      2271
      2270      2272      2272      2273      2272      2274      2272      2275
      2270      2276      2276      2277      2276      2278      2276      2279
      2279      2280      2279      2281      2279      2282      2282      2283
      2282      2284      2282      2285      2285      2286      2285      2287
      2287      2288      2287      2289      2287      2290      2285      2291
      2291      2292      2291      2293      2291      2294      2295      2297
      2295      2296      2297      2298      2295      2341      2341      2342
      2341      2343      2341      2338      2338      2339      2338      2340
      2295      2299      2299      2300      2299      2301      2299      2302
      2302      2333      2333      2338      2333      2334      2334      2335
      2334      2336      2334      2337      2302      2303      2303      2304
      2303      2305      2305      2306      2305      2307      2305      2308
      2308      2309      2308      2331      2331      2332      2331      2333
      2308      2310      2310      2311      2310      2320      2320      2325
      2325      2326      2325      2327      2325      2328      2328      2329
      2328      2330      2328      2331      2320      2321      2321      2322
      2321      2323      2321      2324      2310      2312      2312      2313
      2312      2314      2312      2315      2315      2316      2315      2317
      2315      2318      2318      2319      2318      2320      2318      2344
      2344      2345      2344      2346      2346      2347      2346      2348
      2346      2349      2344      2350      2350      2351      2350      2352
      2350      2353      2353      2354      2353      2355      2353      2356
      2356      2357      2356      2358      2356      2359      2359      2360
      2359      2361      2361      2362      2361      2363      2361      2364
      2359      2365      2365      2366      2365      2367      2365      2368
      2369      2371      2369      2370      2371      2372      2369      2415
      2415      2416      2415      2417      2415      2412      2412      2413
      2412      2414      2369      2373      2373      2374      2373      2375
      2373      2376      2376      2407      2407      2412      2407      2408
      2408      2409      2408      2410      2408      2411      2376      2377
      2377      2378      2377      2379      2379      2380      2379      2381
      2379      2382      2382      2383      2382      2405      2405      2406
      2405      2407      2382      2384      2384      2385      2384      2394
      2394      2399      2399      2400      2399      2401      2399      2402
      2402      2403      2402      2404      2402      2405      2394      2395
      2395      2396      2395      2397      2395      2398      2384      2386
      2386      2387      2386      2388      2386      2389      2389      2390
      2389      2391      2389      2392      2392      2393      2392      2394
      2392      2418      2418      2419      2418      2420      2420      2421
      2420      2422      2420      2423      2418      2424      2424      2425
      2424      2426      2424      2427      2427      2428      2427      2429
      2427      2430      2430      2431      2430      2432      2430      2433
      2433      2434      2433      2435      2435      2436      2435      2437
      2435      2438      2433      2439      2439      2440      2439      2441
      2439      2442      2443      2445      2443      2444      2445      2446
      2443      2489      2489      2490      2489      2491      2489      2486
      2486      2487      2486      2488      2443      2447      2447      2448
      2447      2449      2447      2450      2450      2481      2481      2486
      2481      2482      2482      2483      2482      2484      2482      2485
      2450      2451      2451      2452      2451      2453      2453      2454
      2453      2455      2453      2456      2456      2457      2456      2479
      2479      2480      2479      2481      2456      2458      2458      2459
      2458      2468      2468      2473      2473      2474      2473      2475
      2473      2476      2476      2477      2476      2478      2476      2479
      2468      2469      2469      2470      2469      2471      2469      2472
      2458      2460      2460      2461      2460      2462      2460      2463
      2463      2464      2463      2465      2463      2466      2466      2467
      2466      2468      2466      2492      2492      2493      2492      2494
      2494      2495      2494      2496      2494      2497      2492      2498
      2498      2499      2498      2500      2498      2501      2501      2502
      2501      2503      2501      2504      2504      2505      2504      2506
      2504      2507      2507      2508      2507      2509      2509      2510
      2509      2511      2509      2512      2507      2513      2513      2514
      2513      2515      2513      2516      2517      2519      2517      2518
      2519      2520      2517      2563      2563      2564      2563      2565
      2563      2560      2560      2561      2560      2562      2517      2521
      2521      2522      2521      2523      2521      2524      2524      2555
      2555      2560      2555      2556      2556      2557      2556      2558
      2556      2559      2524      2525      2525      2526      2525      2527
      2527      2528      2527      2529      2527      2530      2530      2531
      2530      2553      2553      2554      2553      2555      2530      2532
      2532      2533      2532      2542      2542      2547      2547      2548
      2547      2549      2547      2550      2550      2551      2550      2552
      2550      2553      2542      2543      2543      2544      2543      2545
      2543      2546      2532      2534      2534      2535      2534      2536
      2534      2537      2537      2538      2537      2539      2537      2540
      2540      2541      2540      2542      2540      2566      2566      2567
      2566      2568      2568      2569      2568      2570      2568      2571
      2566      2572      2572      2573      2572      2574      2572      2575
      2575      2576      2575      2577      2575      2578      2578      2579
      2578      2580      2578      2581      2581      2582      2581      2583
      2583      2584      2583      2585      2583      2586      2581      2587
      2587      2588      2587      2589      2587      2590      2591      2593
      2591      2592      2593      2594      2591      2637      2637      2638
      2637      2639      2637      2634      2634      2635      2634      2636
      2591      2595      2595      2596      2595      2597      2595      2598
      2598      2629      2629      2634      2629      2630      2630      2631
      2630      2632      2630      2633      2598      2599      2599      2600
      2599      2601      2601      2602      2601      2603      2601      2604
      2604      2605      2604      2627      2627      2628      2627      2629
      2604      2606      2606      2607      2606      2616      2616      2621
      2621      2622      2621      2623      2621      2624      2624      2625
      2624      2626      2624      2627      2616      2617      2617      2618
      2617      2619      2617      2620      2606      2608      2608      2609
      2608      2610      2608      2611      2611      2612      2611      2613
      2611      2614      2614      2615      2614      2616      2614      2640
      2640      2641      2640      2642      2642      2643      2642      2644
      2642      2645      2640      2646      2646      2647      2646      2648
      2646      2649      2649      2650      2649      2651      2649      2652
      2652      2653      2652      2654      2652      2655      2655      2656
      2655      2657      2657      2658      2657      2659      2657      2660
      2655      2661      2661      2662      2661      2663      2661      2664
      2665      2667      2665      2666      2667      2668      2665      2711
      2711      2712      2711      2713      2711      2708      2708      2709
      2708      2710      2665      2669      2669      2670      2669      2671
      2669      2672      2672      2703      2703      2708      2703      2704
      2704      2705      2704      2706      2704      2707      2672      2673
      2673      2674      2673      2675      2675      2676      2675      2677
      2675      2678      2678      2679      2678      2701      2701      2702
      2701      2703      2678      2680      2680      2681      2680      2690
      2690      2695      2695      2696      2695      2697      2695      2698
      2698      2699      2698      2700      2698      2701      2690      2691
      2691      2692      2691      2693      2691      2694      2680      2682
      2682      2683      2682      2684      2682      2685      2685      2686
      2685      2687      2685      2688      2688      2689      2688      2690
      2688      2714      2714      2715      2714      2716      2716      2717
      2716      2718      2716      2719      2714      2720      2720      2721
      2720      2722      2720      2723      2723      2724      2723      2725
      2723      2726      2726      2727      2726      2728      2726      2729
      2729      2730      2729      2731      2731      2732      2731      2733
      2731      2734      2729      2735      2735      2736      2735      2737
      2735      2738      2739      2741      2739      2740      2741      2742
      2739      2785      2785      2786      2785      2787      2785      2782
      2782      2783      2782      2784      2739      2743      2743      2744
      2743      2745      2743      2746      2746      2777      2777      2782
      2777      2778      2778      2779      2778      2780      2778      2781
      2746      2747      2747      2748      2747      2749      2749      2750
      2749      2751      2749      2752      2752      2753      2752      2775
      2775      2776      2775      2777      2752      2754      2754      2755
      2754      2764      2764      2769      2769      2770      2769      2771
      2769      2772      2772      2773      2772      2774      2772      2775
      2764      2765      2765      2766      2765      2767      2765      2768
      2754      2756      2756      2757      2756      2758      2756      2759
      2759      2760      2759      2761      2759      2762      2762      2763
      2762      2764      2762      2788      2788      2789      2788      2790
      2790      2791      2790      2792      2790      2793      2788      2794
      2794      2795      2794      2796      2794      2797      2797      2798
      2797      2799      2797      2800      2800      2801      2800      2802
      2800      2803      2803      2804      2803      2805      2805      2806
      2805      2807      2805      2808      2803      2809      2809      2810
      2809      2811      2809      2812      2813      2817      2813      2821
      2813      2825      2817      2818      2817      2819      2817      2820
      2821      2822      2821      2823      2821      2824      2825      2826
      2825      2827      2825      2828      2813      2814      2814      2815
      2814      2816      2814      2829      2829      2830      2829      2831
      2829      2835      2836      2837      2835      2832      2832      2836
      2832      2833      2832      2834      2837      2838      2837      2839
      2837      2840      2840      2841      2840      2848      2840      2842
      2848      2849      2848      2850      2848      2851      2842      2843
      2843      2845      2843      2844      2845      2846      2845      2847
      2845      2857      2857      2858      2857      2859      2857      2860
      2860      2861      2860      2862      2860      2863      2863      2864
      2863      2865      2863      2866      2866      2867      2866      2868
      2866      2869      2869      2870      2869      2871      2869      2872
      2872      2873      2872      2874      2872      2875      2875      2876
      2875      2877      2877      2878      2877      2879      2879      2880
      2879      2881      2879      2882      2882      2883      2882      2884
      2882      2885      2885      2886      2885      2887      2885      2888
      2888      2889      2888      2890      2888      2891      2891      2892
      2891      2893      2891      2894      2894      2895      2894      2896
      2894      2897      2897      2898      2897      2899      2897      2900
      2900      2901      2900      2902      2900      2903      2851      2852
      2852      2854      2852      2853      2854      2855      2854      2856
      2854      2904      2904      2905      2904      2906      2904      2907
      2907      2908      2907      2909      2907      2910      2910      2911
      2910      2912      2910      2913      2913      2914      2913      2915
      2913      2916      2916      2917      2916      2918      2916      2919
      2919      2920      2919      2921      2919      2922      2922      2923
      2922      2924      2922      2925      2925      2926      2925      2927
      2925      2928      2928      2929      2928      2930      2928      2931
      2931      2932      2931      2933      2931      2934      2934      2935
      2934      2936      2934      2937      2937      2938      2937      2939
      2937      2940      2940      2941      2940      2942      2940      2943
      2943      2944      2943      2945      2943      2946      2947      2951
      2947      2955      2947      2959      2951      2952      2951      2953
      2951      2954      2955      2956      2955      2957      2955      2958
      2959      2960      2959      2961      2959      2962      2947      2948
      2948      2949      2948      2950      2948      2963      2963      2964
      2963      2965      2963      2969      2970      2971      2969      2966
      2966      2970      2966      2967      2966      2968      2971      2972
      2971      2973      2971      2974      2974      2975      2974      2982
      2974      2976      2982      2983      2982      2984      2982      2985
      2976      2977      2977      2979      2977      2978      2979      2980
      2979      2981      2979      2991      2991      2992      2991      2993
      2991      2994      2994      2995      2994      2996      2994      2997
      2997      2998      2997      2999      2997      3000      3000      3001
      3000      3002      3000      3003      3003      3004      3003      3005
      3003      3006      3006      3007      3006      3008      3006      3009
      3009      3010      3009      3011      3011      3012      3011      3013
      3013      3014      3013      3015      3013      3016      3016      3017
      3016      3018      3016      3019      3019      3020      3019      3021
      3019      3022      3022      3023      3022      3024      3022      3025
      3025      3026      3025      3027      3025      3028      3028      3029
      3028      3030      3028      3031      3031      3032      3031      3033
      3031      3034      3034      3035      3034      3036      3034      3037
      2985      2986      2986      2988      2986      2987      2988      2989
      2988      2990      2988      3038      3038      3039      3038      3040
      3038      3041      3041      3042      3041      3043      3041      3044
      3044      3045      3044      3046      3044      3047      3047      3048
      3047      3049      3047      3050      3050      3051      3050      3052
      3050      3053      3053      3054      3053      3055      3053      3056
      3056      3057      3056      3058      3056      3059      3059      3060
      3059      3061      3059      3062      3062      3063      3062      3064
      3062      3065      3065      3066      3065      3067      3065      3068
      3068      3069      3068      3070      3068      3071      3071      3072
      3071      3073      3071      3074      3074      3075      3074      3076
      3074      3077      3077      3078      3077      3079      3077      3080
      3081      3085      3081      3089      3081      3093      3085      3086
      3085      3087      3085      3088      3089      3090      3089      3091
      3089      3092      3093      3094      3093      3095      3093      3096
      3081      3082      3082      3083      3082      3084      3082      3097
      3097      3098      3097      3099      3097      3103      3104      3105
      3103      3100      3100      3104      3100      3101      3100      3102
      3105      3106      3105      3107      3105      3108      3108      3109
      3108      3116      3108      3110      3116      3117      3116      3118
      3116      3119      3110      3111      3111      3113      3111      3112
      3113      3114      3113      3115      3113      3125      3125      3126
      3125      3127      3125      3128      3128      3129      3128      3130
      3128      3131      3131      3132      3131      3133      3131      3134
      3134      3135      3134      3136      3134      3137      3137      3138
      3137      3139      3137      3140      3140      3141      3140      3142
      3140      3143      3143      3144      3143      3145      3145      3146
      3145      3147      3147      3148      3147      3149      3147      3150
      3150      3151      3150      3152      3150      3153      3153      3154
      3153      3155      3153      3156      3156      3157      3156      3158
      3156      3159      3159      3160      3159      3161      3159      3162
      3162      3163      3162      3164      3162      3165      3165      3166
      3165      3167      3165      3168      3168      3169      3168      3170
      3168      3171      3119      3120      3120      3122      3120      3121
      3122      3123      3122      3124      3122      3172      3172      3173
      3172      3174      3172      3175      3175      3176      3175      3177
      3175      3178      3178      3179      3178      3180      3178      3181
      3181      3182      3181      3183      3181      3184      3184      3185
      3184      3186      3184      3187      3187      3188      3187      3189
      3187      3190      3190      3191      3190      3192      3190      3193
      3193      3194      3193      3195      3193      3196      3196      3197
      3196      3198      3196      3199      3199      3200      3199      3201
      3199      3202      3202      3203      3202      3204      3202      3205
      3205      3206      3205      3207      3205      3208      3208      3209
      3208      3210      3208      3211      3211      3212      3211      3213
      3211      3214      3215      3219      3215      3223      3215      3227
      3219      3220      3219      3221      3219      3222      3223      3224
      3223      3225      3223      3226      3227      3228      3227      3229
      3227      3230      3215      3216      3216      3217      3216      3218
      3216      3231      3231      3232      3231      3233      3231      3237
      3238      3239      3237      3234      3234      3238      3234      3235
      3234      3236      3239      3240      3239      3241      3239      3242
      3242      3243      3242      3250      3242      3244      3250      3251
      3250      3252      3250      3253      3244      3245      3245      3247
      3245      3246      3247      3248      3247      3249      3247      3259
      3259      3260      3259      3261      3259      3262      3262      3263
      3262      3264      3262      3265      3265      3266      3265      3267
      3265      3268      3268      3269      3268      3270      3268      3271
      3271      3272      3271      3273      3271      3274      3274      3275
      3274      3276      3274      3277      3277      3278      3277      3279
      3279      3280      3279      3281      3281      3282      3281      3283
      3281      3284      3284      3285      3284      3286      3284      3287
      3287      3288      3287      3289      3287      3290      3290      3291
      3290      3292      3290      3293      3293      3294      3293      3295
      3293      3296      3296      3297      3296      3298      3296      3299
      3299      3300      3299      3301      3299      3302      3302      3303
      3302      3304      3302      3305      3253      3254      3254      3256
      3254      3255      3256      3257      3256      3258      3256      3306
      3306      3307      3306      3308      3306      3309      3309      3310
      3309      3311      3309      3312      3312      3313      3312      3314
      3312      3315      3315      3316      3315      3317      3315      3318
      3318      3319      3318      3320      3318      3321      3321      3322
      3321      3323      3321      3324      3324      3325      3324      3326
      3324      3327      3327      3328      3327      3329      3327      3330
      3330      3331      3330      3332      3330      3333      3333      3334
      3333      3335      3333      3336      3336      3337      3336      3338
      3336      3339      3339      3340      3339      3341      3339      3342
      3342      3343      3342      3344      3342      3345      3345      3346
      3345      3347      3345      3348      3349      3353      3349      3357
      3349      3361      3353      3354      3353      3355      3353      3356
      3357      3358      3357      3359      3357      3360      3361      3362
      3361      3363      3361      3364      3349      3350      3350      3351
      3350      3352      3350      3365      3365      3366      3365      3367
      3365      3371      3372      3373      3371      3368      3368      3372
      3368      3369      3368      3370      3373      3374      3373      3375
      3373      3376      3376      3377      3376      3384      3376      3378
      3384      3385      3384      3386      3384      3387      3378      3379
      3379      3381      3379      3380      3381      3382      3381      3383
      3381      3393      3393      3394      3393      3395      3393      3396
      3396      3397      3396      3398      3396      3399      3399      3400
      3399      3401      3399      3402      3402      3403      3402      3404
      3402      3405      3405      3406      3405      3407      3405      3408
      3408      3409      3408      3410      3408      3411      3411      3412
      3411      3413      3413      3414      3413      3415      3415      3416
      3415      3417      3415      3418      3418      3419      3418      3420
      3418      3421      3421      3422      3421      3423      3421      3424
      3424      3425      3424      3426      3424      3427      3427      3428
      3427      3429      3427      3430      3430      3431      3430      3432
      3430      3433      3433      3434      3433      3435      3433      3436
      3436      3437      3436      3438      3436      3439      3387      3388
      3388      3390      3388      3389      3390      3391      3390      3392
      3390      3440      3440      3441      3440      3442      3440      3443
      3443      3444      3443      3445      3443      3446      3446      3447
      3446      3448      3446      3449      3449      3450      3449      3451
      3449      3452      3452      3453      3452      3454      3452      3455
      3455      3456      3455      3457      3455      3458      3458      3459
      3458      3460      3458      3461      3461      3462      3461      3463
      3461      3464      3464      3465      3464      3466      3464      3467
      3467      3468      3467      3469      3467      3470      3470      3471
      3470      3472      3470      3473      3473      3474      3473      3475
      3473      3476      3476      3477      3476      3478      3476      3479
      3479      3480      3479      3481      3479      3482      3483      3484
      3483      3485      3483      3486      3483      3487      3487      3488
      3487      3489      3487      3490      3490      3491      3490      3492
      3490      3497      3497      3493      3493      3496      3493      3494
      3493      3495      3498      3499      3498      3500      3498      3501
      3498      3496      3501      3502      3501      3509      3501      3503
      3509      3510      3509      3511      3509      3512      3503      3504
      3504      3506      3504      3505      3506      3507      3506      3508
      3506      3518      3518      3519      3518      3520      3518      3521
      3521      3522      3521      3523      3521      3524      3524      3525
      3524      3526      3524      3527      3527      3528      3527      3529
      3527      3530      3530      3531      3530      3532      3530      3533
      3533      3534      3533      3535      3533      3536      3536      3537
      3536      3538      3538      3539      3538      3540      3540      3541
      3540      3542      3540      3543      3543      3544      3543      3545
      3543      3546      3546      3547      3546      3548      3546      3549
      3549      3550      3549      3551      3549      3552      3552      3553
      3552      3554      3552      3555      3555      3556      3555      3557
      3555      3558      3558      3559      3558      3560      3558      3561
      3561      3562      3561      3563      3561      3564      3512      3513
      3513      3515      3513      3514      3515      3516      3515      3517
      3515      3565      3565      3566      3565      3567      3565      3568
      3568      3569      3568      3570      3568      3571      3571      3572
      3571      3573      3571      3574      3574      3575      3574      3576
      3574      3577      3577      3578      3577      3579      3577      3580
      3580      3581      3580      3582      3580      3583      3583      3584
      3583      3585      3583      3586      3586      3587      3586      3588
      3586      3589      3589      3590      3589      3591      3589      3592
      3592      3593      3592      3594      3592      3595      3595      3596
      3595      3597      3595      3598      3598      3599      3598      3600
      3598      3601      3601      3602      3601      3603      3601      3604
      3604      3605      3604      3606      3604      3607      3608      3612
      3608      3616      3608      3620      3612      3613      3612      3614
      3612      3615      3616      3617      3616      3618      3616      3619
      3620      3621      3620      3622      3620      3623      3608      3609
      3609      3610      3609      3611      3609      3624      3624      3625
      3624      3626      3624      3630      3631      3632      3630      3627
      3627      3631      3627      3628      3627      3629      3632      3633
      3632      3634      3632      3635      3635      3636      3635      3643
      3635      3637      3643      3644      3643      3645      3643      3646
      3637      3638      3638      3640      3638      3639      3640      3641
      3640      3642      3640      3652      3652      3653      3652      3654
      3652      3655      3655      3656      3655      3657      3655      3658
      3658      3659      3658      3660      3658      3661      3661      3662
      3661      3663      3661      3664      3664      3665      3664      3666
      3664      3667      3667      3668      3667      3669      3667      3670
      3670      3671      3670      3672      3672      3673      3672      3674
      3674      3675      3674      3676      3674      3677      3677      3678
      3677      3679      3677      3680      3680      3681      3680      3682
      3680      3683      3683      3684      3683      3685      3683      3686
      3686      3687      3686      3688      3686      3689      3689      3690
      3689      3691      3689      3692      3692      3693      3692      3694
      3692      3695      3695      3696      3695      3697      3695      3698
      3646      3647      3647      3649      3647      3648      3649      3650
      3649      3651      3649      3699      3699      3700      3699      3701
      3699      3702      3702      3703      3702      3704      3702      3705
      3705      3706      3705      3707      3705      3708      3708      3709
      3708      3710      3708      3711      3711      3712      3711      3713
      3711      3714      3714      3715      3714      3716      3714      3717
      3717      3718      3717      3719      3717      3720      3720      3721
      3720      3722      3720      3723      3723      3724      3723      3725
      3723      3726      3726      3727      3726      3728      3726      3729
      3729      3730      3729      3731      3729      3732      3732      3733
      3732      3734      3732      3735      3735      3736      3735      3737
      3735      3738      3738      3739      3738      3740      3738      3741
      3742      3743      3742      3744      3742      3745      3742      3746
      3746      3747      3746      3748      3746      3749      3749      3750
      3749      3751      3749      3756      3756      3752      3752      3755
      3752      3753      3752      3754      3757      3758      3757      3759
      3757      3760      3757      3755      3760      3761      3760      3768
      3760      3762      3768      3769      3768      3770      3768      3771
      3762      3763      3763      3765      3763      3764      3765      3766
      3765      3767      3765      3777      3777      3778      3777      3779
      3777      3780      3780      3781      3780      3782      3780      3783
      3783      3784      3783      3785      3783      3786      3786      3787
      3786      3788      3786      3789      3789      3790      3789      3791
      3789      3792      3792      3793      3792      3794      3792      3795
      3795      3796      3795      3797      3797      3798      3797      3799
      3799      3800      3799      3801      3799      3802      3802      3803
      3802      3804      3802      3805      3805      3806      3805      3807
      3805      3808      3808      3809      3808      3810      3808      3811
      3811      3812      3811      3813      3811      3814      3814      3815
      3814      3816      3814      3817      3817      3818      3817      3819
      3817      3820      3820      3821      3820      3822      3820      3823
      3771      3772      3772      3774      3772      3773      3774      3775
      3774      3776      3774      3824      3824      3825      3824      3826
      3824      3827      3827      3828      3827      3829      3827      3830
      3830      3831      3830      3832      3830      3833      3833      3834
      3833      3835      3833      3836      3836      3837      3836      3838
      3836      3839      3839      3840      3839      3841      3839      3842
      3842      3843      3842      3844      3842      3845      3845      3846
      3845      3847      3845      3848      3848      3849      3848      3850
      3848      3851      3851      3852      3851      3853      3851      3854
      3854      3855      3854      3856      3854      3857      3857      3858
      3857      3859      3857      3860      3860      3861      3860      3862
      3860      3863      3863      3864      3863      3865      3863      3866
      3867      3868      3867      3869      3867      3870      3867      3871
      3871      3872      3871      3873      3871      3874      3874      3875
      3874      3876      3874      3881      3881      3877      3877      3880
      3877      3878      3877      3879      3882      3883      3882      3884
      3882      3885      3882      3880      3885      3886      3885      3893
      3885      3887      3893      3894      3893      3895      3893      3896
      3887      3888      3888      3890      3888      3889      3890      3891
      3890      3892      3890      3902      3902      3903      3902      3904
      3902      3905      3905      3906      3905      3907      3905      3908
      3908      3909      3908      3910      3908      3911      3911      3912
      3911      3913      3911      3914      3914      3915      3914      3916
      3914      3917      3917      3918      3917      3919      3917      3920
      3920      3921      3920      3922      3922      3923      3922      3924
      3924      3925      3924      3926      3924      3927      3927      3928
      3927      3929      3927      3930      3930      3931      3930      3932
      3930      3933      3933      3934      3933      3935      3933      3936
      3936      3937      3936      3938      3936      3939      3939      3940
      3939      3941      3939      3942      3942      3943      3942      3944
      3942      3945      3945      3946      3945      3947      3945      3948
      3896      3897      3897      3899      3897      3898      3899      3900
      3899      3901      3899      3949      3949      3950      3949      3951
      3949      3952      3952      3953      3952      3954      3952      3955
      3955      3956      3955      3957      3955      3958      3958      3959
      3958      3960      3958      3961      3961      3962      3961      3963
      3961      3964      3964      3965      3964      3966      3964      3967
      3967      3968      3967      3969      3967      3970      3970      3971
      3970      3972      3970      3973      3973      3974      3973      3975
      3973      3976      3976      3977      3976      3978      3976      3979
      3979      3980      3979      3981      3979      3982      3982      3983
      3982      3984      3982      3985      3985      3986      3985      3987
      3985      3988      3988      3989      3988      3990      3988      3991
      3992      3993      3992      3994      3992      3995      3992      3996
      3996      3997      3996      3998      3996      3999      3999      4000
      3999      4001      3999      4006      4006      4002      4002      4005
      4002      4003      4002      4004      4007      4008      4007      4009
      4007      4010      4007      4005      4010      4011      4010      4018
      4010      4012      4018      4019      4018      4020      4018      4021
      4012      4013      4013      4015      4013      4014      4015      4016
      4015      4017      4015      4027      4027      4028      4027      4029
      4027      4030      4030      4031      4030      4032      4030      4033
      4033      4034      4033      4035      4033      4036      4036      4037
      4036      4038      4036      4039      4039      4040      4039      4041
      4039      4042      4042      4043      4042      4044      4042      4045
      4045      4046      4045      4047      4047      4048      4047      4049
      4049      4050      4049      4051      4049      4052      4052      4053
      4052      4054      4052      4055      4055      4056      4055      4057
      4055      4058      4058      4059      4058      4060      4058      4061
      4061      4062      4061      4063      4061      4064      4064      4065
      4064      4066      4064      4067      4067      4068      4067      4069
      4067      4070      4070      4071      4070      4072      4070      4073
      4021      4022      4022      4024      4022      4023      4024      4025
      4024      4026      4024      4074      4074      4075      4074      4076
      4074      4077      4077      4078      4077      4079      4077      4080
      4080      4081      4080      4082      4080      4083      4083      4084
      4083      4085      4083      4086      4086      4087      4086      4088
      4086      4089      4089      4090      4089      4091      4089      4092
      4092      4093      4092      4094      4092      4095      4095      4096
      4095      4097      4095      4098      4098      4099      4098      4100
      4098      4101      4101      4102      4101      4103      4101      4104
      4104      4105      4104      4106      4104      4107      4107      4108
      4107      4109      4107      4110      4110      4111      4110      4112
      4110      4113      4113      4114      4113      4115      4113      4116
      4117      4121      4117      4125      4117      4129      4121      4122
      4121      4123      4121      4124      4125      4126      4125      4127
      4125      4128      4129      4130      4129      4131      4129      4132
      4117      4118      4118      4119      4118      4120      4118      4133
      4133      4134      4133      4135      4133      4139      4140      4141
      4139      4136      4136      4140      4136      4137      4136      4138
      4141      4142      4141      4143      4141      4144      4144      4145
      4144      4152      4144      4146      4152      4153      4152      4154
      4152      4155      4146      4147      4147      4149      4147      4148
      4149      4150      4149      4151      4149      4161      4161      4162
      4161      4163      4161      4164      4164      4165      4164      4166
      4164      4167      4167      4168      4167      4169      4167      4170
      4170      4171      4170      4172      4170      4173      4173      4174
      4173      4175      4173      4176      4176      4177      4176      4178
      4176      4179      4179      4180      4179      4181      4181      4182
      4181      4183      4183      4184      4183      4185      4183      4186
      4186      4187      4186      4188      4186      4189      4189      4190
      4189      4191      4189      4192      4192      4193      4192      4194
      4192      4195      4195      4196      4195      4197      4195      4198
      4198      4199      4198      4200      4198      4201      4201      4202
      4201      4203      4201      4204      4204      4205      4204      4206
      4204      4207      4155      4156      4156      4158      4156      4157
      4158      4159      4158      4160      4158      4208      4208      4209
      4208      4210      4208      4211      4211      4212      4211      4213
      4211      4214      4214      4215      4214      4216      4214      4217
      4217      4218      4217      4219      4217      4220      4220      4221
      4220      4222      4220      4223      4223      4224      4223      4225
      4223      4226      4226      4227      4226      4228      4226      4229
      4229      4230      4229      4231      4229      4232      4232      4233
      4232      4234      4232      4235      4235      4236      4235      4237
      4235      4238      4238      4239      4238      4240      4238      4241
      4241      4242      4241      4243      4241      4244      4244      4245
      4244      4246      4244      4247      4247      4248      4247      4249
      4247      4250      4251      4255      4251      4259      4251      4263
      4255      4256      4255      4257      4255      4258      4259      4260
      4259      4261      4259      4262      4263      4264      4263      4265
      4263      4266      4251      4252      4252      4253      4252      4254
      4252      4267      4267      4268      4267      4269      4267      4273
      4274      4275      4273      4270      4270      4274      4270      4271
      4270      4272      4275      4276      4275      4277      4275      4278
      4278      4279      4278      4286      4278      4280      4286      4287
      4286      4288      4286      4289      4280      4281      4281      4283
      4281      4282      4283      4284      4283      4285      4283      4295
      4295      4296      4295      4297      4295      4298      4298      4299
      4298      4300      4298      4301      4301      4302      4301      4303
      4301      4304      4304      4305      4304      4306      4304      4307
      4307      4308      4307      4309      4307      4310      4310      4311
      4310      4312      4310      4313      4313      4314      4313      4315
      4315      4316      4315      4317      4317      4318      4317      4319
      4317      4320      4320      4321      4320      4322      4320      4323
      4323      4324      4323      4325      4323      4326      4326      4327
      4326      4328      4326      4329      4329      4330      4329      4331
      4329      4332      4332      4333      4332      4334      4332      4335
      4335      4336      4335      4337      4335      4338      4338      4339
      4338      4340      4338      4341      4289      4290      4290      4292
      4290      4291      4292      4293      4292      4294      4292      4342
      4342      4343      4342      4344      4342      4345      4345      4346
      4345      4347      4345      4348      4348      4349      4348      4350
      4348      4351      4351      4352      4351      4353      4351      4354
      4354      4355      4354      4356      4354      4357      4357      4358
      4357      4359      4357      4360      4360      4361      4360      4362
      4360      4363      4363      4364      4363      4365      4363      4366
      4366      4367      4366      4368      4366      4369      4369      4370
      4369      4371      4369      4372      4372      4373      4372      4374
      4372      4375      4375      4376      4375      4377      4375      4378
      4378      4379      4378      4380      4378      4381      4381      4382
      4381      4383      4381      4384      4385      4389      4385      4393
      4385      4397      4389      4390      4389      4391      4389      4392
      4393      4394      4393      4395      4393      4396      4397      4398
      4397      4399      4397      4400      4385      4386      4386      4387
      4386      4388      4386      4401      4401      4402      4401      4403
      4401      4407      4408      4409      4407      4404      4404      4408
      4404      4405      4404      4406      4409      4410      4409      4411
      4409      4412      4412      4413      4412      4420      4412      4414
      4420      4421      4420      4422      4420      4423      4414      4415
      4415      4417      4415      4416      4417      4418      4417      4419
      4417      4429      4429      4430      4429      4431      4429      4432
      4432      4433      4432      4434      4432      4435      4435      4436
      4435      4437      4435      4438      4438      4439      4438      4440
      4438      4441      4441      4442      4441      4443      4441      4444
      4444      4445      4444      4446      4444      4447      4447      4448
      4447      4449      4449      4450      4449      4451      4451      4452
      4451      4453      4451      4454      4454      4455      4454      4456
      4454      4457      4457      4458      4457      4459      4457      4460
      4460      4461      4460      4462      4460      4463      4463      4464
      4463      4465      4463      4466      4466      4467      4466      4468
      4466      4469      4469      4470      4469      4471      4469      4472
      4472      4473      4472      4474      4472      4475      4423      4424
      4424      4426      4424      4425      4426      4427      4426      4428
      4426      4476      4476      4477      4476      4478      4476      4479
      4479      4480      4479      4481      4479      4482      4482      4483
      4482      4484      4482      4485      4485      4486      4485      4487
      4485      4488      4488      4489      4488      4490      4488      4491
      4491      4492      4491      4493      4491      4494      4494      4495
      4494      4496      4494      4497      4497      4498      4497      4499
      4497      4500      4500      4501      4500      4502      4500      4503
      4503      4504      4503      4505      4503      4506      4506      4507
      4506      4508      4506      4509      4509      4510      4509      4511
      4509      4512      4512      4513      4512      4514      4512      4515
      4515      4516      4515      4517      4515      4518      4519      4523
      4519      4527      4519      4531      4523      4524      4523      4525
      4523      4526      4527      4528      4527      4529      4527      4530
      4531      4532      4531      4533      4531      4534      4519      4520
      4520      4521      4520      4522      4520      4535      4535      4536
      4535      4537      4535      4541      4542      4543      4541      4538
      4538      4542      4538      4539      4538      4540      4543      4544
      4543      4545      4543      4546      4546      4547      4546      4554
      4546      4548      4554      4555      4554      4556      4554      4557
      4548      4549      4549      4551      4549      4550      4551      4552
      4551      4553      4551      4563      4563      4564      4563      4565
      4563      4566      4566      4567      4566      4568      4566      4569
      4569      4570      4569      4571      4569      4572      4572      4573
      4572      4574      4572      4575      4575      4576      4575      4577
      4575      4578      4578      4579      4578      4580      4578      4581
      4581      4582      4581      4583      4583      4584      4583      4585
      4585      4586      4585      4587      4585      4588      4588      4589
      4588      4590      4588      4591      4591      4592      4591      4593
      4591      4594      4594      4595      4594      4596      4594      4597
      4597      4598      4597      4599      4597      4600      4600      4601
      4600      4602      4600      4603      4603      4604      4603      4605
      4603      4606      4606      4607      4606      4608      4606      4609
      4557      4558      4558      4560      4558      4559      4560      4561
      4560      4562      4560      4610      4610      4611      4610      4612
      4610      4613      4613      4614      4613      4615      4613      4616
      4616      4617      4616      4618      4616      4619      4619      4620
      4619      4621      4619      4622      4622      4623      4622      4624
      4622      4625      4625      4626      4625      4627      4625      4628
      4628      4629      4628      4630      4628      4631      4631      4632
      4631      4633      4631      4634      4634      4635      4634      4636
      4634      4637      4637      4638      4637      4639      4637      4640
      4640      4641      4640      4642      4640      4643      4643      4644
      4643      4645      4643      4646      4646      4647      4646      4648
      4646      4649      4649      4650      4649      4651      4649      4652
      4653      4657      4653      4661      4653      4665      4657      4658
      4657      4659      4657      4660      4661      4662      4661      4663
      4661      4664      4665      4666      4665      4667      4665      4668
      4653      4654      4654      4655      4654      4656      4654      4669
      4669      4670      4669      4671      4669      4675      4676      4677
      4675      4672      4672      4676      4672      4673      4672      4674
      4677      4678      4677      4679      4677      4680      4680      4681
      4680      4688      4680      4682      4688      4689      4688      4690
      4688      4691      4682      4683      4683      4685      4683      4684
      4685      4686      4685      4687      4685      4697      4697      4698
      4697      4699      4697      4700      4700      4701      4700      4702
      4700      4703      4703      4704      4703      4705      4703      4706
      4706      4707      4706      4708      4706      4709      4709      4710
      4709      4711      4709      4712      4712      4713      4712      4714
      4712      4715      4715      4716      4715      4717      4717      4718
      4717      4719      4719      4720      4719      4721      4719      4722
      4722      4723      4722      4724      4722      4725      4725      4726
      4725      4727      4725      4728      4728      4729      4728      4730
      4728      4731      4731      4732      4731      4733      4731      4734
      4734      4735      4734      4736      4734      4737      4737      4738
      4737      4739      4737      4740      4740      4741      4740      4742
      4740      4743      4691      4692      4692      4694      4692      4693
      4694      4695      4694      4696      4694      4744      4744      4745
      4744      4746      4744      4747      4747      4748      4747      4749
      4747      4750      4750      4751      4750      4752      4750      4753
      4753      4754      4753      4755      4753      4756      4756      4757
      4756      4758      4756      4759      4759      4760      4759      4761
      4759      4762      4762      4763      4762      4764      4762      4765
      4765      4766      4765      4767      4765      4768      4768      4769
      4768      4770      4768      4771      4771      4772      4771      4773
      4771      4774      4774      4775      4774      4776      4774      4777
      4777      4778      4777      4779      4777      4780      4780      4781
      4780      4782      4780      4783      4783      4784      4783      4785
      4783      4786      4787      4791      4787      4795      4787      4799
      4791      4792      4791      4793      4791      4794      4795      4796
      4795      4797      4795      4798      4799      4800      4799      4801
      4799      4802      4787      4788      4788      4789      4788      4790
      4788      4803      4803      4804      4803      4805      4803      4809
      4810      4811      4809      4806      4806      4810      4806      4807
      4806      4808      4811      4812      4811      4813      4811      4814
      4814      4815      4814      4822      4814      4816      4822      4823
      4822      4824      4822      4825      4816      4817      4817      4819
      4817      4818      4819      4820      4819      4821      4819      4831
      4831      4832      4831      4833      4831      4834      4834      4835
      4834      4836      4834      4837      4837      4838      4837      4839
      4837      4840      4840      4841      4840      4842      4840      4843
      4843      4844      4843      4845      4843      4846      4846      4847
      4846      4848      4846      4849      4849      4850      4849      4851
      4851      4852      4851      4853      4853      4854      4853      4855
      4853      4856      4856      4857      4856      4858      4856      4859
      4859      4860      4859      4861      4859      4862      4862      4863
      4862      4864      4862      4865      4865      4866      4865      4867
      4865      4868      4868      4869      4868      4870      4868      4871
      4871      4872      4871      4873      4871      4874      4874      4875
      4874      4876      4874      4877      4825      4826      4826      4828
      4826      4827      4828      4829      4828      4830      4828      4878
      4878      4879      4878      4880      4878      4881      4881      4882
      4881      4883      4881      4884      4884      4885      4884      4886
      4884      4887      4887      4888      4887      4889      4887      4890
      4890      4891      4890      4892      4890      4893      4893      4894
      4893      4895      4893      4896      4896      4897      4896      4898
      4896      4899      4899      4900      4899      4901      4899      4902
      4902      4903      4902      4904      4902      4905      4905      4906
      4905      4907      4905      4908      4908      4909      4908      4910
      4908      4911      4911      4912      4911      4913      4911      4914
      4914      4915      4914      4916      4914      4917      4917      4918
      4917      4919      4917      4920      4921      4922      4921      4923
      4921      4924      4921      4925      4925      4926      4925      4927
      4925      4928      4928      4929      4928      4930      4928      4935
      4935      4931      4931      4934      4931      4932      4931      4933
      4936      4937      4936      4938      4936      4939      4936      4934
      4939      4940      4939      4947      4939      4941      4947      4948
      4947      4949      4947      4950      4941      4942      4942      4944
      4942      4943      4944      4945      4944      4946      4944      4956
      4956      4957      4956      4958      4956      4959      4959      4960
      4959      4961      4959      4962      4962      4963      4962      4964
      4962      4965      4965      4966      4965      4967      4965      4968
      4968      4969      4968      4970      4968      4971      4971      4972
      4971      4973      4971      4974      4974      4975      4974      4976
      4976      4977      4976      4978      4978      4979      4978      4980
      4978      4981      4981      4982      4981      4983      4981      4984
      4984      4985      4984      4986      4984      4987      4987      4988
      4987      4989      4987      4990      4990      4991      4990      4992
      4990      4993      4993      4994      4993      4995      4993      4996
      4996      4997      4996      4998      4996      4999      4999      5000
      4999      5001      4999      5002      4950      4951      4951      4953
      4951      4952      4953      4954      4953      4955      4953      5003
      5003      5004      5003      5005      5003      5006      5006      5007
      5006      5008      5006      5009      5009      5010      5009      5011
      5009      5012      5012      5013      5012      5014      5012      5015
      5015      5016      5015      5017      5015      5018      5018      5019
      5018      5020      5018      5021      5021      5022      5021      5023
      5021      5024      5024      5025      5024      5026      5024      5027
      5027      5028      5027      5029      5027      5030      5030      5031
      5030      5032      5030      5033      5033      5034      5033      5035
      5033      5036      5036      5037      5036      5038      5036      5039
      5039      5040      5039      5041      5039      5042      5042      5043
      5042      5044      5042      5045      5046      5047      5046      5048
      5046      5049      5046      5050      5050      5051      5050      5052
      5050      5053      5053      5054      5053      5055      5053      5060
      5060      5056      5056      5059      5056      5057      5056      5058
      5061      5062      5061      5063      5061      5064      5061      5059
      5064      5065      5064      5072      5064      5066      5072      5073
      5072      5074      5072      5075      5066      5067      5067      5069
      5067      5068      5069      5070      5069      5071      5069      5081
      5081      5082      5081      5083      5081      5084      5084      5085
      5084      5086      5084      5087      5087      5088      5087      5089
      5087      5090      5090      5091      5090      5092      5090      5093
      5093      5094      5093      5095      5093      5096      5096      5097
      5096      5098      5096      5099      5099      5100      5099      5101
      5101      5102      5101      5103      5103      5104      5103      5105
      5103      5106      5106      5107      5106      5108      5106      5109
      5109      5110      5109      5111      5109      5112      5112      5113
      5112      5114      5112      5115      5115      5116      5115      5117
      5115      5118      5118      5119      5118      5120      5118      5121
      5121      5122      5121      5123      5121      5124      5124      5125
      5124      5126      5124      5127      5075      5076      5076      5078
      5076      5077      5078      5079      5078      5080      5078      5128
      5128      5129      5128      5130      5128      5131      5131      5132
      5131      5133      5131      5134      5134      5135      5134      5136
      5134      5137      5137      5138      5137      5139      5137      5140
      5140      5141      5140      5142      5140      5143      5143      5144
      5143      5145      5143      5146      5146      5147      5146      5148
      5146      5149      5149      5150      5149      5151      5149      5152
      5152      5153      5152      5154      5152      5155      5155      5156
      5155      5157      5155      5158      5158      5159      5158      5160
      5158      5161      5161      5162      5161      5163      5161      5164
      5164      5165      5164      5166      5164      5167      5167      5168
      5167      5169      5167      5170      5171      5175      5171      5179
      5171      5183      5175      5176      5175      5177      5175      5178
      5179      5180      5179      5181      5179      5182      5183      5184
      5183      5185      5183      5186      5171      5172      5172      5173
      5172      5174      5172      5187      5187      5188      5187      5189
      5187      5193      5194      5195      5193      5190      5190      5194
      5190      5191      5190      5192      5195      5196      5195      5197
      5195      5198      5198      5199      5198      5206      5198      5200
      5206      5207      5206      5208      5206      5209      5200      5201
      5201      5203      5201      5202      5203      5204      5203      5205
      5203      5215      5215      5216      5215      5217      5215      5218
      5218      5219      5218      5220      5218      5221      5221      5222
      5221      5223      5221      5224      5224      5225      5224      5226
      5224      5227      5227      5228      5227      5229      5227      5230
      5230      5231      5230      5232      5230      5233      5233      5234
      5233      5235      5235      5236      5235      5237      5237      5238
      5237      5239      5237      5240      5240      5241      5240      5242
      5240      5243      5243      5244      5243      5245      5243      5246
      5246      5247      5246      5248      5246      5249      5249      5250
      5249      5251      5249      5252      5252      5253      5252      5254
      5252      5255      5255      5256      5255      5257      5255      5258
      5258      5259      5258      5260      5258      5261      5209      5210
      5210      5212      5210      5211      5212      5213      5212      5214
      5212      5262      5262      5263      5262      5264      5262      5265
      5265      5266      5265      5267      5265      5268      5268      5269
      5268      5270      5268      5271      5271      5272      5271      5273
      5271      5274      5274      5275      5274      5276      5274      5277
      5277      5278      5277      5279      5277      5280      5280      5281
      5280      5282      5280      5283      5283      5284      5283      5285
      5283      5286      5286      5287      5286      5288      5286      5289
      5289      5290      5289      5291      5289      5292      5292      5293
      5292      5294      5292      5295      5295      5296      5295      5297
      5295      5298      5298      5299      5298      5300      5298      5301
      5301      5302      5301      5303      5301      5304      5305      5306
      5305      5307      5305      5308      5305      5309      5309      5310
      5309      5311      5309      5312      5312      5313      5312      5314
      5312      5319      5319      5315      5315      5318      5315      5316
      5315      5317      5320      5321      5320      5322      5320      5323
      5320      5318      5323      5324      5323      5331      5323      5325
      5331      5332      5331      5333      5331      5334      5325      5326
      5326      5328      5326      5327      5328      5329      5328      5330
      5328      5340      5340      5341      5340      5342      5340      5343
      5343      5344      5343      5345      5343      5346      5346      5347
      5346      5348      5346      5349      5349      5350      5349      5351
      5349      5352      5352      5353      5352      5354      5352      5355
      5355      5356      5355      5357      5355      5358      5358      5359
      5358      5360      5360      5361      5360      5362      5362      5363
      5362      5364      5362      5365      5365      5366      5365      5367
      5365      5368      5368      5369      5368      5370      5368      5371
      5371      5372      5371      5373      5371      5374      5374      5375
      5374      5376      5374      5377      5377      5378      5377      5379
      5377      5380      5380      5381      5380      5382      5380      5383
      5383      5384      5383      5385      5383      5386      5334      5335
      5335      5337      5335      5336      5337      5338      5337      5339
      5337      5387      5387      5388      5387      5389      5387      5390
      5390      5391      5390      5392      5390      5393      5393      5394
      5393      5395      5393      5396      5396      5397      5396      5398
      5396      5399      5399      5400      5399      5401      5399      5402
      5402      5403      5402      5404      5402      5405      5405      5406
      5405      5407      5405      5408      5408      5409      5408      5410
      5408      5411      5411      5412      5411      5413      5411      5414
      5414      5415      5414      5416      5414      5417      5417      5418
      5417      5419      5417      5420      5420      5421      5420      5422
      5420      5423      5423      5424      5423      5425      5423      5426
      5426      5427      5426      5428      5426      5429      5430      5431
      5430      5432      5430      5433      5430      5434      5434      5435
      5434      5436      5434      5437      5437      5438      5437      5439
      5437      5444      5444      5440      5440      5443      5440      5441
      5440      5442      5445      5446      5445      5447      5445      5448
      5445      5443      5448      5449      5448      5456      5448      5450
      5456      5457      5456      5458      5456      5459      5450      5451
      5451      5453      5451      5452      5453      5454      5453      5455
      5453      5465      5465      5466      5465      5467      5465      5468
      5468      5469      5468      5470      5468      5471      5471      5472
      5471      5473      5471      5474      5474      5475      5474      5476
      5474      5477      5477      5478      5477      5479      5477      5480
      5480      5481      5480      5482      5480      5483      5483      5484
      5483      5485      5485      5486      5485      5487      5487      5488
      5487      5489      5487      5490      5490      5491      5490      5492
      5490      5493      5493      5494      5493      5495      5493      5496
      5496      5497      5496      5498      5496      5499      5499      5500
      5499      5501      5499      5502      5502      5503      5502      5504
      5502      5505      5505      5506      5505      5507      5505      5508
      5508      5509      5508      5510      5508      5511      5459      5460
      5460      5462      5460      5461      5462      5463      5462      5464
      5462      5512      5512      5513      5512      5514      5512      5515
      5515      5516      5515      5517      5515      5518      5518      5519
      5518      5520      5518      5521      5521      5522      5521      5523
      5521      5524      5524      5525      5524      5526      5524      5527
      5527      5528      5527      5529      5527      5530      5530      5531
      5530      5532      5530      5533      5533      5534      5533      5535
      5533      5536      5536      5537      5536      5538      5536      5539
      5539      5540      5539      5541      5539      5542      5542      5543
      5542      5544      5542      5545      5545      5546      5545      5547
      5545      5548      5548      5549      5548      5550      5548      5551
      5551      5552      5551      5553      5551      5554      5555      5559
      5555      5563      5555      5567      5559      5560      5559      5561
      5559      5562      5563      5564      5563      5565      5563      5566
      5567      5568      5567      5569      5567      5570      5555      5556
      5556      5557      5556      5558      5556      5571      5571      5572
      5571      5573      5571      5577      5578      5579      5577      5574
      5574      5578      5574      5575      5574      5576      5579      5580
      5579      5581      5579      5582      5582      5583      5582      5590
      5582      5584      5590      5591      5590      5592      5590      5593
      5584      5585      5585      5587      5585      5586      5587      5588
      5587      5589      5587      5599      5599      5600      5599      5601
      5599      5602      5602      5603      5602      5604      5602      5605
      5605      5606      5605      5607      5605      5608      5608      5609
      5608      5610      5608      5611      5611      5612      5611      5613
      5611      5614      5614      5615      5614      5616      5614      5617
      5617      5618      5617      5619      5619      5620      5619      5621
      5621      5622      5621      5623      5621      5624      5624      5625
      5624      5626      5624      5627      5627      5628      5627      5629
      5627      5630      5630      5631      5630      5632      5630      5633
      5633      5634      5633      5635      5633      5636      5636      5637
      5636      5638      5636      5639      5639      5640      5639      5641
      5639      5642      5642      5643      5642      5644      5642      5645
      5593      5594      5594      5596      5594      5595      5596      5597
      5596      5598      5596      5646      5646      5647      5646      5648
      5646      5649      5649      5650      5649      5651      5649      5652
      5652      5653      5652      5654      5652      5655      5655      5656
      5655      5657      5655      5658      5658      5659      5658      5660
      5658      5661      5661      5662      5661      5663      5661      5664
      5664      5665      5664      5666      5664      5667      5667      5668
      5667      5669      5667      5670      5670      5671      5670      5672
      5670      5673      5673      5674      5673      5675      5673      5676
      5676      5677      5676      5678      5676      5679      5679      5680
      5679      5681      5679      5682      5682      5683      5682      5684
      5682      5685      5685      5686      5685      5687      5685      5688
      5689      5693      5689      5697      5689      5701      5693      5694
      5693      5695      5693      5696      5697      5698      5697      5699
      5697      5700      5701      5702      5701      5703      5701      5704
      5689      5690      5690      5691      5690      5692      5690      5705
      5705      5706      5705      5707      5705      5711      5712      5713
      5711      5708      5708      5712      5708      5709      5708      5710
      5713      5714      5713      5715      5713      5716      5716      5717
      5716      5724      5716      5718      5724      5725      5724      5726
      5724      5727      5718      5719      5719      5721      5719      5720
      5721      5722      5721      5723      5721      5733      5733      5734
      5733      5735      5733      5736      5736      5737      5736      5738
      5736      5739      5739      5740      5739      5741      5739      5742
      5742      5743      5742      5744      5742      5745      5745      5746
      5745      5747      5745      5748      5748      5749      5748      5750
      5748      5751      5751      5752      5751      5753      5753      5754
      5753      5755      5755      5756      5755      5757      5755      5758
      5758      5759      5758      5760      5758      5761      5761      5762
      5761      5763      5761      5764      5764      5765      5764      5766
      5764      5767      5767      5768      5767      5769      5767      5770
      5770      5771      5770      5772      5770      5773      5773      5774
      5773      5775      5773      5776      5776      5777      5776      5778
      5776      5779      5727      5728      5728      5730      5728      5729
      5730      5731      5730      5732      5730      5780      5780      5781
      5780      5782      5780      5783      5783      5784      5783      5785
      5783      5786      5786      5787      5786      5788      5786      5789
      5789      5790      5789      5791      5789      5792      5792      5793
      5792      5794      5792      5795      5795      5796      5795      5797
      5795      5798      5798      5799      5798      5800      5798      5801
      5801      5802      5801      5803      5801      5804      5804      5805
      5804      5806      5804      5807      5807      5808      5807      5809
      5807      5810      5810      5811      5810      5812      5810      5813
      5813      5814      5813      5815      5813      5816      5816      5817
      5816      5818      5816      5819      5819      5820      5819      5821
      5819      5822      5823      5827      5823      5831      5823      5835
      5827      5828      5827      5829      5827      5830      5831      5832
      5831      5833      5831      5834      5835      5836      5835      5837
      5835      5838      5823      5824      5824      5825      5824      5826
      5824      5839      5839      5840      5839      5841      5839      5845
      5846      5847      5845      5842      5842      5846      5842      5843
      5842      5844      5847      5848      5847      5849      5847      5850
      5850      5851      5850      5858      5850      5852      5858      5859
      5858      5860      5858      5861      5852      5853      5853      5855
      5853      5854      5855      5856      5855      5857      5855      5867
      5867      5868      5867      5869      5867      5870      5870      5871
      5870      5872      5870      5873      5873      5874      5873      5875
      5873      5876      5876      5877      5876      5878      5876      5879
      5879      5880      5879      5881      5879      5882      5882      5883
      5882      5884      5882      5885      5885      5886      5885      5887
      5887      5888      5887      5889      5889      5890      5889      5891
      5889      5892      5892      5893      5892      5894      5892      5895
      5895      5896      5895      5897      5895      5898      5898      5899
      5898      5900      5898      5901      5901      5902      5901      5903
      5901      5904      5904      5905      5904      5906      5904      5907
      5907      5908      5907      5909      5907      5910      5910      5911
      5910      5912      5910      5913      5861      5862      5862      5864
      5862      5863      5864      5865      5864      5866      5864      5914
      5914      5915      5914      5916      5914      5917      5917      5918
      5917      5919      5917      5920      5920      5921      5920      5922
      5920      5923      5923      5924      5923      5925      5923      5926
      5926      5927      5926      5928      5926      5929      5929      5930
      5929      5931      5929      5932      5932      5933      5932      5934
      5932      5935      5935      5936      5935      5937      5935      5938
      5938      5939      5938      5940      5938      5941      5941      5942
      5941      5943      5941      5944      5944      5945      5944      5946
      5944      5947      5947      5948      5947      5949      5947      5950
      5950      5951      5950      5952      5950      5953      5953      5954
      5953      5955      5953      5956      5957      5961      5957      5965
      5957      5969      5961      5962      5961      5963      5961      5964
      5965      5966      5965      5967      5965      5968      5969      5970
      5969      5971      5969      5972      5957      5958      5958      5959
      5958      5960      5958      5973      5973      5974      5973      5975
      5973      5979      5980      5981      5979      5976      5976      5980
      5976      5977      5976      5978      5981      5982      5981      5983
      5981      5984      5984      5985      5984      5992      5984      5986
      5992      5993      5992      5994      5992      5995      5986      5987
      5987      5989      5987      5988      5989      5990      5989      5991
      5989      6001      6001      6002      6001      6003      6001      6004
      6004      6005      6004      6006      6004      6007      6007      6008
      6007      6009      6007      6010      6010      6011      6010      6012
      6010      6013      6013      6014      6013      6015      6013      6016
      6016      6017      6016      6018      6016      6019      6019      6020
      6019      6021      6021      6022      6021      6023      6023      6024
      6023      6025      6023      6026      6026      6027      6026      6028
      6026      6029      6029      6030      6029      6031      6029      6032
      6032      6033      6032      6034      6032      6035      6035      6036
      6035      6037      6035      6038      6038      6039      6038      6040
      6038      6041      6041      6042      6041      6043      6041      6044
      6044      6045      6044      6046      6044      6047      5995      5996
      5996      5998      5996      5997      5998      5999      5998      6000
      5998      6048      6048      6049      6048      6050      6048      6051
      6051      6052      6051      6053      6051      6054      6054      6055
      6054      6056      6054      6057      6057      6058      6057      6059
      6057      6060      6060      6061      6060      6062      6060      6063
      6063      6064      6063      6065      6063      6066      6066      6067
      6066      6068      6066      6069      6069      6070      6069      6071
      6069      6072      6072      6073      6072      6074      6072      6075
      6075      6076      6075      6077      6075      6078      6078      6079
      6078      6080      6078      6081      6081      6082      6081      6083
      6081      6084      6084      6085      6084      6086      6084      6087
      6087      6088      6087      6089      6087      6090      6091      6092
      6091      6093      6091      6094      6091      6095      6095      6096
      6095      6097      6095      6098      6098      6099      6098      6100
      6098      6105      6105      6101      6101      6104      6101      6102
      6101      6103      6106      6107      6106      6108      6106      6109
      6106      6104      6109      6110      6109      6117      6109      6111
      6117      6118      6117      6119      6117      6120      6111      6112
      6112      6114      6112      6113      6114      6115      6114      6116
      6114      6126      6126      6127      6126      6128      6126      6129
      6129      6130      6129      6131      6129      6132      6132      6133
      6132      6134      6132      6135      6135      6136      6135      6137
      6135      6138      6138      6139      6138      6140      6138      6141
      6141      6142      6141      6143      6141      6144      6144      6145
      6144      6146      6146      6147      6146      6148      6148      6149
      6148      6150      6148      6151      6151      6152      6151      6153
      6151      6154      6154      6155      6154      6156      6154      6157
      6157      6158      6157      6159      6157      6160      6160      6161
      6160      6162      6160      6163      6163      6164      6163      6165
      6163      6166      6166      6167      6166      6168      6166      6169
      6169      6170      6169      6171      6169      6172      6120      6121
      6121      6123      6121      6122      6123      6124      6123      6125
      6123      6173      6173      6174      6173      6175      6173      6176
      6176      6177      6176      6178      6176      6179      6179      6180
      6179      6181      6179      6182      6182      6183      6182      6184
      6182      6185      6185      6186      6185      6187      6185      6188
      6188      6189      6188      6190      6188      6191      6191      6192
      6191      6193      6191      6194      6194      6195      6194      6196
      6194      6197      6197      6198      6197      6199      6197      6200
      6200      6201      6200      6202      6200      6203      6203      6204
      6203      6205      6203      6206      6206      6207      6206      6208
      6206      6209      6209      6210      6209      6211      6209      6212
      6212      6213      6212      6214      6212      6215      6216      6217
      6216      6218      6216      6219      6216      6220      6220      6221
      6220      6222      6220      6223      6223      6224      6223      6225
      6223      6230      6230      6226      6226      6229      6226      6227
      6226      6228      6231      6232      6231      6233      6231      6234
      6231      6229      6234      6235      6234      6242      6234      6236
      6242      6243      6242      6244      6242      6245      6236      6237
      6237      6239      6237      6238      6239      6240      6239      6241
      6239      6251      6251      6252      6251      6253      6251      6254
      6254      6255      6254      6256      6254      6257      6257      6258
      6257      6259      6257      6260      6260      6261      6260      6262
      6260      6263      6263      6264      6263      6265      6263      6266
      6266      6267      6266      6268      6266      6269      6269      6270
      6269      6271      6271      6272      6271      6273      6273      6274
      6273      6275      6273      6276      6276      6277      6276      6278
      6276      6279      6279      6280      6279      6281      6279      6282
      6282      6283      6282      6284      6282      6285      6285      6286
      6285      6287      6285      6288      6288      6289      6288      6290
      6288      6291      6291      6292      6291      6293      6291      6294
      6294      6295      6294      6296      6294      6297      6245      6246
      6246      6248      6246      6247      6248      6249      6248      6250
      6248      6298      6298      6299      6298      6300      6298      6301
      6301      6302      6301      6303      6301      6304      6304      6305
      6304      6306      6304      6307      6307      6308      6307      6309
      6307      6310      6310      6311      6310      6312      6310      6313
      6313      6314      6313      6315      6313      6316      6316      6317
      6316      6318      6316      6319      6319      6320      6319      6321
      6319      6322      6322      6323      6322      6324      6322      6325
      6325      6326      6325      6327      6325      6328      6328      6329
      6328      6330      6328      6331      6331      6332      6331      6333
      6331      6334      6334      6335      6334      6336      6334      6337
      6337      6338      6337      6339      6337      6340      6341      6342
      6341      6343      6341      6344      6341      6345      6345      6346
      6345      6347      6345      6348      6348      6349      6348      6350
      6348      6355      6355      6351      6351      6354      6351      6352
      6351      6353      6356      6357      6356      6358      6356      6359
      6356      6354      6359      6360      6359      6367      6359      6361
      6367      6368      6367      6369      6367      6370      6361      6362
      6362      6364      6362      6363      6364      6365      6364      6366
      6364      6376      6376      6377      6376      6378      6376      6379
      6379      6380      6379      6381      6379      6382      6382      6383
      6382      6384      6382      6385      6385      6386      6385      6387
      6385      6388      6388      6389      6388      6390      6388      6391
      6391      6392      6391      6393      6391      6394      6394      6395
      6394      6396      6396      6397      6396      6398      6398      6399
      6398      6400      6398      6401      6401      6402      6401      6403
      6401      6404      6404      6405      6404      6406      6404      6407
      6407      6408      6407      6409      6407      6410      6410      6411
      6410      6412      6410      6413      6413      6414      6413      6415
      6413      6416      6416      6417      6416      6418      6416      6419
      6419      6420      6419      6421      6419      6422      6370      6371
      6371      6373      6371      6372      6373      6374      6373      6375
      6373      6423      6423      6424      6423      6425      6423      6426
      6426      6427      6426      6428      6426      6429      6429      6430
      6429      6431      6429      6432      6432      6433      6432      6434
      6432      6435      6435      6436      6435      6437      6435      6438
      6438      6439      6438      6440      6438      6441      6441      6442
      6441      6443      6441      6444      6444      6445      6444      6446
      6444      6447      6447      6448      6447      6449      6447      6450
      6450      6451      6450      6452      6450      6453      6453      6454
      6453      6455      6453      6456      6456      6457      6456      6458
      6456      6459      6459      6460      6459      6461      6459      6462
      6462      6463      6462      6464      6462      6465      6466      6470
      6466      6474      6466      6478      6470      6471      6470      6472
      6470      6473      6474      6475      6474      6476      6474      6477
      6478      6479      6478      6480      6478      6481      6466      6467
      6467      6468      6467      6469      6467      6482      6482      6483
      6482      6484      6482      6488      6489      6490      6488      6485
      6485      6489      6485      6486      6485      6487      6490      6491
      6490      6492      6490      6493      6493      6494      6493      6501
      6493      6495      6501      6502      6501      6503      6501      6504
      6495      6496      6496      6498      6496      6497      6498      6499
      6498      6500      6498      6510      6510      6511      6510      6512
      6510      6513      6513      6514      6513      6515      6513      6516
      6516      6517      6516      6518      6516      6519      6519      6520
      6519      6521      6519      6522      6522      6523      6522      6524
      6522      6525      6525      6526      6525      6527      6525      6528
      6528      6529      6528      6530      6530      6531      6530      6532
      6532      6533      6532      6534      6532      6535      6535      6536
      6535      6537      6535      6538      6538      6539      6538      6540
      6538      6541      6541      6542      6541      6543      6541      6544
      6544      6545      6544      6546      6544      6547      6547      6548
      6547      6549      6547      6550      6550      6551      6550      6552
      6550      6553      6553      6554      6553      6555      6553      6556
      6504      6505      6505      6507      6505      6506      6507      6508
      6507      6509      6507      6557      6557      6558      6557      6559
      6557      6560      6560      6561      6560      6562      6560      6563
      6563      6564      6563      6565      6563      6566      6566      6567
      6566      6568      6566      6569      6569      6570      6569      6571
      6569      6572      6572      6573      6572      6574      6572      6575
      6575      6576      6575      6577      6575      6578      6578      6579
      6578      6580      6578      6581      6581      6582      6581      6583
      6581      6584      6584      6585      6584      6586      6584      6587
      6587      6588      6587      6589      6587      6590      6590      6591
      6590      6592      6590      6593      6593      6594      6593      6595
      6593      6596      6596      6597      6596      6598      6596      6599
      6600      6604      6600      6608      6600      6612      6604      6605
      6604      6606      6604      6607      6608      6609      6608      6610
      6608      6611      6612      6613      6612      6614      6612      6615
      6600      6601      6601      6602      6601      6603      6601      6616
      6616      6617      6616      6618      6616      6622      6623      6624
      6622      6619      6619      6623      6619      6620      6619      6621
      6624      6625      6624      6626      6624      6627      6627      6628
      6627      6635      6627      6629      6635      6636      6635      6637
      6635      6638      6629      6630      6630      6632      6630      6631
      6632      6633      6632      6634      6632      6644      6644      6645
      6644      6646      6644      6647      6647      6648      6647      6649
      6647      6650      6650      6651      6650      6652      6650      6653
      6653      6654      6653      6655      6653      6656      6656      6657
      6656      6658      6656      6659      6659      6660      6659      6661
      6659      6662      6662      6663      6662      6664      6664      6665
      6664      6666      6666      6667      6666      6668      6666      6669
      6669      6670      6669      6671      6669      6672      6672      6673
      6672      6674      6672      6675      6675      6676      6675      6677
      6675      6678      6678      6679      6678      6680      6678      6681
      6681      6682      6681      6683      6681      6684      6684      6685
      6684      6686      6684      6687      6687      6688      6687      6689
      6687      6690      6638      6639      6639      6641      6639      6640
      6641      6642      6641      6643      6641      6691      6691      6692
      6691      6693      6691      6694      6694      6695      6694      6696
      6694      6697      6697      6698      6697      6699      6697      6700
      6700      6701      6700      6702      6700      6703      6703      6704
      6703      6705      6703      6706      6706      6707      6706      6708
      6706      6709      6709      6710      6709      6711      6709      6712
      6712      6713      6712      6714      6712      6715      6715      6716
      6715      6717      6715      6718      6718      6719      6718      6720
      6718      6721      6721      6722      6721      6723      6721      6724
      6724      6725      6724      6726      6724      6727      6727      6728
      6727      6729      6727      6730      6730      6731      6730      6732
      6730      6733      6734      6735      6734      6736      6734      6737
      6734      6738      6738      6739      6738      6740      6738      6741
      6741      6742      6741      6743      6741      6748      6748      6744
      6744      6747      6744      6745      6744      6746      6749      6750
      6749      6751      6749      6752      6749      6747      6752      6753
      6752      6760      6752      6754      6760      6761      6760      6762
      6760      6763      6754      6755      6755      6757      6755      6756
      6757      6758      6757      6759      6757      6769      6769      6770
      6769      6771      6769      6772      6772      6773      6772      6774
      6772      6775      6775      6776      6775      6777      6775      6778
      6778      6779      6778      6780      6778      6781      6781      6782
      6781      6783      6781      6784      6784      6785      6784      6786
      6784      6787      6787      6788      6787      6789      6789      6790
      6789      6791      6791      6792      6791      6793      6791      6794
      6794      6795      6794      6796      6794      6797      6797      6798
      6797      6799      6797      6800      6800      6801      6800      6802
      6800      6803      6803      6804      6803      6805      6803      6806
      6806      6807      6806      6808      6806      6809      6809      6810
      6809      6811      6809      6812      6812      6813      6812      6814
      6812      6815      6763      6764      6764      6766      6764      6765
      6766      6767      6766      6768      6766      6816      6816      6817
      6816      6818      6816      6819      6819      6820      6819      6821
      6819      6822      6822      6823      6822      6824      6822      6825
      6825      6826      6825      6827      6825      6828      6828      6829
      6828      6830      6828      6831      6831      6832      6831      6833
      6831      6834      6834      6835      6834      6836      6834      6837
      6837      6838      6837      6839      6837      6840      6840      6841
      6840      6842      6840      6843      6843      6844      6843      6845
      6843      6846      6846      6847      6846      6848      6846      6849
      6849      6850      6849      6851      6849      6852      6852      6853
      6852      6854      6852      6855      6855      6856      6855      6857
      6855      6858      6859      6860      6859      6861      6859      6862
      6859      6863      6863      6864      6863      6865      6863      6866
      6866      6867      6866      6868      6866      6873      6873      6869
      6869      6872      6869      6870      6869      6871      6874      6875
      6874      6876      6874      6877      6874      6872      6877      6878
      6877      6885      6877      6879      6885      6886      6885      6887
      6885      6888      6879      6880      6880      6882      6880      6881
      6882      6883      6882      6884      6882      6894      6894      6895
      6894      6896      6894      6897      6897      6898      6897      6899
      6897      6900      6900      6901      6900      6902      6900      6903
      6903      6904      6903      6905      6903      6906      6906      6907
      6906      6908      6906      6909      6909      6910      6909      6911
      6909      6912      6912      6913      6912      6914      6914      6915
      6914      6916      6916      6917      6916      6918      6916      6919
      6919      6920      6919      6921      6919      6922      6922      6923
      6922      6924      6922      6925      6925      6926      6925      6927
      6925      6928      6928      6929      6928      6930      6928      6931
      6931      6932      6931      6933      6931      6934      6934      6935
      6934      6936      6934      6937      6937      6938      6937      6939
      6937      6940      6888      6889      6889      6891      6889      6890
      6891      6892      6891      6893      6891      6941      6941      6942
      6941      6943      6941      6944      6944      6945      6944      6946
      6944      6947      6947      6948      6947      6949      6947      6950
      6950      6951      6950      6952      6950      6953      6953      6954
      6953      6955      6953      6956      6956      6957      6956      6958
      6956      6959      6959      6960      6959      6961      6959      6962
      6962      6963      6962      6964      6962      6965      6965      6966
      6965      6967      6965      6968      6968      6969      6968      6970
      6968      6971      6971      6972      6971      6973      6971      6974
      6974      6975      6974      6976      6974      6977      6977      6978
      6977      6979      6977      6980      6980      6981      6980      6982
      6980      6983      6984      6988      6984      6992      6984      6996
      6988      6989      6988      6990      6988      6991      6992      6993
      6992      6994      6992      6995      6996      6997      6996      6998
      6996      6999      6984      6985      6985      6986      6985      6987
      6985      7000      7000      7001      7000      7002      7000      7006
      7007      7008      7006      7003      7003      7007      7003      7004
      7003      7005      7008      7009      7008      7010      7008      7011
      7011      7012      7011      7019      7011      7013      7019      7020
      7019      7021      7019      7022      7013      7014      7014      7016
      7014      7015      7016      7017      7016      7018      7016      7028
      7028      7029      7028      7030      7028      7031      7031      7032
      7031      7033      7031      7034      7034      7035      7034      7036
      7034      7037      7037      7038      7037      7039      7037      7040
      7040      7041      7040      7042      7040      7043      7043      7044
      7043      7045      7043      7046      7046      7047      7046      7048
      7048      7049      7048      7050      7050      7051      7050      7052
      7050      7053      7053      7054      7053      7055      7053      7056
      7056      7057      7056      7058      7056      7059      7059      7060
      7059      7061      7059      7062      7062      7063      7062      7064
      7062      7065      7065      7066      7065      7067      7065      7068
      7068      7069      7068      7070      7068      7071      7071      7072
      7071      7073      7071      7074      7022      7023      7023      7025
      7023      7024      7025      7026      7025      7027      7025      7075
      7075      7076      7075      7077      7075      7078      7078      7079
      7078      7080      7078      7081      7081      7082      7081      7083
      7081      7084      7084      7085      7084      7086      7084      7087
      7087      7088      7087      7089      7087      7090      7090      7091
      7090      7092      7090      7093      7093      7094      7093      7095
      7093      7096      7096      7097      7096      7098      7096      7099
      7099      7100      7099      7101      7099      7102      7102      7103
      7102      7104      7102      7105      7105      7106      7105      7107
      7105      7108      7108      7109      7108      7110      7108      7111
      7111      7112      7111      7113      7111      7114      7114      7115
      7114      7116      7114      7117      7118      7119      7118      7120
      7118      7121      7118      7122      7122      7123      7122      7124
      7122      7125      7125      7126      7125      7127      7125      7132
      7132      7128      7128      7131      7128      7129      7128      7130
      7133      7134      7133      7135      7133      7136      7133      7131
      7136      7137      7136      7144      7136      7138      7144      7145
      7144      7146      7144      7147      7138      7139      7139      7141
      7139      7140      7141      7142      7141      7143      7141      7153
      7153      7154      7153      7155      7153      7156      7156      7157
      7156      7158      7156      7159      7159      7160      7159      7161
      7159      7162      7162      7163      7162      7164      7162      7165
      7165      7166      7165      7167      7165      7168      7168      7169
      7168      7170      7168      7171      7171      7172      7171      7173
      7173      7174      7173      7175      7175      7176      7175      7177
      7175      7178      7178      7179      7178      7180      7178      7181
      7181      7182      7181      7183      7181      7184      7184      7185
      7184      7186      7184      7187      7187      7188      7187      7189
      7187      7190      7190      7191      7190      7192      7190      7193
      7193      7194      7193      7195      7193      7196      7196      7197
      7196      7198      7196      7199      7147      7148      7148      7150
      7148      7149      7150      7151      7150      7152      7150      7200
      7200      7201      7200      7202      7200      7203      7203      7204
      7203      7205      7203      7206      7206      7207      7206      7208
      7206      7209      7209      7210      7209      7211      7209      7212
      7212      7213      7212      7214      7212      7215      7215      7216
      7215      7217      7215      7218      7218      7219      7218      7220
      7218      7221      7221      7222      7221      7223      7221      7224
      7224      7225      7224      7226      7224      7227      7227      7228
      7227      7229      7227      7230      7230      7231      7230      7232
      7230      7233      7233      7234      7233      7235      7233      7236
      7236      7237      7236      7238      7236      7239      7239      7240
      7239      7241      7239      7242      7243      7247      7243      7251
      7243      7255      7247      7248      7247      7249      7247      7250
      7251      7252      7251      7253      7251      7254      7255      7256
      7255      7257      7255      7258      7243      7244      7244      7245
      7244      7246      7244      7259      7259      7260      7259      7261
      7259      7265      7266      7267      7265      7262      7262      7266
      7262      7263      7262      7264      7267      7268      7267      7269
      7267      7270      7270      7271      7270      7278      7270      7272
      7278      7279      7278      7280      7278      7281      7272      7273
      7273      7275      7273      7274      7275      7276      7275      7277
      7275      7287      7287      7288      7287      7289      7287      7290
      7290      7291      7290      7292      7290      7293      7293      7294
      7293      7295      7293      7296      7296      7297      7296      7298
      7296      7299      7299      7300      7299      7301      7299      7302
      7302      7303      7302      7304      7302      7305      7305      7306
      7305      7307      7307      7308      7307      7309      7309      7310
      7309      7311      7309      7312      7312      7313      7312      7314
      7312      7315      7315      7316      7315      7317      7315      7318
      7318      7319      7318      7320      7318      7321      7321      7322
      7321      7323      7321      7324      7324      7325      7324      7326
      7324      7327      7327      7328      7327      7329      7327      7330
      7330      7331      7330      7332      7330      7333      7281      7282
      7282      7284      7282      7283      7284      7285      7284      7286
      7284      7334      7334      7335      7334      7336      7334      7337
      7337      7338      7337      7339      7337      7340      7340      7341
      7340      7342      7340      7343      7343      7344      7343      7345
      7343      7346      7346      7347      7346      7348      7346      7349
      7349      7350      7349      7351      7349      7352      7352      7353
      7352      7354      7352      7355      7355      7356      7355      7357
      7355      7358      7358      7359      7358      7360      7358      7361
      7361      7362      7361      7363      7361      7364      7364      7365
      7364      7366      7364      7367      7367      7368      7367      7369
      7367      7370      7370      7371      7370      7372      7370      7373
      7373      7374      7373      7375      7373      7376      7377      7381
      7377      7385      7377      7389      7381      7382      7381      7383
      7381      7384      7385      7386      7385      7387      7385      7388
      7389      7390      7389      7391      7389      7392      7377      7378
      7378      7379      7378      7380      7378      7393      7393      7394
      7393      7395      7393      7399      7400      7401      7399      7396
      7396      7400      7396      7397      7396      7398      7401      7402
      7401      7403      7401      7404      7404      7405      7404      7412
      7404      7406      7412      7413      7412      7414      7412      7415
      7406      7407      7407      7409      7407      7408      7409      7410
      7409      7411      7409      7421      7421      7422      7421      7423
      7421      7424      7424      7425      7424      7426      7424      7427
      7427      7428      7427      7429      7427      7430      7430      7431
      7430      7432      7430      7433      7433      7434      7433      7435
      7433      7436      7436      7437      7436      7438      7436      7439
      7439      7440      7439      7441      7441      7442      7441      7443
      7443      7444      7443      7445      7443      7446      7446      7447
      7446      7448      7446      7449      7449      7450      7449      7451
      7449      7452      7452      7453      7452      7454      7452      7455
      7455      7456      7455      7457      7455      7458      7458      7459
      7458      7460      7458      7461      7461      7462      7461      7463
      7461      7464      7464      7465      7464      7466      7464      7467
      7415      7416      7416      7418      7416      7417      7418      7419
      7418      7420      7418      7468      7468      7469      7468      7470
      7468      7471      7471      7472      7471      7473      7471      7474
      7474      7475      7474      7476      7474      7477      7477      7478
      7477      7479      7477      7480      7480      7481      7480      7482
      7480      7483      7483      7484      7483      7485      7483      7486
      7486      7487      7486      7488      7486      7489      7489      7490
      7489      7491      7489      7492      7492      7493      7492      7494
      7492      7495      7495      7496      7495      7497      7495      7498
      7498      7499      7498      7500      7498      7501      7501      7502
      7501      7503      7501      7504      7504      7505      7504      7506
      7504      7507      7507      7508      7507      7509      7507      7510
      7511      7515      7511      7519      7511      7523      7515      7516
      7515      7517      7515      7518      7519      7520      7519      7521
      7519      7522      7523      7524      7523      7525      7523      7526
      7511      7512      7512      7513      7512      7514      7512      7527
      7527      7528      7527      7529      7527      7533      7534      7535
      7533      7530      7530      7534      7530      7531      7530      7532
      7535      7536      7535      7537      7535      7538      7538      7539
      7538      7546      7538      7540      7546      7547      7546      7548
      7546      7549      7540      7541      7541      7543      7541      7542
      7543      7544      7543      7545      7543      7555      7555      7556
      7555      7557      7555      7558      7558      7559      7558      7560
      7558      7561      7561      7562      7561      7563      7561      7564
      7564      7565      7564      7566      7564      7567      7567      7568
      7567      7569      7567      7570      7570      7571      7570      7572
      7570      7573      7573      7574      7573      7575      7575      7576
      7575      7577      7577      7578      7577      7579      7577      7580
      7580      7581      7580      7582      7580      7583      7583      7584
      7583      7585      7583      7586      7586      7587      7586      7588
      7586      7589      7589      7590      7589      7591      7589      7592
      7592      7593      7592      7594      7592      7595      7595      7596
      7595      7597      7595      7598      7598      7599      7598      7600
      7598      7601      7549      7550      7550      7552      7550      7551
      7552      7553      7552      7554      7552      7602      7602      7603
      7602      7604      7602      7605      7605      7606      7605      7607
      7605      7608      7608      7609      7608      7610      7608      7611
      7611      7612      7611      7613      7611      7614      7614      7615
      7614      7616      7614      7617      7617      7618      7617      7619
      7617      7620      7620      7621      7620      7622      7620      7623
      7623      7624      7623      7625      7623      7626      7626      7627
      7626      7628      7626      7629      7629      7630      7629      7631
      7629      7632      7632      7633      7632      7634      7632      7635
      7635      7636      7635      7637      7635      7638      7638      7639
      7638      7640      7638      7641      7641      7642      7641      7643
      7641      7644      7645      7649      7645      7653      7645      7657
      7649      7650      7649      7651      7649      7652      7653      7654
      7653      7655      7653      7656      7657      7658      7657      7659
      7657      7660      7645      7646      7646      7647      7646      7648
      7646      7661      7661      7662      7661      7663      7661      7667
      7668      7669      7667      7664      7664      7668      7664      7665
      7664      7666      7669      7670      7669      7671      7669      7672
      7672      7673      7672      7680      7672      7674      7680      7681
      7680      7682      7680      7683      7674      7675      7675      7677
      7675      7676      7677      7678      7677      7679      7677      7689
      7689      7690      7689      7691      7689      7692      7692      7693
      7692      7694      7692      7695      7695      7696      7695      7697
      7695      7698      7698      7699      7698      7700      7698      7701
      7701      7702      7701      7703      7701      7704      7704      7705
      7704      7706      7704      7707      7707      7708      7707      7709
      7709      7710      7709      7711      7711      7712      7711      7713
      7711      7714      7714      7715      7714      7716      7714      7717
      7717      7718      7717      7719      7717      7720      7720      7721
      7720      7722      7720      7723      7723      7724      7723      7725
      7723      7726      7726      7727      7726      7728      7726      7729
      7729      7730      7729      7731      7729      7732      7732      7733
      7732      7734      7732      7735      7683      7684      7684      7686
      7684      7685      7686      7687      7686      7688      7686      7736
      7736      7737      7736      7738      7736      7739      7739      7740
      7739      7741      7739      7742      7742      7743      7742      7744
      7742      7745      7745      7746      7745      7747      7745      7748
      7748      7749      7748      7750      7748      7751      7751      7752
      7751      7753      7751      7754      7754      7755      7754      7756
      7754      7757      7757      7758      7757      7759      7757      7760
      7760      7761      7760      7762      7760      7763      7763      7764
      7763      7765      7763      7766      7766      7767      7766      7768
      7766      7769      7769      7770      7769      7771      7769      7772
      7772      7773      7772      7774      7772      7775      7775      7776
      7775      7777      7775      7778      7779      7783      7779      7787
      7779      7791      7783      7784      7783      7785      7783      7786
      7787      7788      7787      7789      7787      7790      7791      7792
      7791      7793      7791      7794      7779      7780      7780      7781
      7780      7782      7780      7795      7795      7796      7795      7797
      7795      7801      7802      7803      7801      7798      7798      7802
      7798      7799      7798      7800      7803      7804      7803      7805
      7803      7806      7806      7807      7806      7814      7806      7808
      7814      7815      7814      7816      7814      7817      7808      7809
      7809      7811      7809      7810      7811      7812      7811      7813
      7811      7823      7823      7824      7823      7825      7823      7826
      7826      7827      7826      7828      7826      7829      7829      7830
      7829      7831      7829      7832      7832      7833      7832      7834
      7832      7835      7835      7836      7835      7837      7835      7838
      7838      7839      7838      7840      7838      7841      7841      7842
      7841      7843      7843      7844      7843      7845      7845      7846
      7845      7847      7845      7848      7848      7849      7848      7850
      7848      7851      7851      7852      7851      7853      7851      7854
      7854      7855      7854      7856      7854      7857      7857      7858
      7857      7859      7857      7860      7860      7861      7860      7862
      7860      7863      7863      7864      7863      7865      7863      7866
      7866      7867      7866      7868      7866      7869      7817      7818
      7818      7820      7818      7819      7820      7821      7820      7822
      7820      7870      7870      7871      7870      7872      7870      7873
      7873      7874      7873      7875      7873      7876      7876      7877
      7876      7878      7876      7879      7879      7880      7879      7881
      7879      7882      7882      7883      7882      7884      7882      7885
      7885      7886      7885      7887      7885      7888      7888      7889
      7888      7890      7888      7891      7891      7892      7891      7893
      7891      7894      7894      7895      7894      7896      7894      7897
      7897      7898      7897      7899      7897      7900      7900      7901
      7900      7902      7900      7903      7903      7904      7903      7905
      7903      7906      7906      7907      7906      7908      7906      7909
      7909      7910      7909      7911      7909      7912      7913      7917
      7913      7921      7913      7925      7917      7918      7917      7919
      7917      7920      7921      7922      7921      7923      7921      7924
      7925      7926      7925      7927      7925      7928      7913      7914
      7914      7915      7914      7916      7914      7929      7929      7930
      7929      7931      7929      7935      7936      7937      7935      7932
      7932      7936      7932      7933      7932      7934      7937      7938
      7937      7939      7937      7940      7940      7941      7940      7948
      7940      7942      7948      7949      7948      7950      7948      7951
      7942      7943      7943      7945      7943      7944      7945      7946
      7945      7947      7945      7957      7957      7958      7957      7959
      7957      7960      7960      7961      7960      7962      7960      7963
      7963      7964      7963      7965      7963      7966      7966      7967
      7966      7968      7966      7969      7969      7970      7969      7971
      7969      7972      7972      7973      7972      7974      7972      7975
      7975      7976      7975      7977      7977      7978      7977      7979
      7979      7980      7979      7981      7979      7982      7982      7983
      7982      7984      7982      7985      7985      7986      7985      7987
      7985      7988      7988      7989      7988      7990      7988      7991
      7991      7992      7991      7993      7991      7994      7994      7995
      7994      7996      7994      7997      7997      7998      7997      7999
      7997      8000      8000      8001      8000      8002      8000      8003
      7951      7952      7952      7954      7952      7953      7954      7955
      7954      7956      7954      8004      8004      8005      8004      8006
      8004      8007      8007      8008      8007      8009      8007      8010
      8010      8011      8010      8012      8010      8013      8013      8014
      8013      8015      8013      8016      8016      8017      8016      8018
      8016      8019      8019      8020      8019      8021      8019      8022
      8022      8023      8022      8024      8022      8025      8025      8026
      8025      8027      8025      8028      8028      8029      8028      8030
      8028      8031      8031      8032      8031      8033      8031      8034
      8034      8035      8034      8036      8034      8037      8037      8038
      8037      8039      8037      8040      8040      8041      8040      8042
      8040      8043      8043      8044      8043      8045      8043      8046
      8047      8048      8047      8049      8047      8050      8047      8051
      8051      8052      8051      8053      8051      8054      8054      8055
      8054      8056      8054      8061      8061      8057      8057      8060
      8057      8058      8057      8059      8062      8063      8062      8064
      8062      8065      8062      8060      8065      8066      8065      8073
      8065      8067      8073      8074      8073      8075      8073      8076
      8067      8068      8068      8070      8068      8069      8070      8071
      8070      8072      8070      8082      8082      8083      8082      8084
      8082      8085      8085      8086      8085      8087      8085      8088
      8088      8089      8088      8090      8088      8091      8091      8092
      8091      8093      8091      8094      8094      8095      8094      8096
      8094      8097      8097      8098      8097      8099      8097      8100
      8100      8101      8100      8102      8102      8103      8102      8104
      8104      8105      8104      8106      8104      8107      8107      8108
      8107      8109      8107      8110      8110      8111      8110      8112
      8110      8113      8113      8114      8113      8115      8113      8116
      8116      8117      8116      8118      8116      8119      8119      8120
      8119      8121      8119      8122      8122      8123      8122      8124
      8122      8125      8125      8126      8125      8127      8125      8128
      8076      8077      8077      8079      8077      8078      8079      8080
      8079      8081      8079      8129      8129      8130      8129      8131
      8129      8132      8132      8133      8132      8134      8132      8135
      8135      8136      8135      8137      8135      8138      8138      8139
      8138      8140      8138      8141      8141      8142      8141      8143
      8141      8144      8144      8145      8144      8146      8144      8147
      8147      8148      8147      8149      8147      8150      8150      8151
      8150      8152      8150      8153      8153      8154      8153      8155
      8153      8156      8156      8157      8156      8158      8156      8159
      8159      8160      8159      8161      8159      8162      8162      8163
      8162      8164      8162      8165      8165      8166      8165      8167
      8165      8168      8168      8169      8168      8170      8168      8171
      8172      8173      8172      8174      8172      8175      8172      8176
      8176      8177      8176      8178      8176      8179      8179      8180
      8179      8181      8179      8186      8186      8182      8182      8185
      8182      8183      8182      8184      8187      8188      8187      8189
      8187      8190      8187      8185      8190      8191      8190      8198
      8190      8192      8198      8199      8198      8200      8198      8201
      8192      8193      8193      8195      8193      8194      8195      8196
      8195      8197      8195      8207      8207      8208      8207      8209
      8207      8210      8210      8211      8210      8212      8210      8213
      8213      8214      8213      8215      8213      8216      8216      8217
      8216      8218      8216      8219      8219      8220      8219      8221
      8219      8222      8222      8223      8222      8224      8222      8225
      8225      8226      8225      8227      8227      8228      8227      8229
      8229      8230      8229      8231      8229      8232      8232      8233
      8232      8234      8232      8235      8235      8236      8235      8237
      8235      8238      8238      8239      8238      8240      8238      8241
      8241      8242      8241      8243      8241      8244      8244      8245
      8244      8246      8244      8247      8247      8248      8247      8249
      8247      8250      8250      8251      8250      8252      8250      8253
      8201      8202      8202      8204      8202      8203      8204      8205
      8204      8206      8204      8254      8254      8255      8254      8256
      8254      8257      8257      8258      8257      8259      8257      8260
      8260      8261      8260      8262      8260      8263      8263      8264
      8263      8265      8263      8266      8266      8267      8266      8268
      8266      8269      8269      8270      8269      8271      8269      8272
      8272      8273      8272      8274      8272      8275      8275      8276
      8275      8277      8275      8278      8278      8279      8278      8280
      8278      8281      8281      8282      8281      8283      8281      8284
      8284      8285      8284      8286      8284      8287      8287      8288
      8287      8289      8287      8290      8290      8291      8290      8292
      8290      8293      8293      8294      8293      8295      8293      8296
      8297      8301      8297      8305      8297      8309      8301      8302
      8301      8303      8301      8304      8305      8306      8305      8307
      8305      8308      8309      8310      8309      8311      8309      8312
      8297      8298      8298      8299      8298      8300      8298      8313
      8313      8314      8313      8315      8313      8319      8320      8321
      8319      8316      8316      8320      8316      8317      8316      8318
      8321      8322      8321      8323      8321      8324      8324      8325
      8324      8332      8324      8326      8332      8333      8332      8334
      8332      8335      8326      8327      8327      8329      8327      8328
      8329      8330      8329      8331      8329      8341      8341      8342
      8341      8343      8341      8344      8344      8345      8344      8346
      8344      8347      8347      8348      8347      8349      8347      8350
      8350      8351      8350      8352      8350      8353      8353      8354
      8353      8355      8353      8356      8356      8357      8356      8358
      8356      8359      8359      8360      8359      8361      8361      8362
      8361      8363      8363      8364      8363      8365      8363      8366
      8366      8367      8366      8368      8366      8369      8369      8370
      8369      8371      8369      8372      8372      8373      8372      8374
      8372      8375      8375      8376      8375      8377      8375      8378
      8378      8379      8378      8380      8378      8381      8381      8382
      8381      8383      8381      8384      8384      8385      8384      8386
      8384      8387      8335      8336      8336      8338      8336      8337
      8338      8339      8338      8340      8338      8388      8388      8389
      8388      8390      8388      8391      8391      8392      8391      8393
      8391      8394      8394      8395      8394      8396      8394      8397
      8397      8398      8397      8399      8397      8400      8400      8401
      8400      8402      8400      8403      8403      8404      8403      8405
      8403      8406      8406      8407      8406      8408      8406      8409
      8409      8410      8409      8411      8409      8412      8412      8413
      8412      8414      8412      8415      8415      8416      8415      8417
      8415      8418      8418      8419      8418      8420      8418      8421
      8421      8422      8421      8423      8421      8424      8424      8425
      8424      8426      8424      8427      8427      8428      8427      8429
      8427      8430      8431      8432      8431      8433      8431      8434
      8431      8435      8435      8436      8435      8437      8435      8438
      8438      8439      8438      8440      8438      8445      8445      8441
      8441      8444      8441      8442      8441      8443      8446      8447
      8446      8448      8446      8449      8446      8444      8449      8450
      8449      8457      8449      8451      8457      8458      8457      8459
      8457      8460      8451      8452      8452      8454      8452      8453
      8454      8455      8454      8456      8454      8466      8466      8467
      8466      8468      8466      8469      8469      8470      8469      8471
      8469      8472      8472      8473      8472      8474      8472      8475
      8475      8476      8475      8477      8475      8478      8478      8479
      8478      8480      8478      8481      8481      8482      8481      8483
      8481      8484      8484      8485      8484      8486      8486      8487
      8486      8488      8488      8489      8488      8490      8488      8491
      8491      8492      8491      8493      8491      8494      8494      8495
      8494      8496      8494      8497      8497      8498      8497      8499
      8497      8500      8500      8501      8500      8502      8500      8503
      8503      8504      8503      8505      8503      8506      8506      8507
      8506      8508      8506      8509      8509      8510      8509      8511
      8509      8512      8460      8461      8461      8463      8461      8462
      8463      8464      8463      8465      8463      8513      8513      8514
      8513      8515      8513      8516      8516      8517      8516      8518
      8516      8519      8519      8520      8519      8521      8519      8522
      8522      8523      8522      8524      8522      8525      8525      8526
      8525      8527      8525      8528      8528      8529      8528      8530
      8528      8531      8531      8532      8531      8533      8531      8534
      8534      8535      8534      8536      8534      8537      8537      8538
      8537      8539      8537      8540      8540      8541      8540      8542
      8540      8543      8543      8544      8543      8545      8543      8546
      8546      8547      8546      8548      8546      8549      8549      8550
      8549      8551      8549      8552      8552      8553      8552      8554
      8552      8555      8556      8557      8556      8558      8556      8559
      8556      8560      8560      8561      8560      8562      8560      8563
      8563      8564      8563      8565      8563      8570      8570      8566
      8566      8569      8566      8567      8566      8568      8571      8572
      8571      8573      8571      8574      8571      8569      8574      8575
      8574      8582      8574      8576      8582      8583      8582      8584
      8582      8585      8576      8577      8577      8579      8577      8578
      8579      8580      8579      8581      8579      8591      8591      8592
      8591      8593      8591      8594      8594      8595      8594      8596
      8594      8597      8597      8598      8597      8599      8597      8600
      8600      8601      8600      8602      8600      8603      8603      8604
      8603      8605      8603      8606      8606      8607      8606      8608
      8606      8609      8609      8610      8609      8611      8611      8612
      8611      8613      8613      8614      8613      8615      8613      8616
      8616      8617      8616      8618      8616      8619      8619      8620
      8619      8621      8619      8622      8622      8623      8622      8624
      8622      8625      8625      8626      8625      8627      8625      8628
      8628      8629      8628      8630      8628      8631      8631      8632
      8631      8633      8631      8634      8634      8635      8634      8636
      8634      8637      8585      8586      8586      8588      8586      8587
      8588      8589      8588      8590      8588      8638      8638      8639
      8638      8640      8638      8641      8641      8642      8641      8643
      8641      8644      8644      8645      8644      8646      8644      8647
      8647      8648      8647      8649      8647      8650      8650      8651
      8650      8652      8650      8653      8653      8654      8653      8655
      8653      8656      8656      8657      8656      8658      8656      8659
      8659      8660      8659      8661      8659      8662      8662      8663
      8662      8664      8662      8665      8665      8666      8665      8667
      8665      8668      8668      8669      8668      8670      8668      8671
      8671      8672      8671      8673      8671      8674      8674      8675
      8674      8676      8674      8677      8677      8678      8677      8679
      8677      8680      8681      8682      8681      8683      8681      8684
      8681      8685      8685      8686      8685      8687      8685      8688
      8688      8689      8688      8690      8688      8695      8695      8691
      8691      8694      8691      8692      8691      8693      8696      8697
      8696      8698      8696      8699      8696      8694      8699      8700
      8699      8707      8699      8701      8707      8708      8707      8709
      8707      8710      8701      8702      8702      8704      8702      8703
      8704      8705      8704      8706      8704      8716      8716      8717
      8716      8718      8716      8719      8719      8720      8719      8721
      8719      8722      8722      8723      8722      8724      8722      8725
      8725      8726      8725      8727      8725      8728      8728      8729
      8728      8730      8728      8731      8731      8732      8731      8733
      8731      8734      8734      8735      8734      8736      8736      8737
      8736      8738      8738      8739      8738      8740      8738      8741
      8741      8742      8741      8743      8741      8744      8744      8745
      8744      8746      8744      8747      8747      8748      8747      8749
      8747      8750      8750      8751      8750      8752      8750      8753
      8753      8754      8753      8755      8753      8756      8756      8757
      8756      8758      8756      8759      8759      8760      8759      8761
      8759      8762      8710      8711      8711      8713      8711      8712
      8713      8714      8713      8715      8713      8763      8763      8764
      8763      8765      8763      8766      8766      8767      8766      8768
      8766      8769      8769      8770      8769      8771      8769      8772
      8772      8773      8772      8774      8772      8775      8775      8776
      8775      8777      8775      8778      8778      8779      8778      8780
      8778      8781      8781      8782      8781      8783      8781      8784
      8784      8785      8784      8786      8784      8787      8787      8788
      8787      8789      8787      8790      8790      8791      8790      8792
      8790      8793      8793      8794      8793      8795      8793      8796
      8796      8797      8796      8798      8796      8799      8799      8800
      8799      8801      8799      8802      8802      8803      8802      8804
      8802      8805      8806      8810      8806      8814      8806      8818
      8810      8811      8810      8812      8810      8813      8814      8815
      8814      8816      8814      8817      8818      8819      8818      8820
      8818      8821      8806      8807      8807      8808      8807      8809
      8807      8822      8822      8823      8822      8824      8822      8828
      8829      8830      8828      8825      8825      8829      8825      8826
      8825      8827      8830      8831      8830      8832      8830      8833
      8833      8834      8833      8841      8833      8835      8841      8842
      8841      8843      8841      8844      8835      8836      8836      8838
      8836      8837      8838      8839      8838      8840      8838      8850
      8850      8851      8850      8852      8850      8853      8853      8854
      8853      8855      8853      8856      8856      8857      8856      8858
      8856      8859      8859      8860      8859      8861      8859      8862
      8862      8863      8862      8864      8862      8865      8865      8866
      8865      8867      8865      8868      8868      8869      8868      8870
      8870      8871      8870      8872      8872      8873      8872      8874
      8872      8875      8875      8876      8875      8877      8875      8878
      8878      8879      8878      8880      8878      8881      8881      8882
      8881      8883      8881      8884      8884      8885      8884      8886
      8884      8887      8887      8888      8887      8889      8887      8890
      8890      8891      8890      8892      8890      8893      8893      8894
      8893      8895      8893      8896      8844      8845      8845      8847
      8845      8846      8847      8848      8847      8849      8847      8897
      8897      8898      8897      8899      8897      8900      8900      8901
      8900      8902      8900      8903      8903      8904      8903      8905
      8903      8906      8906      8907      8906      8908      8906      8909
      8909      8910      8909      8911      8909      8912      8912      8913
      8912      8914      8912      8915      8915      8916      8915      8917
      8915      8918      8918      8919      8918      8920      8918      8921
      8921      8922      8921      8923      8921      8924      8924      8925
      8924      8926      8924      8927      8927      8928      8927      8929
      8927      8930      8930      8931      8930      8932      8930      8933
      8933      8934      8933      8935      8933      8936      8936      8937
      8936      8938      8936      8939      8940      8941      8940      8942
      8940      8943      8940      8944      8944      8945      8944      8946
      8944      8947      8947      8948      8947      8949      8947      8954
      8954      8950      8950      8953      8950      8951      8950      8952
      8955      8956      8955      8957      8955      8958      8955      8953
      8958      8959      8958      8966      8958      8960      8966      8967
      8966      8968      8966      8969      8960      8961      8961      8963
      8961      8962      8963      8964      8963      8965      8963      8975
      8975      8976      8975      8977      8975      8978      8978      8979
      8978      8980      8978      8981      8981      8982      8981      8983
      8981      8984      8984      8985      8984      8986      8984      8987
      8987      8988      8987      8989      8987      8990      8990      8991
      8990      8992      8990      8993      8993      8994      8993      8995
      8995      8996      8995      8997      8997      8998      8997      8999
      8997      9000      9000      9001      9000      9002      9000      9003
      9003      9004      9003      9005      9003      9006      9006      9007
      9006      9008      9006      9009      9009      9010      9009      9011
      9009      9012      9012      9013      9012      9014      9012      9015
      9015      9016      9015      9017      9015      9018      9018      9019
      9018      9020      9018      9021      8969      8970      8970      8972
      8970      8971      8972      8973      8972      8974      8972      9022
      9022      9023      9022      9024      9022      9025      9025      9026
      9025      9027      9025      9028      9028      9029      9028      9030
      9028      9031      9031      9032      9031      9033      9031      9034
      9034      9035      9034      9036      9034      9037      9037      9038
      9037      9039      9037      9040      9040      9041      9040      9042
      9040      9043      9043      9044      9043      9045      9043      9046
      9046      9047      9046      9048      9046      9049      9049      9050
      9049      9051      9049      9052      9052      9053      9052      9054
      9052      9055      9055      9056      9055      9057      9055      9058
      9058      9059      9058      9060      9058      9061      9061      9062
      9061      9063      9061      9064      9065      9069      9065      9073
      9065      9077      9069      9070      9069      9071      9069      9072
      9073      9074      9073      9075      9073      9076      9077      9078
      9077      9079      9077      9080      9065      9066      9066      9067
      9066      9068      9066      9081      9081      9082      9081      9083
      9081      9087      9088      9089      9087      9084      9084      9088
      9084      9085      9084      9086      9089      9090      9089      9091
      9089      9092      9092      9093      9092      9100      9092      9094
      9100      9101      9100      9102      9100      9103      9094      9095
      9095      9097      9095      9096      9097      9098      9097      9099
      9097      9109      9109      9110      9109      9111      9109      9112
      9112      9113      9112      9114      9112      9115      9115      9116
      9115      9117      9115      9118      9118      9119      9118      9120
      9118      9121      9121      9122      9121      9123      9121      9124
      9124      9125      9124      9126      9124      9127      9127      9128
      9127      9129      9129      9130      9129      9131      9131      9132
      9131      9133      9131      9134      9134      9135      9134      9136
      9134      9137      9137      9138      9137      9139      9137      9140
      9140      9141      9140      9142      9140      9143      9143      9144
      9143      9145      9143      9146      9146      9147      9146      9148
      9146      9149      9149      9150      9149      9151      9149      9152
      9152      9153      9152      9154      9152      9155      9103      9104
      9104      9106      9104      9105      9106      9107      9106      9108
      9106      9156      9156      9157      9156      9158      9156      9159
      9159      9160      9159      9161      9159      9162      9162      9163
      9162      9164      9162      9165      9165      9166      9165      9167
      9165      9168      9168      9169      9168      9170      9168      9171
      9171      9172      9171      9173      9171      9174      9174      9175
      9174      9176      9174      9177      9177      9178      9177      9179
      9177      9180      9180      9181      9180      9182      9180      9183
      9183      9184      9183      9185      9183      9186      9186      9187
      9186      9188      9186      9189      9189      9190      9189      9191
      9189      9192      9192      9193      9192      9194      9192      9195
      9195      9196      9195      9197      9195      9198      9199      9200
      9199      9201      9199      9202      9199      9203      9203      9204
      9203      9205      9203      9206      9206      9207      9206      9208
      9206      9213      9213      9209      9209      9212      9209      9210
      9209      9211      9214      9215      9214      9216      9214      9217
      9214      9212      9217      9218      9217      9225      9217      9219
      9225      9226      9225      9227      9225      9228      9219      9220
      9220      9222      9220      9221      9222      9223      9222      9224
      9222      9234      9234      9235      9234      9236      9234      9237
      9237      9238      9237      9239      9237      9240      9240      9241
      9240      9242      9240      9243      9243      9244      9243      9245
      9243      9246      9246      9247      9246      9248      9246      9249
      9249      9250      9249      9251      9249      9252      9252      9253
      9252      9254      9254      9255      9254      9256      9256      9257
      9256      9258      9256      9259      9259      9260      9259      9261
      9259      9262      9262      9263      9262      9264      9262      9265
      9265      9266      9265      9267      9265      9268      9268      9269
      9268      9270      9268      9271      9271      9272      9271      9273
      9271      9274      9274      9275      9274      9276      9274      9277
      9277      9278      9277      9279      9277      9280      9228      9229
      9229      9231      9229      9230      9231      9232      9231      9233
      9231      9281      9281      9282      9281      9283      9281      9284
      9284      9285      9284      9286      9284      9287      9287      9288
      9287      9289      9287      9290      9290      9291      9290      9292
      9290      9293      9293      9294      9293      9295      9293      9296
      9296      9297      9296      9298      9296      9299      9299      9300
      9299      9301      9299      9302      9302      9303      9302      9304
      9302      9305      9305      9306      9305      9307      9305      9308
      9308      9309      9308      9310      9308      9311      9311      9312
      9311      9313      9311      9314      9314      9315      9314      9316
      9314      9317      9317      9318      9317      9319      9317      9320
      9320      9321      9320      9322      9320      9323      9324      9325
      9324      9326      9324      9327      9324      9328      9328      9329
      9328      9330      9328      9331      9331      9332      9331      9333
      9331      9338      9338      9334      9334      9337      9334      9335
      9334      9336      9339      9340      9339      9341      9339      9342
      9339      9337      9342      9343      9342      9350      9342      9344
      9350      9351      9350      9352      9350      9353      9344      9345
      9345      9347      9345      9346      9347      9348      9347      9349
      9347      9359      9359      9360      9359      9361      9359      9362
      9362      9363      9362      9364      9362      9365      9365      9366
      9365      9367      9365      9368      9368      9369      9368      9370
      9368      9371      9371      9372      9371      9373      9371      9374
      9374      9375      9374      9376      9374      9377      9377      9378
      9377      9379      9379      9380      9379      9381      9381      9382
      9381      9383      9381      9384      9384      9385      9384      9386
      9384      9387      9387      9388      9387      9389      9387      9390
      9390      9391      9390      9392      9390      9393      9393      9394
      9393      9395      9393      9396      9396      9397      9396      9398
      9396      9399      9399      9400      9399      9401      9399      9402
      9402      9403      9402      9404      9402      9405      9353      9354
      9354      9356      9354      9355      9356      9357      9356      9358
      9356      9406      9406      9407      9406      9408      9406      9409
      9409      9410      9409      9411      9409      9412      9412      9413
      9412      9414      9412      9415      9415      9416      9415      9417
      9415      9418      9418      9419      9418      9420      9418      9421
      9421      9422      9421      9423      9421      9424      9424      9425
      9424      9426      9424      9427      9427      9428      9427      9429
      9427      9430      9430      9431      9430      9432      9430      9433
      9433      9434      9433      9435      9433      9436      9436      9437
      9436      9438      9436      9439      9439      9440      9439      9441
      9439      9442      9442      9443      9442      9444      9442      9445
      9445      9446      9445      9447      9445      9448      9449      9453
      9449      9457      9449      9461      9453      9454      9453      9455
      9453      9456      9457      9458      9457      9459      9457      9460
      9461      9462      9461      9463      9461      9464      9449      9450
      9450      9451      9450      9452      9450      9465      9465      9466
      9465      9467      9465      9471      9472      9473      9471      9468
      9468      9472      9468      9469      9468      9470      9473      9474
      9473      9475      9473      9476      9476      9477      9476      9484
      9476      9478      9484      9485      9484      9486      9484      9487
      9478      9479      9479      9481      9479      9480      9481      9482
      9481      9483      9481      9493      9493      9494      9493      9495
      9493      9496      9496      9497      9496      9498      9496      9499
      9499      9500      9499      9501      9499      9502      9502      9503
      9502      9504      9502      9505      9505      9506      9505      9507
      9505      9508      9508      9509      9508      9510      9508      9511
      9511      9512      9511      9513      9513      9514      9513      9515
      9515      9516      9515      9517      9515      9518      9518      9519
      9518      9520      9518      9521      9521      9522      9521      9523
      9521      9524      9524      9525      9524      9526      9524      9527
      9527      9528      9527      9529      9527      9530      9530      9531
      9530      9532      9530      9533      9533      9534      9533      9535
      9533      9536      9536      9537      9536      9538      9536      9539
      9487      9488      9488      9490      9488      9489      9490      9491
      9490      9492      9490      9540      9540      9541      9540      9542
      9540      9543      9543      9544      9543      9545      9543      9546
      9546      9547      9546      9548      9546      9549      9549      9550
      9549      9551      9549      9552      9552      9553      9552      9554
      9552      9555      9555      9556      9555      9557      9555      9558
      9558      9559      9558      9560      9558      9561      9561      9562
      9561      9563      9561      9564      9564      9565      9564      9566
      9564      9567      9567      9568      9567      9569      9567      9570
      9570      9571      9570      9572      9570      9573      9573      9574
      9573      9575      9573      9576      9576      9577      9576      9578
      9576      9579      9579      9580      9579      9581      9579      9582
      9583      9584      9583      9585      9583      9586      9583      9587
      9587      9588      9587      9589      9587      9590      9590      9591
      9590      9592      9590      9597      9597      9593      9593      9596
      9593      9594      9593      9595      9598      9599      9598      9600
      9598      9601      9598      9596      9601      9602      9601      9609
      9601      9603      9609      9610      9609      9611      9609      9612
      9603      9604      9604      9606      9604      9605      9606      9607
      9606      9608      9606      9618      9618      9619      9618      9620
      9618      9621      9621      9622      9621      9623      9621      9624
      9624      9625      9624      9626      9624      9627      9627      9628
      9627      9629      9627      9630      9630      9631      9630      9632
      9630      9633      9633      9634      9633      9635      9633      9636
      9636      9637      9636      9638      9638      9639      9638      9640
      9640      9641      9640      9642      9640      9643      9643      9644
      9643      9645      9643      9646      9646      9647      9646      9648
      9646      9649      9649      9650      9649      9651      9649      9652
      9652      9653      9652      9654      9652      9655      9655      9656
      9655      9657      9655      9658      9658      9659      9658      9660
      9658      9661      9661      9662      9661      9663      9661      9664
      9612      9613      9613      9615      9613      9614      9615      9616
      9615      9617      9615      9665      9665      9666      9665      9667
      9665      9668      9668      9669      9668      9670      9668      9671
      9671      9672      9671      9673      9671      9674      9674      9675
      9674      9676      9674      9677      9677      9678      9677      9679
      9677      9680      9680      9681      9680      9682      9680      9683
      9683      9684      9683      9685      9683      9686      9686      9687
      9686      9688      9686      9689      9689      9690      9689      9691
      9689      9692      9692      9693      9692      9694      9692      9695
      9695      9696      9695      9697      9695      9698      9698      9699
      9698      9700      9698      9701      9701      9702      9701      9703
      9701      9704      9704      9705      9704      9706      9704      9707
      9708      9709      9708      9710      9708      9711      9708      9712
      9712      9713      9712      9714      9712      9715      9715      9716
      9715      9717      9715      9722      9722      9718      9718      9721
      9718      9719      9718      9720      9723      9724      9723      9725
      9723      9726      9723      9721      9726      9727      9726      9734
      9726      9728      9734      9735      9734      9736      9734      9737
      9728      9729      9729      9731      9729      9730      9731      9732
      9731      9733      9731      9743      9743      9744      9743      9745
      9743      9746      9746      9747      9746      9748      9746      9749
      9749      9750      9749      9751      9749      9752      9752      9753
      9752      9754      9752      9755      9755      9756      9755      9757
      9755      9758      9758      9759      9758      9760      9758      9761
      9761      9762      9761      9763      9763      9764      9763      9765
      9765      9766      9765      9767      9765      9768      9768      9769
      9768      9770      9768      9771      9771      9772      9771      9773
      9771      9774      9774      9775      9774      9776      9774      9777
      9777      9778      9777      9779      9777      9780      9780      9781
      9780      9782      9780      9783      9783      9784      9783      9785
      9783      9786      9786      9787      9786      9788      9786      9789
      9737      9738      9738      9740      9738      9739      9740      9741
      9740      9742      9740      9790      9790      9791      9790      9792
      9790      9793      9793      9794      9793      9795      9793      9796
      9796      9797      9796      9798      9796      9799      9799      9800
      9799      9801      9799      9802      9802      9803      9802      9804
      9802      9805      9805      9806      9805      9807      9805      9808
      9808      9809      9808      9810      9808      9811      9811      9812
      9811      9813      9811      9814      9814      9815      9814      9816
      9814      9817      9817      9818      9817      9819      9817      9820
      9820      9821      9820      9822      9820      9823      9823      9824
      9823      9825      9823      9826      9826      9827      9826      9828
      9826      9829      9829      9830      9829      9831      9829      9832
      9833      9837      9833      9841      9833      9845      9837      9838
      9837      9839      9837      9840      9841      9842      9841      9843
      9841      9844      9845      9846      9845      9847      9845      9848
      9833      9834      9834      9835      9834      9836      9834      9849
      9849      9850      9849      9851      9849      9855      9856      9857
      9855      9852      9852      9856      9852      9853      9852      9854
      9857      9858      9857      9859      9857      9860      9860      9861
      9860      9868      9860      9862      9868      9869      9868      9870
      9868      9871      9862      9863      9863      9865      9863      9864
      9865      9866      9865      9867      9865      9877      9877      9878
      9877      9879      9877      9880      9880      9881      9880      9882
      9880      9883      9883      9884      9883      9885      9883      9886
      9886      9887      9886      9888      9886      9889      9889      9890
      9889      9891      9889      9892      9892      9893      9892      9894
      9892      9895      9895      9896      9895      9897      9897      9898
      9897      9899      9899      9900      9899      9901      9899      9902
      9902      9903      9902      9904      9902      9905      9905      9906
      9905      9907      9905      9908      9908      9909      9908      9910
      9908      9911      9911      9912      9911      9913      9911      9914
      9914      9915      9914      9916      9914      9917      9917      9918
      9917      9919      9917      9920      9920      9921      9920      9922
      9920      9923      9871      9872      9872      9874      9872      9873
      9874      9875      9874      9876      9874      9924      9924      9925
      9924      9926      9924      9927      9927      9928      9927      9929
      9927      9930      9930      9931      9930      9932      9930      9933
      9933      9934      9933      9935      9933      9936      9936      9937
      9936      9938      9936      9939      9939      9940      9939      9941
      9939      9942      9942      9943      9942      9944      9942      9945
      9945      9946      9945      9947      9945      9948      9948      9949
      9948      9950      9948      9951      9951      9952      9951      9953
      9951      9954      9954      9955      9954      9956      9954      9957
      9957      9958      9957      9959      9957      9960      9960      9961
      9960      9962      9960      9963      9963      9964      9963      9965
      9963      9966      9967      9968      9967      9969      9967      9970
      9967      9971      9971      9972      9971      9973      9971      9974
      9974      9975      9974      9976      9974      9981      9981      9977
      9977      9980      9977      9978      9977      9979      9982      9983
      9982      9984      9982      9985      9982      9980      9985      9986
      9985      9993      9985      9987      9993      9994      9993      9995
      9993      9996      9987      9988      9988      9990      9988      9989
      9990      9991      9990      9992      9990     10002     10002     10003
     10002     10004     10002     10005     10005     10006     10005     10007
     10005     10008     10008     10009     10008     10010     10008     10011
     10011     10012     10011     10013     10011     10014     10014     10015
     10014     10016     10014     10017     10017     10018     10017     10019
     10017     10020     10020     10021     10020     10022     10022     10023
     10022     10024     10024     10025     10024     10026     10024     10027
     10027     10028     10027     10029     10027     10030     10030     10031
     10030     10032     10030     10033     10033     10034     10033     10035
     10033     10036     10036     10037     10036     10038     10036     10039
     10039     10040     10039     10041     10039     10042     10042     10043
     10042     10044     10042     10045     10045     10046     10045     10047
     10045     10048      9996      9997      9997      9999      9997      9998
      9999     10000      9999     10001      9999     10049     10049     10050
     10049     10051     10049     10052     10052     10053     10052     10054
     10052     10055     10055     10056     10055     10057     10055     10058
     10058     10059     10058     10060     10058     10061     10061     10062
     10061     10063     10061     10064     10064     10065     10064     10066
     10064     10067     10067     10068     10067     10069     10067     10070
     10070     10071     10070     10072     10070     10073     10073     10074
     10073     10075     10073     10076     10076     10077     10076     10078
     10076     10079     10079     10080     10079     10081     10079     10082
     10082     10083     10082     10084     10082     10085     10085     10086
     10085     10087     10085     10088     10088     10089     10088     10090
     10088     10091     10092     10093     10092     10094     10092     10095
     10092     10096     10096     10097     10096     10098     10096     10099
     10099     10100     10099     10101     10099     10106     10106     10102
     10102     10105     10102     10103     10102     10104     10107     10108
     10107     10109     10107     10110     10107     10105     10110     10111
     10110     10118     10110     10112     10118     10119     10118     10120
     10118     10121     10112     10113     10113     10115     10113     10114
     10115     10116     10115     10117     10115     10127     10127     10128
     10127     10129     10127     10130     10130     10131     10130     10132
     10130     10133     10133     10134     10133     10135     10133     10136
     10136     10137     10136     10138     10136     10139     10139     10140
     10139     10141     10139     10142     10142     10143     10142     10144
     10142     10145     10145     10146     10145     10147     10147     10148
     10147     10149     10149     10150     10149     10151     10149     10152
     10152     10153     10152     10154     10152     10155     10155     10156
     10155     10157     10155     10158     10158     10159     10158     10160
     10158     10161     10161     10162     10161     10163     10161     10164
     10164     10165     10164     10166     10164     10167     10167     10168
     10167     10169     10167     10170     10170     10171     10170     10172
     10170     10173     10121     10122     10122     10124     10122     10123
     10124     10125     10124     10126     10124     10174     10174     10175
     10174     10176     10174     10177     10177     10178     10177     10179
     10177     10180     10180     10181     10180     10182     10180     10183
     10183     10184     10183     10185     10183     10186     10186     10187
     10186     10188     10186     10189     10189     10190     10189     10191
     10189     10192     10192     10193     10192     10194     10192     10195
     10195     10196     10195     10197     10195     10198     10198     10199
     10198     10200     10198     10201     10201     10202     10201     10203
     10201     10204     10204     10205     10204     10206     10204     10207
     10207     10208     10207     10209     10207     10210     10210     10211
     10210     10212     10210     10213     10213     10214     10213     10215
     10213     10216     10217     10221     10217     10225     10217     10229
     10221     10222     10221     10223     10221     10224     10225     10226
     10225     10227     10225     10228     10229     10230     10229     10231
     10229     10232     10217     10218     10218     10219     10218     10220
     10218     10233     10233     10234     10233     10235     10233     10239
     10240     10241     10239     10236     10236     10240     10236     10237
     10236     10238     10241     10242     10241     10243     10241     10244
     10244     10245     10244     10252     10244     10246     10252     10253
     10252     10254     10252     10255     10246     10247     10247     10249
     10247     10248     10249     10250     10249     10251     10249     10261
     10261     10262     10261     10263     10261     10264     10264     10265
     10264     10266     10264     10267     10267     10268     10267     10269
     10267     10270     10270     10271     10270     10272     10270     10273
     10273     10274     10273     10275     10273     10276     10276     10277
     10276     10278     10276     10279     10279     10280     10279     10281
     10281     10282     10281     10283     10283     10284     10283     10285
     10283     10286     10286     10287     10286     10288     10286     10289
     10289     10290     10289     10291     10289     10292     10292     10293
     10292     10294     10292     10295     10295     10296     10295     10297
     10295     10298     10298     10299     10298     10300     10298     10301
     10301     10302     10301     10303     10301     10304     10304     10305
     10304     10306     10304     10307     10255     10256     10256     10258
     10256     10257     10258     10259     10258     10260     10258     10308
     10308     10309     10308     10310     10308     10311     10311     10312
     10311     10313     10311     10314     10314     10315     10314     10316
     10314     10317     10317     10318     10317     10319     10317     10320
     10320     10321     10320     10322     10320     10323     10323     10324
     10323     10325     10323     10326     10326     10327     10326     10328
     10326     10329     10329     10330     10329     10331     10329     10332
     10332     10333     10332     10334     10332     10335     10335     10336
     10335     10337     10335     10338     10338     10339     10338     10340
     10338     10341     10341     10342     10341     10343     10341     10344
     10344     10345     10344     10346     10344     10347     10347     10348
     10347     10349     10347     10350     10351     10352     10351     10353
     10351     10354     10351     10355     10355     10356     10355     10357
     10355     10358     10358     10359     10358     10360     10358     10365
     10365     10361     10361     10364     10361     10362     10361     10363
     10366     10367     10366     10368     10366     10369     10366     10364
     10369     10370     10369     10377     10369     10371     10377     10378
     10377     10379     10377     10380     10371     10372     10372     10374
     10372     10373     10374     10375     10374     10376     10374     10386
     10386     10387     10386     10388     10386     10389     10389     10390
     10389     10391     10389     10392     10392     10393     10392     10394
     10392     10395     10395     10396     10395     10397     10395     10398
     10398     10399     10398     10400     10398     10401     10401     10402
     10401     10403     10401     10404     10404     10405     10404     10406
     10406     10407     10406     10408     10408     10409     10408     10410
     10408     10411     10411     10412     10411     10413     10411     10414
     10414     10415     10414     10416     10414     10417     10417     10418
     10417     10419     10417     10420     10420     10421     10420     10422
     10420     10423     10423     10424     10423     10425     10423     10426
     10426     10427     10426     10428     10426     10429     10429     10430
     10429     10431     10429     10432     10380     10381     10381     10383
     10381     10382     10383     10384     10383     10385     10383     10433
     10433     10434     10433     10435     10433     10436     10436     10437
     10436     10438     10436     10439     10439     10440     10439     10441
     10439     10442     10442     10443     10442     10444     10442     10445
     10445     10446     10445     10447     10445     10448     10448     10449
     10448     10450     10448     10451     10451     10452     10451     10453
     10451     10454     10454     10455     10454     10456     10454     10457
     10457     10458     10457     10459     10457     10460     10460     10461
     10460     10462     10460     10463     10463     10464     10463     10465
     10463     10466     10466     10467     10466     10468     10466     10469
     10469     10470     10469     10471     10469     10472     10472     10473
     10472     10474     10472     10475     10476     10477     10476     10478
     10476     10479     10476     10480     10480     10481     10480     10482
     10480     10483     10483     10484     10483     10485     10483     10490
     10490     10486     10486     10489     10486     10487     10486     10488
     10491     10492     10491     10493     10491     10494     10491     10489
     10494     10495     10494     10502     10494     10496     10502     10503
     10502     10504     10502     10505     10496     10497     10497     10499
     10497     10498     10499     10500     10499     10501     10499     10511
     10511     10512     10511     10513     10511     10514     10514     10515
     10514     10516     10514     10517     10517     10518     10517     10519
     10517     10520     10520     10521     10520     10522     10520     10523
     10523     10524     10523     10525     10523     10526     10526     10527
     10526     10528     10526     10529     10529     10530     10529     10531
     10531     10532     10531     10533     10533     10534     10533     10535
     10533     10536     10536     10537     10536     10538     10536     10539
     10539     10540     10539     10541     10539     10542     10542     10543
     10542     10544     10542     10545     10545     10546     10545     10547
     10545     10548     10548     10549     10548     10550     10548     10551
     10551     10552     10551     10553     10551     10554     10554     10555
     10554     10556     10554     10557     10505     10506     10506     10508
     10506     10507     10508     10509     10508     10510     10508     10558
     10558     10559     10558     10560     10558     10561     10561     10562
     10561     10563     10561     10564     10564     10565     10564     10566
     10564     10567     10567     10568     10567     10569     10567     10570
     10570     10571     10570     10572     10570     10573     10573     10574
     10573     10575     10573     10576     10576     10577     10576     10578
     10576     10579     10579     10580     10579     10581     10579     10582
     10582     10583     10582     10584     10582     10585     10585     10586
     10585     10587     10585     10588     10588     10589     10588     10590
     10588     10591     10591     10592     10591     10593     10591     10594
     10594     10595     10594     10596     10594     10597     10597     10598
     10597     10599     10597     10600     10601     10605     10601     10609
     10601     10613     10605     10606     10605     10607     10605     10608
     10609     10610     10609     10611     10609     10612     10613     10614
     10613     10615     10613     10616     10601     10602     10602     10603
     10602     10604     10602     10617     10617     10618     10617     10619
     10617     10623     10624     10625     10623     10620     10620     10624
     10620     10621     10620     10622     10625     10626     10625     10627
     10625     10628     10628     10629     10628     10636     10628     10630
     10636     10637     10636     10638     10636     10639     10630     10631
     10631     10633     10631     10632     10633     10634     10633     10635
     10633     10645     10645     10646     10645     10647     10645     10648
     10648     10649     10648     10650     10648     10651     10651     10652
     10651     10653     10651     10654     10654     10655     10654     10656
     10654     10657     10657     10658     10657     10659     10657     10660
     10660     10661     10660     10662     10660     10663     10663     10664
     10663     10665     10665     10666     10665     10667     10667     10668
     10667     10669     10667     10670     10670     10671     10670     10672
     10670     10673     10673     10674     10673     10675     10673     10676
     10676     10677     10676     10678     10676     10679     10679     10680
     10679     10681     10679     10682     10682     10683     10682     10684
     10682     10685     10685     10686     10685     10687     10685     10688
     10688     10689     10688     10690     10688     10691     10639     10640
     10640     10642     10640     10641     10642     10643     10642     10644
     10642     10692     10692     10693     10692     10694     10692     10695
     10695     10696     10695     10697     10695     10698     10698     10699
     10698     10700     10698     10701     10701     10702     10701     10703
     10701     10704     10704     10705     10704     10706     10704     10707
     10707     10708     10707     10709     10707     10710     10710     10711
     10710     10712     10710     10713     10713     10714     10713     10715
     10713     10716     10716     10717     10716     10718     10716     10719
     10719     10720     10719     10721     10719     10722     10722     10723
     10722     10724     10722     10725     10725     10726     10725     10727
     10725     10728     10728     10729     10728     10730     10728     10731
     10731     10732     10731     10733     10731     10734     10735     10736
     10735     10737     10735     10738     10735     10739     10739     10740
     10739     10741     10739     10742     10742     10743     10742     10744
     10742     10749     10749     10745     10745     10748     10745     10746
     10745     10747     10750     10751     10750     10752     10750     10753
     10750     10748     10753     10754     10753     10761     10753     10755
     10761     10762     10761     10763     10761     10764     10755     10756
     10756     10758     10756     10757     10758     10759     10758     10760
     10758     10770     10770     10771     10770     10772     10770     10773
     10773     10774     10773     10775     10773     10776     10776     10777
     10776     10778     10776     10779     10779     10780     10779     10781
     10779     10782     10782     10783     10782     10784     10782     10785
     10785     10786     10785     10787     10785     10788     10788     10789
     10788     10790     10790     10791     10790     10792     10792     10793
     10792     10794     10792     10795     10795     10796     10795     10797
     10795     10798     10798     10799     10798     10800     10798     10801
     10801     10802     10801     10803     10801     10804     10804     10805
     10804     10806     10804     10807     10807     10808     10807     10809
     10807     10810     10810     10811     10810     10812     10810     10813
     10813     10814     10813     10815     10813     10816     10764     10765
     10765     10767     10765     10766     10767     10768     10767     10769
     10767     10817     10817     10818     10817     10819     10817     10820
     10820     10821     10820     10822     10820     10823     10823     10824
     10823     10825     10823     10826     10826     10827     10826     10828
     10826     10829     10829     10830     10829     10831     10829     10832
     10832     10833     10832     10834     10832     10835     10835     10836
     10835     10837     10835     10838     10838     10839     10838     10840
     10838     10841     10841     10842     10841     10843     10841     10844
     10844     10845     10844     10846     10844     10847     10847     10848
     10847     10849     10847     10850     10850     10851     10850     10852
     10850     10853     10853     10854     10853     10855     10853     10856
     10856     10857     10856     10858     10856     10859     10860     10864
     10860     10868     10860     10872     10864     10865     10864     10866
     10864     10867     10868     10869     10868     10870     10868     10871
     10872     10873     10872     10874     10872     10875     10860     10861
     10861     10862     10861     10863     10861     10876     10876     10877
     10876     10878     10876     10882     10883     10884     10882     10879
     10879     10883     10879     10880     10879     10881     10884     10885
     10884     10886     10884     10887     10887     10888     10887     10895
     10887     10889     10895     10896     10895     10897     10895     10898
     10889     10890     10890     10892     10890     10891     10892     10893
     10892     10894     10892     10904     10904     10905     10904     10906
     10904     10907     10907     10908     10907     10909     10907     10910
     10910     10911     10910     10912     10910     10913     10913     10914
     10913     10915     10913     10916     10916     10917     10916     10918
     10916     10919     10919     10920     10919     10921     10919     10922
     10922     10923     10922     10924     10924     10925     10924     10926
     10926     10927     10926     10928     10926     10929     10929     10930
     10929     10931     10929     10932     10932     10933     10932     10934
     10932     10935     10935     10936     10935     10937     10935     10938
     10938     10939     10938     10940     10938     10941     10941     10942
     10941     10943     10941     10944     10944     10945     10944     10946
     10944     10947     10947     10948     10947     10949     10947     10950
     10898     10899     10899     10901     10899     10900     10901     10902
     10901     10903     10901     10951     10951     10952     10951     10953
     10951     10954     10954     10955     10954     10956     10954     10957
     10957     10958     10957     10959     10957     10960     10960     10961
     10960     10962     10960     10963     10963     10964     10963     10965
     10963     10966     10966     10967     10966     10968     10966     10969
     10969     10970     10969     10971     10969     10972     10972     10973
     10972     10974     10972     10975     10975     10976     10975     10977
     10975     10978     10978     10979     10978     10980     10978     10981
     10981     10982     10981     10983     10981     10984     10984     10985
     10984     10986     10984     10987     10987     10988     10987     10989
     10987     10990     10990     10991     10990     10992     10990     10993
     10994     10995     10994     10996     10994     10997     10994     10998
     10998     10999     10998     11000     10998     11001     11001     11002
     11001     11003     11001     11008     11008     11004     11004     11007
     11004     11005     11004     11006     11009     11010     11009     11011
     11009     11012     11009     11007     11012     11013     11012     11020
     11012     11014     11020     11021     11020     11022     11020     11023
     11014     11015     11015     11017     11015     11016     11017     11018
     11017     11019     11017     11029     11029     11030     11029     11031
     11029     11032     11032     11033     11032     11034     11032     11035
     11035     11036     11035     11037     11035     11038     11038     11039
     11038     11040     11038     11041     11041     11042     11041     11043
     11041     11044     11044     11045     11044     11046     11044     11047
     11047     11048     11047     11049     11049     11050     11049     11051
     11051     11052     11051     11053     11051     11054     11054     11055
     11054     11056     11054     11057     11057     11058     11057     11059
     11057     11060     11060     11061     11060     11062     11060     11063
     11063     11064     11063     11065     11063     11066     11066     11067
     11066     11068     11066     11069     11069     11070     11069     11071
     11069     11072     11072     11073     11072     11074     11072     11075
     11023     11024     11024     11026     11024     11025     11026     11027
     11026     11028     11026     11076     11076     11077     11076     11078
     11076     11079     11079     11080     11079     11081     11079     11082
     11082     11083     11082     11084     11082     11085     11085     11086
     11085     11087     11085     11088     11088     11089     11088     11090
     11088     11091     11091     11092     11091     11093     11091     11094
     11094     11095     11094     11096     11094     11097     11097     11098
     11097     11099     11097     11100     11100     11101     11100     11102
     11100     11103     11103     11104     11103     11105     11103     11106
     11106     11107     11106     11108     11106     11109     11109     11110
     11109     11111     11109     11112     11112     11113     11112     11114
     11112     11115     11115     11116     11115     11117     11115     11118
     11119     11120     11119     11121     11119     11122     11119     11123
     11123     11124     11123     11125     11123     11126     11126     11127
     11126     11128     11126     11133     11133     11129     11129     11132
     11129     11130     11129     11131     11134     11135     11134     11136
     11134     11137     11134     11132     11137     11138     11137     11145
     11137     11139     11145     11146     11145     11147     11145     11148
     11139     11140     11140     11142     11140     11141     11142     11143
     11142     11144     11142     11154     11154     11155     11154     11156
     11154     11157     11157     11158     11157     11159     11157     11160
     11160     11161     11160     11162     11160     11163     11163     11164
     11163     11165     11163     11166     11166     11167     11166     11168
     11166     11169     11169     11170     11169     11171     11169     11172
     11172     11173     11172     11174     11174     11175     11174     11176
     11176     11177     11176     11178     11176     11179     11179     11180
     11179     11181     11179     11182     11182     11183     11182     11184
     11182     11185     11185     11186     11185     11187     11185     11188
     11188     11189     11188     11190     11188     11191     11191     11192
     11191     11193     11191     11194     11194     11195     11194     11196
     11194     11197     11197     11198     11197     11199     11197     11200
     11148     11149     11149     11151     11149     11150     11151     11152
     11151     11153     11151     11201     11201     11202     11201     11203
     11201     11204     11204     11205     11204     11206     11204     11207
     11207     11208     11207     11209     11207     11210     11210     11211
     11210     11212     11210     11213     11213     11214     11213     11215
     11213     11216     11216     11217     11216     11218     11216     11219
     11219     11220     11219     11221     11219     11222     11222     11223
     11222     11224     11222     11225     11225     11226     11225     11227
     11225     11228     11228     11229     11228     11230     11228     11231
     11231     11232     11231     11233     11231     11234     11234     11235
     11234     11236     11234     11237     11237     11238     11237     11239
     11237     11240     11240     11241     11240     11242     11240     11243
     11244     11248     11244     11252     11244     11256     11248     11249
     11248     11250     11248     11251     11252     11253     11252     11254
     11252     11255     11256     11257     11256     11258     11256     11259
     11244     11245     11245     11246     11245     11247     11245     11260
     11260     11261     11260     11262     11260     11266     11267     11268
     11266     11263     11263     11267     11263     11264     11263     11265
     11268     11269     11268     11270     11268     11271     11271     11272
     11271     11279     11271     11273     11279     11280     11279     11281
     11279     11282     11273     11274     11274     11276     11274     11275
     11276     11277     11276     11278     11276     11288     11288     11289
     11288     11290     11288     11291     11291     11292     11291     11293
     11291     11294     11294     11295     11294     11296     11294     11297
     11297     11298     11297     11299     11297     11300     11300     11301
     11300     11302     11300     11303     11303     11304     11303     11305
     11303     11306     11306     11307     11306     11308     11308     11309
     11308     11310     11310     11311     11310     11312     11310     11313
     11313     11314     11313     11315     11313     11316     11316     11317
     11316     11318     11316     11319     11319     11320     11319     11321
     11319     11322     11322     11323     11322     11324     11322     11325
     11325     11326     11325     11327     11325     11328     11328     11329
     11328     11330     11328     11331     11331     11332     11331     11333
     11331     11334     11282     11283     11283     11285     11283     11284
     11285     11286     11285     11287     11285     11335     11335     11336
     11335     11337     11335     11338     11338     11339     11338     11340
     11338     11341     11341     11342     11341     11343     11341     11344
     11344     11345     11344     11346     11344     11347     11347     11348
     11347     11349     11347     11350     11350     11351     11350     11352
     11350     11353     11353     11354     11353     11355     11353     11356
     11356     11357     11356     11358     11356     11359     11359     11360
     11359     11361     11359     11362     11362     11363     11362     11364
     11362     11365     11365     11366     11365     11367     11365     11368
     11368     11369     11368     11370     11368     11371     11371     11372
     11371     11373     11371     11374     11374     11375     11374     11376
     11374     11377     11378     11382     11378     11386     11378     11390
     11382     11383     11382     11384     11382     11385     11386     11387
     11386     11388     11386     11389     11390     11391     11390     11392
     11390     11393     11378     11379     11379     11380     11379     11381
     11379     11394     11394     11395     11394     11396     11394     11400
     11401     11402     11400     11397     11397     11401     11397     11398
     11397     11399     11402     11403     11402     11404     11402     11405
     11405     11406     11405     11413     11405     11407     11413     11414
     11413     11415     11413     11416     11407     11408     11408     11410
     11408     11409     11410     11411     11410     11412     11410     11422
     11422     11423     11422     11424     11422     11425     11425     11426
     11425     11427     11425     11428     11428     11429     11428     11430
     11428     11431     11431     11432     11431     11433     11431     11434
     11434     11435     11434     11436     11434     11437     11437     11438
     11437     11439     11437     11440     11440     11441     11440     11442
     11442     11443     11442     11444     11444     11445     11444     11446
     11444     11447     11447     11448     11447     11449     11447     11450
     11450     11451     11450     11452     11450     11453     11453     11454
     11453     11455     11453     11456     11456     11457     11456     11458
     11456     11459     11459     11460     11459     11461     11459     11462
     11462     11463     11462     11464     11462     11465     11465     11466
     11465     11467     11465     11468     11416     11417     11417     11419
     11417     11418     11419     11420     11419     11421     11419     11469
     11469     11470     11469     11471     11469     11472     11472     11473
     11472     11474     11472     11475     11475     11476     11475     11477
     11475     11478     11478     11479     11478     11480     11478     11481
     11481     11482     11481     11483     11481     11484     11484     11485
     11484     11486     11484     11487     11487     11488     11487     11489
     11487     11490     11490     11491     11490     11492     11490     11493
     11493     11494     11493     11495     11493     11496     11496     11497
     11496     11498     11496     11499     11499     11500     11499     11501
     11499     11502     11502     11503     11502     11504     11502     11505
     11505     11506     11505     11507     11505     11508     11508     11509
     11508     11510     11508     11511     11512     11516     11512     11520
     11512     11524     11516     11517     11516     11518     11516     11519
     11520     11521     11520     11522     11520     11523     11524     11525
     11524     11526     11524     11527     11512     11513     11513     11514
     11513     11515     11513     11528     11528     11529     11528     11530
     11528     11534     11535     11536     11534     11531     11531     11535
     11531     11532     11531     11533     11536     11537     11536     11538
     11536     11539     11539     11540     11539     11547     11539     11541
     11547     11548     11547     11549     11547     11550     11541     11542
     11542     11544     11542     11543     11544     11545     11544     11546
     11544     11556     11556     11557     11556     11558     11556     11559
     11559     11560     11559     11561     11559     11562     11562     11563
     11562     11564     11562     11565     11565     11566     11565     11567
     11565     11568     11568     11569     11568     11570     11568     11571
     11571     11572     11571     11573     11571     11574     11574     11575
     11574     11576     11576     11577     11576     11578     11578     11579
     11578     11580     11578     11581     11581     11582     11581     11583
     11581     11584     11584     11585     11584     11586     11584     11587
     11587     11588     11587     11589     11587     11590     11590     11591
     11590     11592     11590     11593     11593     11594     11593     11595
     11593     11596     11596     11597     11596     11598     11596     11599
     11599     11600     11599     11601     11599     11602     11550     11551
     11551     11553     11551     11552     11553     11554     11553     11555
     11553     11603     11603     11604     11603     11605     11603     11606
     11606     11607     11606     11608     11606     11609     11609     11610
     11609     11611     11609     11612     11612     11613     11612     11614
     11612     11615     11615     11616     11615     11617     11615     11618
     11618     11619     11618     11620     11618     11621     11621     11622
     11621     11623     11621     11624     11624     11625     11624     11626
     11624     11627     11627     11628     11627     11629     11627     11630
     11630     11631     11630     11632     11630     11633     11633     11634
     11633     11635     11633     11636     11636     11637     11636     11638
     11636     11639     11639     11640     11639     11641     11639     11642
     11642     11643     11642     11644     11642     11645     11646     11647
     11646     11648     11646     11649     11646     11650     11650     11651
     11650     11652     11650     11653     11653     11654     11653     11655
     11653     11660     11660     11656     11656     11659     11656     11657
     11656     11658     11661     11662     11661     11663     11661     11664
     11661     11659     11664     11665     11664     11672     11664     11666
     11672     11673     11672     11674     11672     11675     11666     11667
     11667     11669     11667     11668     11669     11670     11669     11671
     11669     11681     11681     11682     11681     11683     11681     11684
     11684     11685     11684     11686     11684     11687     11687     11688
     11687     11689     11687     11690     11690     11691     11690     11692
     11690     11693     11693     11694     11693     11695     11693     11696
     11696     11697     11696     11698     11696     11699     11699     11700
     11699     11701     11701     11702     11701     11703     11703     11704
     11703     11705     11703     11706     11706     11707     11706     11708
     11706     11709     11709     11710     11709     11711     11709     11712
     11712     11713     11712     11714     11712     11715     11715     11716
     11715     11717     11715     11718     11718     11719     11718     11720
     11718     11721     11721     11722     11721     11723     11721     11724
     11724     11725     11724     11726     11724     11727     11675     11676
     11676     11678     11676     11677     11678     11679     11678     11680
     11678     11728     11728     11729     11728     11730     11728     11731
     11731     11732     11731     11733     11731     11734     11734     11735
     11734     11736     11734     11737     11737     11738     11737     11739
     11737     11740     11740     11741     11740     11742     11740     11743
     11743     11744     11743     11745     11743     11746     11746     11747
     11746     11748     11746     11749     11749     11750     11749     11751
     11749     11752     11752     11753     11752     11754     11752     11755
     11755     11756     11755     11757     11755     11758     11758     11759
     11758     11760     11758     11761     11761     11762     11761     11763
     11761     11764     11764     11765     11764     11766     11764     11767
     11767     11768     11767     11769     11767     11770     11771     11775
     11771     11779     11771     11783     11775     11776     11775     11777
     11775     11778     11779     11780     11779     11781     11779     11782
     11783     11784     11783     11785     11783     11786     11771     11772
     11772     11773     11772     11774     11772     11787     11787     11788
     11787     11789     11787     11793     11794     11795     11793     11790
     11790     11794     11790     11791     11790     11792     11795     11796
     11795     11797     11795     11798     11798     11799     11798     11806
     11798     11800     11806     11807     11806     11808     11806     11809
     11800     11801     11801     11803     11801     11802     11803     11804
     11803     11805     11803     11815     11815     11816     11815     11817
     11815     11818     11818     11819     11818     11820     11818     11821
     11821     11822     11821     11823     11821     11824     11824     11825
     11824     11826     11824     11827     11827     11828     11827     11829
     11827     11830     11830     11831     11830     11832     11830     11833
     11833     11834     11833     11835     11835     11836     11835     11837
     11837     11838     11837     11839     11837     11840     11840     11841
     11840     11842     11840     11843     11843     11844     11843     11845
     11843     11846     11846     11847     11846     11848     11846     11849
     11849     11850     11849     11851     11849     11852     11852     11853
     11852     11854     11852     11855     11855     11856     11855     11857
     11855     11858     11858     11859     11858     11860     11858     11861
     11809     11810     11810     11812     11810     11811     11812     11813
     11812     11814     11812     11862     11862     11863     11862     11864
     11862     11865     11865     11866     11865     11867     11865     11868
     11868     11869     11868     11870     11868     11871     11871     11872
     11871     11873     11871     11874     11874     11875     11874     11876
     11874     11877     11877     11878     11877     11879     11877     11880
     11880     11881     11880     11882     11880     11883     11883     11884
     11883     11885     11883     11886     11886     11887     11886     11888
     11886     11889     11889     11890     11889     11891     11889     11892
     11892     11893     11892     11894     11892     11895     11895     11896
     11895     11897     11895     11898     11898     11899     11898     11900
     11898     11901     11901     11902     11901     11903     11901     11904
     11905     11909     11905     11913     11905     11917     11909     11910
     11909     11911     11909     11912     11913     11914     11913     11915
     11913     11916     11917     11918     11917     11919     11917     11920
     11905     11906     11906     11907     11906     11908     11906     11921
     11921     11922     11921     11923     11921     11927     11928     11929
     11927     11924     11924     11928     11924     11925     11924     11926
     11929     11930     11929     11931     11929     11932     11932     11933
     11932     11940     11932     11934     11940     11941     11940     11942
     11940     11943     11934     11935     11935     11937     11935     11936
     11937     11938     11937     11939     11937     11949     11949     11950
     11949     11951     11949     11952     11952     11953     11952     11954
     11952     11955     11955     11956     11955     11957     11955     11958
     11958     11959     11958     11960     11958     11961     11961     11962
     11961     11963     11961     11964     11964     11965     11964     11966
     11964     11967     11967     11968     11967     11969     11969     11970
     11969     11971     11971     11972     11971     11973     11971     11974
     11974     11975     11974     11976     11974     11977     11977     11978
     11977     11979     11977     11980     11980     11981     11980     11982
     11980     11983     11983     11984     11983     11985     11983     11986
     11986     11987     11986     11988     11986     11989     11989     11990
     11989     11991     11989     11992     11992     11993     11992     11994
     11992     11995     11943     11944     11944     11946     11944     11945
     11946     11947     11946     11948     11946     11996     11996     11997
     11996     11998     11996     11999     11999     12000     11999     12001
     11999     12002     12002     12003     12002     12004     12002     12005
     12005     12006     12005     12007     12005     12008     12008     12009
     12008     12010     12008     12011     12011     12012     12011     12013
     12011     12014     12014     12015     12014     12016     12014     12017
     12017     12018     12017     12019     12017     12020     12020     12021
     12020     12022     12020     12023     12023     12024     12023     12025
     12023     12026     12026     12027     12026     12028     12026     12029
     12029     12030     12029     12031     12029     12032     12032     12033
     12032     12034     12032     12035     12035     12036     12035     12037
     12035     12038     12039     12040     12039     12041     12039     12042
     12039     12043     12043     12044     12043     12045     12043     12046
     12046     12047     12046     12048     12046     12053     12053     12049
     12049     12052     12049     12050     12049     12051     12054     12055
     12054     12056     12054     12057     12054     12052     12057     12058
     12057     12065     12057     12059     12065     12066     12065     12067
     12065     12068     12059     12060     12060     12062     12060     12061
     12062     12063     12062     12064     12062     12074     12074     12075
     12074     12076     12074     12077     12077     12078     12077     12079
     12077     12080     12080     12081     12080     12082     12080     12083
     12083     12084     12083     12085     12083     12086     12086     12087
     12086     12088     12086     12089     12089     12090     12089     12091
     12089     12092     12092     12093     12092     12094     12094     12095
     12094     12096     12096     12097     12096     12098     12096     12099
     12099     12100     12099     12101     12099     12102     12102     12103
     12102     12104     12102     12105     12105     12106     12105     12107
     12105     12108     12108     12109     12108     12110     12108     12111
     12111     12112     12111     12113     12111     12114     12114     12115
     12114     12116     12114     12117     12117     12118     12117     12119
     12117     12120     12068     12069     12069     12071     12069     12070
     12071     12072     12071     12073     12071     12121     12121     12122
     12121     12123     12121     12124     12124     12125     12124     12126
     12124     12127     12127     12128     12127     12129     12127     12130
     12130     12131     12130     12132     12130     12133     12133     12134
     12133     12135     12133     12136     12136     12137     12136     12138
     12136     12139     12139     12140     12139     12141     12139     12142
     12142     12143     12142     12144     12142     12145     12145     12146
     12145     12147     12145     12148     12148     12149     12148     12150
     12148     12151     12151     12152     12151     12153     12151     12154
     12154     12155     12154     12156     12154     12157     12157     12158
     12157     12159     12157     12160     12160     12161     12160     12162
     12160     12163     12164     12165     12164     12166     12164     12167
     12164     12168     12168     12169     12168     12170     12168     12171
     12171     12172     12171     12173     12171     12178     12178     12174
     12174     12177     12174     12175     12174     12176     12179     12180
     12179     12181     12179     12182     12179     12177     12182     12183
     12182     12190     12182     12184     12190     12191     12190     12192
     12190     12193     12184     12185     12185     12187     12185     12186
     12187     12188     12187     12189     12187     12199     12199     12200
     12199     12201     12199     12202     12202     12203     12202     12204
     12202     12205     12205     12206     12205     12207     12205     12208
     12208     12209     12208     12210     12208     12211     12211     12212
     12211     12213     12211     12214     12214     12215     12214     12216
     12214     12217     12217     12218     12217     12219     12219     12220
     12219     12221     12221     12222     12221     12223     12221     12224
     12224     12225     12224     12226     12224     12227     12227     12228
     12227     12229     12227     12230     12230     12231     12230     12232
     12230     12233     12233     12234     12233     12235     12233     12236
     12236     12237     12236     12238     12236     12239     12239     12240
     12239     12241     12239     12242     12242     12243     12242     12244
     12242     12245     12193     12194     12194     12196     12194     12195
     12196     12197     12196     12198     12196     12246     12246     12247
     12246     12248     12246     12249     12249     12250     12249     12251
     12249     12252     12252     12253     12252     12254     12252     12255
     12255     12256     12255     12257     12255     12258     12258     12259
     12258     12260     12258     12261     12261     12262     12261     12263
     12261     12264     12264     12265     12264     12266     12264     12267
     12267     12268     12267     12269     12267     12270     12270     12271
     12270     12272     12270     12273     12273     12274     12273     12275
     12273     12276     12276     12277     12276     12278     12276     12279
     12279     12280     12279     12281     12279     12282     12282     12283
     12282     12284     12282     12285     12285     12286     12285     12287
     12285     12288     12289     12293     12289     12297     12289     12301
     12293     12294     12293     12295     12293     12296     12297     12298
     12297     12299     12297     12300     12301     12302     12301     12303
     12301     12304     12289     12290     12290     12291     12290     12292
     12290     12305     12305     12306     12305     12307     12305     12311
     12312     12313     12311     12308     12308     12312     12308     12309
     12308     12310     12313     12314     12313     12315     12313     12316
     12316     12317     12316     12324     12316     12318     12324     12325
     12324     12326     12324     12327     12318     12319     12319     12321
     12319     12320     12321     12322     12321     12323     12321     12333
     12333     12334     12333     12335     12333     12336     12336     12337
     12336     12338     12336     12339     12339     12340     12339     12341
     12339     12342     12342     12343     12342     12344     12342     12345
     12345     12346     12345     12347     12345     12348     12348     12349
     12348     12350     12348     12351     12351     12352     12351     12353
     12353     12354     12353     12355     12355     12356     12355     12357
     12355     12358     12358     12359     12358     12360     12358     12361
     12361     12362     12361     12363     12361     12364     12364     12365
     12364     12366     12364     12367     12367     12368     12367     12369
     12367     12370     12370     12371     12370     12372     12370     12373
     12373     12374     12373     12375     12373     12376     12376     12377
     12376     12378     12376     12379     12327     12328     12328     12330
     12328     12329     12330     12331     12330     12332     12330     12380
     12380     12381     12380     12382     12380     12383     12383     12384
     12383     12385     12383     12386     12386     12387     12386     12388
     12386     12389     12389     12390     12389     12391     12389     12392
     12392     12393     12392     12394     12392     12395     12395     12396
     12395     12397     12395     12398     12398     12399     12398     12400
     12398     12401     12401     12402     12401     12403     12401     12404
     12404     12405     12404     12406     12404     12407     12407     12408
     12407     12409     12407     12410     12410     12411     12410     12412
     12410     12413     12413     12414     12413     12415     12413     12416
     12416     12417     12416     12418     12416     12419     12419     12420
     12419     12421     12419     12422     12423     12427     12423     12431
     12423     12435     12427     12428     12427     12429     12427     12430
     12431     12432     12431     12433     12431     12434     12435     12436
     12435     12437     12435     12438     12423     12424     12424     12425
     12424     12426     12424     12439     12439     12440     12439     12441
     12439     12445     12446     12447     12445     12442     12442     12446
     12442     12443     12442     12444     12447     12448     12447     12449
     12447     12450     12450     12451     12450     12458     12450     12452
     12458     12459     12458     12460     12458     12461     12452     12453
     12453     12455     12453     12454     12455     12456     12455     12457
     12455     12467     12467     12468     12467     12469     12467     12470
     12470     12471     12470     12472     12470     12473     12473     12474
     12473     12475     12473     12476     12476     12477     12476     12478
     12476     12479     12479     12480     12479     12481     12479     12482
     12482     12483     12482     12484     12482     12485     12485     12486
     12485     12487     12487     12488     12487     12489     12489     12490
     12489     12491     12489     12492     12492     12493     12492     12494
     12492     12495     12495     12496     12495     12497     12495     12498
     12498     12499     12498     12500     12498     12501     12501     12502
     12501     12503     12501     12504     12504     12505     12504     12506
     12504     12507     12507     12508     12507     12509     12507     12510
     12510     12511     12510     12512     12510     12513     12461     12462
     12462     12464     12462     12463     12464     12465     12464     12466
     12464     12514     12514     12515     12514     12516     12514     12517
     12517     12518     12517     12519     12517     12520     12520     12521
     12520     12522     12520     12523     12523     12524     12523     12525
     12523     12526     12526     12527     12526     12528     12526     12529
     12529     12530     12529     12531     12529     12532     12532     12533
     12532     12534     12532     12535     12535     12536     12535     12537
     12535     12538     12538     12539     12538     12540     12538     12541
     12541     12542     12541     12543     12541     12544     12544     12545
     12544     12546     12544     12547     12547     12548     12547     12549
     12547     12550     12550     12551     12550     12552     12550     12553
     12553     12554     12553     12555     12553     12556     12557     12561
     12557     12565     12557     12569     12561     12562     12561     12563
     12561     12564     12565     12566     12565     12567     12565     12568
     12569     12570     12569     12571     12569     12572     12557     12558
     12558     12559     12558     12560     12558     12573     12573     12574
     12573     12575     12573     12579     12580     12581     12579     12576
     12576     12580     12576     12577     12576     12578     12581     12582
     12581     12583     12581     12584     12584     12585     12584     12592
     12584     12586     12592     12593     12592     12594     12592     12595
     12586     12587     12587     12589     12587     12588     12589     12590
     12589     12591     12589     12601     12601     12602     12601     12603
     12601     12604     12604     12605     12604     12606     12604     12607
     12607     12608     12607     12609     12607     12610     12610     12611
     12610     12612     12610     12613     12613     12614     12613     12615
     12613     12616     12616     12617     12616     12618     12616     12619
     12619     12620     12619     12621     12621     12622     12621     12623
     12623     12624     12623     12625     12623     12626     12626     12627
     12626     12628     12626     12629     12629     12630     12629     12631
     12629     12632     12632     12633     12632     12634     12632     12635
     12635     12636     12635     12637     12635     12638     12638     12639
     12638     12640     12638     12641     12641     12642     12641     12643
     12641     12644     12644     12645     12644     12646     12644     12647
     12595     12596     12596     12598     12596     12597     12598     12599
     12598     12600     12598     12648     12648     12649     12648     12650
     12648     12651     12651     12652     12651     12653     12651     12654
     12654     12655     12654     12656     12654     12657     12657     12658
     12657     12659     12657     12660     12660     12661     12660     12662
     12660     12663     12663     12664     12663     12665     12663     12666
     12666     12667     12666     12668     12666     12669     12669     12670
     12669     12671     12669     12672     12672     12673     12672     12674
     12672     12675     12675     12676     12675     12677     12675     12678
     12678     12679     12678     12680     12678     12681     12681     12682
     12681     12683     12681     12684     12684     12685     12684     12686
     12684     12687     12687     12688     12687     12689     12687     12690
     12691     12692     12691     12693     12691     12694     12691     12695
     12695     12696     12695     12697     12695     12698     12698     12699
     12698     12700     12698     12705     12705     12701     12701     12704
     12701     12702     12701     12703     12706     12707     12706     12708
     12706     12709     12706     12704     12709     12710     12709     12717
     12709     12711     12717     12718     12717     12719     12717     12720
     12711     12712     12712     12714     12712     12713     12714     12715
     12714     12716     12714     12726     12726     12727     12726     12728
     12726     12729     12729     12730     12729     12731     12729     12732
     12732     12733     12732     12734     12732     12735     12735     12736
     12735     12737     12735     12738     12738     12739     12738     12740
     12738     12741     12741     12742     12741     12743     12741     12744
     12744     12745     12744     12746     12746     12747     12746     12748
     12748     12749     12748     12750     12748     12751     12751     12752
     12751     12753     12751     12754     12754     12755     12754     12756
     12754     12757     12757     12758     12757     12759     12757     12760
     12760     12761     12760     12762     12760     12763     12763     12764
     12763     12765     12763     12766     12766     12767     12766     12768
     12766     12769     12769     12770     12769     12771     12769     12772
     12720     12721     12721     12723     12721     12722     12723     12724
     12723     12725     12723     12773     12773     12774     12773     12775
     12773     12776     12776     12777     12776     12778     12776     12779
     12779     12780     12779     12781     12779     12782     12782     12783
     12782     12784     12782     12785     12785     12786     12785     12787
     12785     12788     12788     12789     12788     12790     12788     12791
     12791     12792     12791     12793     12791     12794     12794     12795
     12794     12796     12794     12797     12797     12798     12797     12799
     12797     12800     12800     12801     12800     12802     12800     12803
     12803     12804     12803     12805     12803     12806     12806     12807
     12806     12808     12806     12809     12809     12810     12809     12811
     12809     12812     12812     12813     12812     12814     12812     12815
     12816     12820     12816     12824     12816     12828     12820     12821
     12820     12822     12820     12823     12824     12825     12824     12826
     12824     12827     12828     12829     12828     12830     12828     12831
     12816     12817     12817     12818     12817     12819     12817     12832
     12832     12833     12832     12834     12832     12838     12839     12840
     12838     12835     12835     12839     12835     12836     12835     12837
     12840     12841     12840     12842     12840     12843     12843     12844
     12843     12851     12843     12845     12851     12852     12851     12853
     12851     12854     12845     12846     12846     12848     12846     12847
     12848     12849     12848     12850     12848     12860     12860     12861
     12860     12862     12860     12863     12863     12864     12863     12865
     12863     12866     12866     12867     12866     12868     12866     12869
     12869     12870     12869     12871     12869     12872     12872     12873
     12872     12874     12872     12875     12875     12876     12875     12877
     12875     12878     12878     12879     12878     12880     12880     12881
     12880     12882     12882     12883     12882     12884     12882     12885
     12885     12886     12885     12887     12885     12888     12888     12889
     12888     12890     12888     12891     12891     12892     12891     12893
     12891     12894     12894     12895     12894     12896     12894     12897
     12897     12898     12897     12899     12897     12900     12900     12901
     12900     12902     12900     12903     12903     12904     12903     12905
     12903     12906     12854     12855     12855     12857     12855     12856
     12857     12858     12857     12859     12857     12907     12907     12908
     12907     12909     12907     12910     12910     12911     12910     12912
     12910     12913     12913     12914     12913     12915     12913     12916
     12916     12917     12916     12918     12916     12919     12919     12920
     12919     12921     12919     12922     12922     12923     12922     12924
     12922     12925     12925     12926     12925     12927     12925     12928
     12928     12929     12928     12930     12928     12931     12931     12932
     12931     12933     12931     12934     12934     12935     12934     12936
     12934     12937     12937     12938     12937     12939     12937     12940
     12940     12941     12940     12942     12940     12943     12943     12944
     12943     12945     12943     12946     12946     12947     12946     12948
     12946     12949     12950     12951     12950     12952     12950     12953
     12950     12954     12954     12955     12954     12956     12954     12957
     12957     12958     12957     12959     12957     12964     12964     12960
     12960     12963     12960     12961     12960     12962     12965     12966
     12965     12967     12965     12968     12965     12963     12968     12969
     12968     12976     12968     12970     12976     12977     12976     12978
     12976     12979     12970     12971     12971     12973     12971     12972
     12973     12974     12973     12975     12973     12985     12985     12986
     12985     12987     12985     12988     12988     12989     12988     12990
     12988     12991     12991     12992     12991     12993     12991     12994
     12994     12995     12994     12996     12994     12997     12997     12998
     12997     12999     12997     13000     13000     13001     13000     13002
     13000     13003     13003     13004     13003     13005     13005     13006
     13005     13007     13007     13008     13007     13009     13007     13010
     13010     13011     13010     13012     13010     13013     13013     13014
     13013     13015     13013     13016     13016     13017     13016     13018
     13016     13019     13019     13020     13019     13021     13019     13022
     13022     13023     13022     13024     13022     13025     13025     13026
     13025     13027     13025     13028     13028     13029     13028     13030
     13028     13031     12979     12980     12980     12982     12980     12981
     12982     12983     12982     12984     12982     13032     13032     13033
     13032     13034     13032     13035     13035     13036     13035     13037
     13035     13038     13038     13039     13038     13040     13038     13041
     13041     13042     13041     13043     13041     13044     13044     13045
     13044     13046     13044     13047     13047     13048     13047     13049
     13047     13050     13050     13051     13050     13052     13050     13053
     13053     13054     13053     13055     13053     13056     13056     13057
     13056     13058     13056     13059     13059     13060     13059     13061
     13059     13062     13062     13063     13062     13064     13062     13065
     13065     13066     13065     13067     13065     13068     13068     13069
     13068     13070     13068     13071     13071     13072     13071     13073
     13071     13074     13075     13076     13075     13077     13075     13078
     13075     13079     13079     13080     13079     13081     13079     13082
     13082     13083     13082     13084     13082     13089     13089     13085
     13085     13088     13085     13086     13085     13087     13090     13091
     13090     13092     13090     13093     13090     13088     13093     13094
     13093     13101     13093     13095     13101     13102     13101     13103
     13101     13104     13095     13096     13096     13098     13096     13097
     13098     13099     13098     13100     13098     13110     13110     13111
     13110     13112     13110     13113     13113     13114     13113     13115
     13113     13116     13116     13117     13116     13118     13116     13119
     13119     13120     13119     13121     13119     13122     13122     13123
     13122     13124     13122     13125     13125     13126     13125     13127
     13125     13128     13128     13129     13128     13130     13130     13131
     13130     13132     13132     13133     13132     13134     13132     13135
     13135     13136     13135     13137     13135     13138     13138     13139
     13138     13140     13138     13141     13141     13142     13141     13143
     13141     13144     13144     13145     13144     13146     13144     13147
     13147     13148     13147     13149     13147     13150     13150     13151
     13150     13152     13150     13153     13153     13154     13153     13155
     13153     13156     13104     13105     13105     13107     13105     13106
     13107     13108     13107     13109     13107     13157     13157     13158
     13157     13159     13157     13160     13160     13161     13160     13162
     13160     13163     13163     13164     13163     13165     13163     13166
     13166     13167     13166     13168     13166     13169     13169     13170
     13169     13171     13169     13172     13172     13173     13172     13174
     13172     13175     13175     13176     13175     13177     13175     13178
     13178     13179     13178     13180     13178     13181     13181     13182
     13181     13183     13181     13184     13184     13185     13184     13186
     13184     13187     13187     13188     13187     13189     13187     13190
     13190     13191     13190     13192     13190     13193     13193     13194
     13193     13195     13193     13196     13196     13197     13196     13198
     13196     13199     13200     13204     13200     13208     13200     13212
     13204     13205     13204     13206     13204     13207     13208     13209
     13208     13210     13208     13211     13212     13213     13212     13214
     13212     13215     13200     13201     13201     13202     13201     13203
     13201     13216     13216     13217     13216     13218     13216     13222
     13223     13224     13222     13219     13219     13223     13219     13220
     13219     13221     13224     13225     13224     13226     13224     13227
     13227     13228     13227     13235     13227     13229     13235     13236
     13235     13237     13235     13238     13229     13230     13230     13232
     13230     13231     13232     13233     13232     13234     13232     13244
     13244     13245     13244     13246     13244     13247     13247     13248
     13247     13249     13247     13250     13250     13251     13250     13252
     13250     13253     13253     13254     13253     13255     13253     13256
     13256     13257     13256     13258     13256     13259     13259     13260
     13259     13261     13259     13262     13262     13263     13262     13264
     13264     13265     13264     13266     13266     13267     13266     13268
     13266     13269     13269     13270     13269     13271     13269     13272
     13272     13273     13272     13274     13272     13275     13275     13276
     13275     13277     13275     13278     13278     13279     13278     13280
     13278     13281     13281     13282     13281     13283     13281     13284
     13284     13285     13284     13286     13284     13287     13287     13288
     13287     13289     13287     13290     13238     13239     13239     13241
     13239     13240     13241     13242     13241     13243     13241     13291
     13291     13292     13291     13293     13291     13294     13294     13295
     13294     13296     13294     13297     13297     13298     13297     13299
     13297     13300     13300     13301     13300     13302     13300     13303
     13303     13304     13303     13305     13303     13306     13306     13307
     13306     13308     13306     13309     13309     13310     13309     13311
     13309     13312     13312     13313     13312     13314     13312     13315
     13315     13316     13315     13317     13315     13318     13318     13319
     13318     13320     13318     13321     13321     13322     13321     13323
     13321     13324     13324     13325     13324     13326     13324     13327
     13327     13328     13327     13329     13327     13330     13330     13331
     13330     13332     13330     13333     13334     13335     13334     13336
     13334     13337     13334     13338     13338     13339     13338     13340
     13338     13341     13341     13342     13341     13343     13341     13348
     13348     13344     13344     13347     13344     13345     13344     13346
     13349     13350     13349     13351     13349     13352     13349     13347
     13352     13353     13352     13360     13352     13354     13360     13361
     13360     13362     13360     13363     13354     13355     13355     13357
     13355     13356     13357     13358     13357     13359     13357     13369
     13369     13370     13369     13371     13369     13372     13372     13373
     13372     13374     13372     13375     13375     13376     13375     13377
     13375     13378     13378     13379     13378     13380     13378     13381
     13381     13382     13381     13383     13381     13384     13384     13385
     13384     13386     13384     13387     13387     13388     13387     13389
     13389     13390     13389     13391     13391     13392     13391     13393
     13391     13394     13394     13395     13394     13396     13394     13397
     13397     13398     13397     13399     13397     13400     13400     13401
     13400     13402     13400     13403     13403     13404     13403     13405
     13403     13406     13406     13407     13406     13408     13406     13409
     13409     13410     13409     13411     13409     13412     13412     13413
     13412     13414     13412     13415     13363     13364     13364     13366
     13364     13365     13366     13367     13366     13368     13366     13416
     13416     13417     13416     13418     13416     13419     13419     13420
     13419     13421     13419     13422     13422     13423     13422     13424
     13422     13425     13425     13426     13425     13427     13425     13428
     13428     13429     13428     13430     13428     13431     13431     13432
     13431     13433     13431     13434     13434     13435     13434     13436
     13434     13437     13437     13438     13437     13439     13437     13440
     13440     13441     13440     13442     13440     13443     13443     13444
     13443     13445     13443     13446     13446     13447     13446     13448
     13446     13449     13449     13450     13449     13451     13449     13452
     13452     13453     13452     13454     13452     13455     13455     13456
     13455     13457     13455     13458     13459     13460     13459     13461
     13459     13462     13459     13463     13463     13464     13463     13465
     13463     13466     13466     13467     13466     13468     13466     13473
     13473     13469     13469     13472     13469     13470     13469     13471
     13474     13475     13474     13476     13474     13477     13474     13472
     13477     13478     13477     13485     13477     13479     13485     13486
     13485     13487     13485     13488     13479     13480     13480     13482
     13480     13481     13482     13483     13482     13484     13482     13494
     13494     13495     13494     13496     13494     13497     13497     13498
     13497     13499     13497     13500     13500     13501     13500     13502
     13500     13503     13503     13504     13503     13505     13503     13506
     13506     13507     13506     13508     13506     13509     13509     13510
     13509     13511     13509     13512     13512     13513     13512     13514
     13514     13515     13514     13516     13516     13517     13516     13518
     13516     13519     13519     13520     13519     13521     13519     13522
     13522     13523     13522     13524     13522     13525     13525     13526
     13525     13527     13525     13528     13528     13529     13528     13530
     13528     13531     13531     13532     13531     13533     13531     13534
     13534     13535     13534     13536     13534     13537     13537     13538
     13537     13539     13537     13540     13488     13489     13489     13491
     13489     13490     13491     13492     13491     13493     13491     13541
     13541     13542     13541     13543     13541     13544     13544     13545
     13544     13546     13544     13547     13547     13548     13547     13549
     13547     13550     13550     13551     13550     13552     13550     13553
     13553     13554     13553     13555     13553     13556     13556     13557
     13556     13558     13556     13559     13559     13560     13559     13561
     13559     13562     13562     13563     13562     13564     13562     13565
     13565     13566     13565     13567     13565     13568     13568     13569
     13568     13570     13568     13571     13571     13572     13571     13573
     13571     13574     13574     13575     13574     13576     13574     13577
     13577     13578     13577     13579     13577     13580     13580     13581
     13580     13582     13580     13583     13584     13585     13584     13586
     13584     13587     13584     13588     13588     13589     13588     13590
     13588     13591     13591     13592     13591     13593     13591     13598
     13598     13594     13594     13597     13594     13595     13594     13596
     13599     13600     13599     13601     13599     13602     13599     13597
     13602     13603     13602     13610     13602     13604     13610     13611
     13610     13612     13610     13613     13604     13605     13605     13607
     13605     13606     13607     13608     13607     13609     13607     13619
     13619     13620     13619     13621     13619     13622     13622     13623
     13622     13624     13622     13625     13625     13626     13625     13627
     13625     13628     13628     13629     13628     13630     13628     13631
     13631     13632     13631     13633     13631     13634     13634     13635
     13634     13636     13634     13637     13637     13638     13637     13639
     13639     13640     13639     13641     13641     13642     13641     13643
     13641     13644     13644     13645     13644     13646     13644     13647
     13647     13648     13647     13649     13647     13650     13650     13651
     13650     13652     13650     13653     13653     13654     13653     13655
     13653     13656     13656     13657     13656     13658     13656     13659
     13659     13660     13659     13661     13659     13662     13662     13663
     13662     13664     13662     13665     13613     13614     13614     13616
     13614     13615     13616     13617     13616     13618     13616     13666
     13666     13667     13666     13668     13666     13669     13669     13670
     13669     13671     13669     13672     13672     13673     13672     13674
     13672     13675     13675     13676     13675     13677     13675     13678
     13678     13679     13678     13680     13678     13681     13681     13682
     13681     13683     13681     13684     13684     13685     13684     13686
     13684     13687     13687     13688     13687     13689     13687     13690
     13690     13691     13690     13692     13690     13693     13693     13694
     13693     13695     13693     13696     13696     13697     13696     13698
     13696     13699     13699     13700     13699     13701     13699     13702
     13702     13703     13702     13704     13702     13705     13705     13706
     13705     13707     13705     13708     13709     13710     13709     13711
     13709     13712     13709     13713     13713     13714     13713     13715
     13713     13716     13716     13717     13716     13718     13716     13723
     13723     13719     13719     13722     13719     13720     13719     13721
     13724     13725     13724     13726     13724     13727     13724     13722
     13727     13728     13727     13735     13727     13729     13735     13736
     13735     13737     13735     13738     13729     13730     13730     13732
     13730     13731     13732     13733     13732     13734     13732     13744
     13744     13745     13744     13746     13744     13747     13747     13748
     13747     13749     13747     13750     13750     13751     13750     13752
     13750     13753     13753     13754     13753     13755     13753     13756
     13756     13757     13756     13758     13756     13759     13759     13760
     13759     13761     13759     13762     13762     13763     13762     13764
     13764     13765     13764     13766     13766     13767     13766     13768
     13766     13769     13769     13770     13769     13771     13769     13772
     13772     13773     13772     13774     13772     13775     13775     13776
     13775     13777     13775     13778     13778     13779     13778     13780
     13778     13781     13781     13782     13781     13783     13781     13784
     13784     13785     13784     13786     13784     13787     13787     13788
     13787     13789     13787     13790     13738     13739     13739     13741
     13739     13740     13741     13742     13741     13743     13741     13791
     13791     13792     13791     13793     13791     13794     13794     13795
     13794     13796     13794     13797     13797     13798     13797     13799
     13797     13800     13800     13801     13800     13802     13800     13803
     13803     13804     13803     13805     13803     13806     13806     13807
     13806     13808     13806     13809     13809     13810     13809     13811
     13809     13812     13812     13813     13812     13814     13812     13815
     13815     13816     13815     13817     13815     13818     13818     13819
     13818     13820     13818     13821     13821     13822     13821     13823
     13821     13824     13824     13825     13824     13826     13824     13827
     13827     13828     13827     13829     13827     13830     13830     13831
     13830     13832     13830     13833     13834     13835     13834     13836
     13834     13837     13834     13838     13838     13839     13838     13840
     13838     13841     13841     13842     13841     13843     13841     13848
     13848     13844     13844     13847     13844     13845     13844     13846
     13849     13850     13849     13851     13849     13852     13849     13847
     13852     13853     13852     13860     13852     13854     13860     13861
     13860     13862     13860     13863     13854     13855     13855     13857
     13855     13856     13857     13858     13857     13859     13857     13869
     13869     13870     13869     13871     13869     13872     13872     13873
     13872     13874     13872     13875     13875     13876     13875     13877
     13875     13878     13878     13879     13878     13880     13878     13881
     13881     13882     13881     13883     13881     13884     13884     13885
     13884     13886     13884     13887     13887     13888     13887     13889
     13889     13890     13889     13891     13891     13892     13891     13893
     13891     13894     13894     13895     13894     13896     13894     13897
     13897     13898     13897     13899     13897     13900     13900     13901
     13900     13902     13900     13903     13903     13904     13903     13905
     13903     13906     13906     13907     13906     13908     13906     13909
     13909     13910     13909     13911     13909     13912     13912     13913
     13912     13914     13912     13915     13863     13864     13864     13866
     13864     13865     13866     13867     13866     13868     13866     13916
     13916     13917     13916     13918     13916     13919     13919     13920
     13919     13921     13919     13922     13922     13923     13922     13924
     13922     13925     13925     13926     13925     13927     13925     13928
     13928     13929     13928     13930     13928     13931     13931     13932
     13931     13933     13931     13934     13934     13935     13934     13936
     13934     13937     13937     13938     13937     13939     13937     13940
     13940     13941     13940     13942     13940     13943     13943     13944
     13943     13945     13943     13946     13946     13947     13946     13948
     13946     13949     13949     13950     13949     13951     13949     13952
     13952     13953     13952     13954     13952     13955     13955     13956
     13955     13957     13955     13958     13959     13960     13959     13961
     13959     13962     13959     13963     13963     13964     13963     13965
     13963     13966     13966     13967     13966     13968     13966     13973
     13973     13969     13969     13972     13969     13970     13969     13971
     13974     13975     13974     13976     13974     13977     13974     13972
     13977     13978     13977     13985     13977     13979     13985     13986
     13985     13987     13985     13988     13979     13980     13980     13982
     13980     13981     13982     13983     13982     13984     13982     13994
     13994     13995     13994     13996     13994     13997     13997     13998
     13997     13999     13997     14000     14000     14001     14000     14002
     14000     14003     14003     14004     14003     14005     14003     14006
     14006     14007     14006     14008     14006     14009     14009     14010
     14009     14011     14009     14012     14012     14013     14012     14014
     14014     14015     14014     14016     14016     14017     14016     14018
     14016     14019     14019     14020     14019     14021     14019     14022
     14022     14023     14022     14024     14022     14025     14025     14026
     14025     14027     14025     14028     14028     14029     14028     14030
     14028     14031     14031     14032     14031     14033     14031     14034
     14034     14035     14034     14036     14034     14037     14037     14038
     14037     14039     14037     14040     13988     13989     13989     13991
     13989     13990     13991     13992     13991     13993     13991     14041
     14041     14042     14041     14043     14041     14044     14044     14045
     14044     14046     14044     14047     14047     14048     14047     14049
     14047     14050     14050     14051     14050     14052     14050     14053
     14053     14054     14053     14055     14053     14056     14056     14057
     14056     14058     14056     14059     14059     14060     14059     14061
     14059     14062     14062     14063     14062     14064     14062     14065
     14065     14066     14065     14067     14065     14068     14068     14069
     14068     14070     14068     14071     14071     14072     14071     14073
     14071     14074     14074     14075     14074     14076     14074     14077
     14077     14078     14077     14079     14077     14080     14080     14081
     14080     14082     14080     14083     14084     14085     14084     14086
     14084     14087     14084     14088     14088     14089     14088     14090
     14088     14091     14091     14092     14091     14093     14091     14098
     14098     14094     14094     14097     14094     14095     14094     14096
     14099     14100     14099     14101     14099     14102     14099     14097
     14102     14103     14102     14110     14102     14104     14110     14111
     14110     14112     14110     14113     14104     14105     14105     14107
     14105     14106     14107     14108     14107     14109     14107     14119
     14119     14120     14119     14121     14119     14122     14122     14123
     14122     14124     14122     14125     14125     14126     14125     14127
     14125     14128     14128     14129     14128     14130     14128     14131
     14131     14132     14131     14133     14131     14134     14134     14135
     14134     14136     14134     14137     14137     14138     14137     14139
     14139     14140     14139     14141     14141     14142     14141     14143
     14141     14144     14144     14145     14144     14146     14144     14147
     14147     14148     14147     14149     14147     14150     14150     14151
     14150     14152     14150     14153     14153     14154     14153     14155
     14153     14156     14156     14157     14156     14158     14156     14159
     14159     14160     14159     14161     14159     14162     14162     14163
     14162     14164     14162     14165     14113     14114     14114     14116
     14114     14115     14116     14117     14116     14118     14116     14166
     14166     14167     14166     14168     14166     14169     14169     14170
     14169     14171     14169     14172     14172     14173     14172     14174
     14172     14175     14175     14176     14175     14177     14175     14178
     14178     14179     14178     14180     14178     14181     14181     14182
     14181     14183     14181     14184     14184     14185     14184     14186
     14184     14187     14187     14188     14187     14189     14187     14190
     14190     14191     14190     14192     14190     14193     14193     14194
     14193     14195     14193     14196     14196     14197     14196     14198
     14196     14199     14199     14200     14199     14201     14199     14202
     14202     14203     14202     14204     14202     14205     14205     14206
     14205     14207     14205     14208     14209     14210     14209     14211
     14209     14212     14209     14213     14213     14214     14213     14215
     14213     14216     14216     14217     14216     14218     14216     14223
     14223     14219     14219     14222     14219     14220     14219     14221
     14224     14225     14224     14226     14224     14227     14224     14222
     14227     14228     14227     14235     14227     14229     14235     14236
     14235     14237     14235     14238     14229     14230     14230     14232
     14230     14231     14232     14233     14232     14234     14232     14244
     14244     14245     14244     14246     14244     14247     14247     14248
     14247     14249     14247     14250     14250     14251     14250     14252
     14250     14253     14253     14254     14253     14255     14253     14256
     14256     14257     14256     14258     14256     14259     14259     14260
     14259     14261     14259     14262     14262     14263     14262     14264
     14264     14265     14264     14266     14266     14267     14266     14268
     14266     14269     14269     14270     14269     14271     14269     14272
     14272     14273     14272     14274     14272     14275     14275     14276
     14275     14277     14275     14278     14278     14279     14278     14280
     14278     14281     14281     14282     14281     14283     14281     14284
     14284     14285     14284     14286     14284     14287     14287     14288
     14287     14289     14287     14290     14238     14239     14239     14241
     14239     14240     14241     14242     14241     14243     14241     14291
     14291     14292     14291     14293     14291     14294     14294     14295
     14294     14296     14294     14297     14297     14298     14297     14299
     14297     14300     14300     14301     14300     14302     14300     14303
     14303     14304     14303     14305     14303     14306     14306     14307
     14306     14308     14306     14309     14309     14310     14309     14311
     14309     14312     14312     14313     14312     14314     14312     14315
     14315     14316     14315     14317     14315     14318     14318     14319
     14318     14320     14318     14321     14321     14322     14321     14323
     14321     14324     14324     14325     14324     14326     14324     14327
     14327     14328     14327     14329     14327     14330     14330     14331
     14330     14332     14330     14333     14334     14335     14334     14336
     14334     14337     14334     14338     14338     14339     14338     14340
     14338     14341     14341     14342     14341     14343     14341     14348
     14348     14344     14344     14347     14344     14345     14344     14346
     14349     14350     14349     14351     14349     14352     14349     14347
     14352     14353     14352     14360     14352     14354     14360     14361
     14360     14362     14360     14363     14354     14355     14355     14357
     14355     14356     14357     14358     14357     14359     14357     14369
     14369     14370     14369     14371     14369     14372     14372     14373
     14372     14374     14372     14375     14375     14376     14375     14377
     14375     14378     14378     14379     14378     14380     14378     14381
     14381     14382     14381     14383     14381     14384     14384     14385
     14384     14386     14384     14387     14387     14388     14387     14389
     14389     14390     14389     14391     14391     14392     14391     14393
     14391     14394     14394     14395     14394     14396     14394     14397
     14397     14398     14397     14399     14397     14400     14400     14401
     14400     14402     14400     14403     14403     14404     14403     14405
     14403     14406     14406     14407     14406     14408     14406     14409
     14409     14410     14409     14411     14409     14412     14412     14413
     14412     14414     14412     14415     14363     14364     14364     14366
     14364     14365     14366     14367     14366     14368     14366     14416
     14416     14417     14416     14418     14416     14419     14419     14420
     14419     14421     14419     14422     14422     14423     14422     14424
     14422     14425     14425     14426     14425     14427     14425     14428
     14428     14429     14428     14430     14428     14431     14431     14432
     14431     14433     14431     14434     14434     14435     14434     14436
     14434     14437     14437     14438     14437     14439     14437     14440
     14440     14441     14440     14442     14440     14443     14443     14444
     14443     14445     14443     14446     14446     14447     14446     14448
     14446     14449     14449     14450     14449     14451     14449     14452
     14452     14453     14452     14454     14452     14455     14455     14456
     14455     14457     14455     14458     14459     14460     14459     14461
     14459     14462     14459     14463     14463     14464     14463     14465
     14463     14466     14466     14467     14466     14468     14466     14473
     14473     14469     14469     14472     14469     14470     14469     14471
     14474     14475     14474     14476     14474     14477     14474     14472
     14477     14478     14477     14485     14477     14479     14485     14486
     14485     14487     14485     14488     14479     14480     14480     14482
     14480     14481     14482     14483     14482     14484     14482     14494
     14494     14495     14494     14496     14494     14497     14497     14498
     14497     14499     14497     14500     14500     14501     14500     14502
     14500     14503     14503     14504     14503     14505     14503     14506
     14506     14507     14506     14508     14506     14509     14509     14510
     14509     14511     14509     14512     14512     14513     14512     14514
     14514     14515     14514     14516     14516     14517     14516     14518
     14516     14519     14519     14520     14519     14521     14519     14522
     14522     14523     14522     14524     14522     14525     14525     14526
     14525     14527     14525     14528     14528     14529     14528     14530
     14528     14531     14531     14532     14531     14533     14531     14534
     14534     14535     14534     14536     14534     14537     14537     14538
     14537     14539     14537     14540     14488     14489     14489     14491
     14489     14490     14491     14492     14491     14493     14491     14541
     14541     14542     14541     14543     14541     14544     14544     14545
     14544     14546     14544     14547     14547     14548     14547     14549
     14547     14550     14550     14551     14550     14552     14550     14553
     14553     14554     14553     14555     14553     14556     14556     14557
     14556     14558     14556     14559     14559     14560     14559     14561
     14559     14562     14562     14563     14562     14564     14562     14565
     14565     14566     14565     14567     14565     14568     14568     14569
     14568     14570     14568     14571     14571     14572     14571     14573
     14571     14574     14574     14575     14574     14576     14574     14577
     14577     14578     14577     14579     14577     14580     14580     14581
     14580     14582     14580     14583     14584     14588     14584     14592
     14584     14596     14588     14589     14588     14590     14588     14591
     14592     14593     14592     14594     14592     14595     14596     14597
     14596     14598     14596     14599     14584     14585     14585     14586
     14585     14587     14585     14600     14600     14601     14600     14602
     14600     14606     14607     14608     14606     14603     14603     14607
     14603     14604     14603     14605     14608     14609     14608     14610
     14608     14611     14611     14612     14611     14619     14611     14613
     14619     14620     14619     14621     14619     14622     14613     14614
     14614     14616     14614     14615     14616     14617     14616     14618
     14616     14628     14628     14629     14628     14630     14628     14631
     14631     14632     14631     14633     14631     14634     14634     14635
     14634     14636     14634     14637     14637     14638     14637     14639
     14637     14640     14640     14641     14640     14642     14640     14643
     14643     14644     14643     14645     14643     14646     14646     14647
     14646     14648     14648     14649     14648     14650     14650     14651
     14650     14652     14650     14653     14653     14654     14653     14655
     14653     14656     14656     14657     14656     14658     14656     14659
     14659     14660     14659     14661     14659     14662     14662     14663
     14662     14664     14662     14665     14665     14666     14665     14667
     14665     14668     14668     14669     14668     14670     14668     14671
     14671     14672     14671     14673     14671     14674     14622     14623
     14623     14625     14623     14624     14625     14626     14625     14627
     14625     14675     14675     14676     14675     14677     14675     14678
     14678     14679     14678     14680     14678     14681     14681     14682
     14681     14683     14681     14684     14684     14685     14684     14686
     14684     14687     14687     14688     14687     14689     14687     14690
     14690     14691     14690     14692     14690     14693     14693     14694
     14693     14695     14693     14696     14696     14697     14696     14698
     14696     14699     14699     14700     14699     14701     14699     14702
     14702     14703     14702     14704     14702     14705     14705     14706
     14705     14707     14705     14708     14708     14709     14708     14710
     14708     14711     14711     14712     14711     14713     14711     14714
     14714     14715     14714     14716     14714     14717     14718     14719
     14718     14720     14718     14721     14718     14722     14722     14723
     14722     14724     14722     14725     14725     14726     14725     14727
     14725     14732     14732     14728     14728     14731     14728     14729
     14728     14730     14733     14734     14733     14735     14733     14736
     14733     14731     14736     14737     14736     14744     14736     14738
     14744     14745     14744     14746     14744     14747     14738     14739
     14739     14741     14739     14740     14741     14742     14741     14743
     14741     14753     14753     14754     14753     14755     14753     14756
     14756     14757     14756     14758     14756     14759     14759     14760
     14759     14761     14759     14762     14762     14763     14762     14764
     14762     14765     14765     14766     14765     14767     14765     14768
     14768     14769     14768     14770     14768     14771     14771     14772
     14771     14773     14773     14774     14773     14775     14775     14776
     14775     14777     14775     14778     14778     14779     14778     14780
     14778     14781     14781     14782     14781     14783     14781     14784
     14784     14785     14784     14786     14784     14787     14787     14788
     14787     14789     14787     14790     14790     14791     14790     14792
     14790     14793     14793     14794     14793     14795     14793     14796
     14796     14797     14796     14798     14796     14799     14747     14748
     14748     14750     14748     14749     14750     14751     14750     14752
     14750     14800     14800     14801     14800     14802     14800     14803
     14803     14804     14803     14805     14803     14806     14806     14807
     14806     14808     14806     14809     14809     14810     14809     14811
     14809     14812     14812     14813     14812     14814     14812     14815
     14815     14816     14815     14817     14815     14818     14818     14819
     14818     14820     14818     14821     14821     14822     14821     14823
     14821     14824     14824     14825     14824     14826     14824     14827
     14827     14828     14827     14829     14827     14830     14830     14831
     14830     14832     14830     14833     14833     14834     14833     14835
     14833     14836     14836     14837     14836     14838     14836     14839
     14839     14840     14839     14841     14839     14842     14843     14847
     14843     14851     14843     14855     14847     14848     14847     14849
     14847     14850     14851     14852     14851     14853     14851     14854
     14855     14856     14855     14857     14855     14858     14843     14844
     14844     14845     14844     14846     14844     14859     14859     14860
     14859     14861     14859     14865     14866     14867     14865     14862
     14862     14866     14862     14863     14862     14864     14867     14868
     14867     14869     14867     14870     14870     14871     14870     14878
     14870     14872     14878     14879     14878     14880     14878     14881
     14872     14873     14873     14875     14873     14874     14875     14876
     14875     14877     14875     14887     14887     14888     14887     14889
     14887     14890     14890     14891     14890     14892     14890     14893
     14893     14894     14893     14895     14893     14896     14896     14897
     14896     14898     14896     14899     14899     14900     14899     14901
     14899     14902     14902     14903     14902     14904     14902     14905
     14905     14906     14905     14907     14907     14908     14907     14909
     14909     14910     14909     14911     14909     14912     14912     14913
     14912     14914     14912     14915     14915     14916     14915     14917
     14915     14918     14918     14919     14918     14920     14918     14921
     14921     14922     14921     14923     14921     14924     14924     14925
     14924     14926     14924     14927     14927     14928     14927     14929
     14927     14930     14930     14931     14930     14932     14930     14933
     14881     14882     14882     14884     14882     14883     14884     14885
     14884     14886     14884     14934     14934     14935     14934     14936
     14934     14937     14937     14938     14937     14939     14937     14940
     14940     14941     14940     14942     14940     14943     14943     14944
     14943     14945     14943     14946     14946     14947     14946     14948
     14946     14949     14949     14950     14949     14951     14949     14952
     14952     14953     14952     14954     14952     14955     14955     14956
     14955     14957     14955     14958     14958     14959     14958     14960
     14958     14961     14961     14962     14961     14963     14961     14964
     14964     14965     14964     14966     14964     14967     14967     14968
     14967     14969     14967     14970     14970     14971     14970     14972
     14970     14973     14973     14974     14973     14975     14973     14976
     14977     14981     14977     14985     14977     14989     14981     14982
     14981     14983     14981     14984     14985     14986     14985     14987
     14985     14988     14989     14990     14989     14991     14989     14992
     14977     14978     14978     14979     14978     14980     14978     14993
     14993     14994     14993     14995     14993     14999     15000     15001
     14999     14996     14996     15000     14996     14997     14996     14998
     15001     15002     15001     15003     15001     15004     15004     15005
     15004     15012     15004     15006     15012     15013     15012     15014
     15012     15015     15006     15007     15007     15009     15007     15008
     15009     15010     15009     15011     15009     15021     15021     15022
     15021     15023     15021     15024     15024     15025     15024     15026
     15024     15027     15027     15028     15027     15029     15027     15030
     15030     15031     15030     15032     15030     15033     15033     15034
     15033     15035     15033     15036     15036     15037     15036     15038
     15036     15039     15039     15040     15039     15041     15041     15042
     15041     15043     15043     15044     15043     15045     15043     15046
     15046     15047     15046     15048     15046     15049     15049     15050
     15049     15051     15049     15052     15052     15053     15052     15054
     15052     15055     15055     15056     15055     15057     15055     15058
     15058     15059     15058     15060     15058     15061     15061     15062
     15061     15063     15061     15064     15064     15065     15064     15066
     15064     15067     15015     15016     15016     15018     15016     15017
     15018     15019     15018     15020     15018     15068     15068     15069
     15068     15070     15068     15071     15071     15072     15071     15073
     15071     15074     15074     15075     15074     15076     15074     15077
     15077     15078     15077     15079     15077     15080     15080     15081
     15080     15082     15080     15083     15083     15084     15083     15085
     15083     15086     15086     15087     15086     15088     15086     15089
     15089     15090     15089     15091     15089     15092     15092     15093
     15092     15094     15092     15095     15095     15096     15095     15097
     15095     15098     15098     15099     15098     15100     15098     15101
     15101     15102     15101     15103     15101     15104     15104     15105
     15104     15106     15104     15107     15107     15108     15107     15109
     15107     15110     15111     15112     15111     15113     15111     15114
     15111     15115     15115     15116     15115     15117     15115     15118
     15118     15119     15118     15120     15118     15125     15125     15121
     15121     15124     15121     15122     15121     15123     15126     15127
     15126     15128     15126     15129     15126     15124     15129     15130
     15129     15137     15129     15131     15137     15138     15137     15139
     15137     15140     15131     15132     15132     15134     15132     15133
     15134     15135     15134     15136     15134     15146     15146     15147
     15146     15148     15146     15149     15149     15150     15149     15151
     15149     15152     15152     15153     15152     15154     15152     15155
     15155     15156     15155     15157     15155     15158     15158     15159
     15158     15160     15158     15161     15161     15162     15161     15163
     15161     15164     15164     15165     15164     15166     15166     15167
     15166     15168     15168     15169     15168     15170     15168     15171
     15171     15172     15171     15173     15171     15174     15174     15175
     15174     15176     15174     15177     15177     15178     15177     15179
     15177     15180     15180     15181     15180     15182     15180     15183
     15183     15184     15183     15185     15183     15186     15186     15187
     15186     15188     15186     15189     15189     15190     15189     15191
     15189     15192     15140     15141     15141     15143     15141     15142
     15143     15144     15143     15145     15143     15193     15193     15194
     15193     15195     15193     15196     15196     15197     15196     15198
     15196     15199     15199     15200     15199     15201     15199     15202
     15202     15203     15202     15204     15202     15205     15205     15206
     15205     15207     15205     15208     15208     15209     15208     15210
     15208     15211     15211     15212     15211     15213     15211     15214
     15214     15215     15214     15216     15214     15217     15217     15218
     15217     15219     15217     15220     15220     15221     15220     15222
     15220     15223     15223     15224     15223     15225     15223     15226
     15226     15227     15226     15228     15226     15229     15229     15230
     15229     15231     15229     15232     15232     15233     15232     15234
     15232     15235     15236     15237     15236     15238     15236     15239
     15236     15240     15240     15241     15240     15242     15240     15243
     15243     15244     15243     15245     15243     15250     15250     15246
     15246     15249     15246     15247     15246     15248     15251     15252
     15251     15253     15251     15254     15251     15249     15254     15255
     15254     15262     15254     15256     15262     15263     15262     15264
     15262     15265     15256     15257     15257     15259     15257     15258
     15259     15260     15259     15261     15259     15271     15271     15272
     15271     15273     15271     15274     15274     15275     15274     15276
     15274     15277     15277     15278     15277     15279     15277     15280
     15280     15281     15280     15282     15280     15283     15283     15284
     15283     15285     15283     15286     15286     15287     15286     15288
     15286     15289     15289     15290     15289     15291     15291     15292
     15291     15293     15293     15294     15293     15295     15293     15296
     15296     15297     15296     15298     15296     15299     15299     15300
     15299     15301     15299     15302     15302     15303     15302     15304
     15302     15305     15305     15306     15305     15307     15305     15308
     15308     15309     15308     15310     15308     15311     15311     15312
     15311     15313     15311     15314     15314     15315     15314     15316
     15314     15317     15265     15266     15266     15268     15266     15267
     15268     15269     15268     15270     15268     15318     15318     15319
     15318     15320     15318     15321     15321     15322     15321     15323
     15321     15324     15324     15325     15324     15326     15324     15327
     15327     15328     15327     15329     15327     15330     15330     15331
     15330     15332     15330     15333     15333     15334     15333     15335
     15333     15336     15336     15337     15336     15338     15336     15339
     15339     15340     15339     15341     15339     15342     15342     15343
     15342     15344     15342     15345     15345     15346     15345     15347
     15345     15348     15348     15349     15348     15350     15348     15351
     15351     15352     15351     15353     15351     15354     15354     15355
     15354     15356     15354     15357     15357     15358     15357     15359
     15357     15360     15361     15362     15361     15363     15361     15364
     15361     15365     15365     15366     15365     15367     15365     15368
     15368     15369     15368     15370     15368     15375     15375     15371
     15371     15374     15371     15372     15371     15373     15376     15377
     15376     15378     15376     15379     15376     15374     15379     15380
     15379     15387     15379     15381     15387     15388     15387     15389
     15387     15390     15381     15382     15382     15384     15382     15383
     15384     15385     15384     15386     15384     15396     15396     15397
     15396     15398     15396     15399     15399     15400     15399     15401
     15399     15402     15402     15403     15402     15404     15402     15405
     15405     15406     15405     15407     15405     15408     15408     15409
     15408     15410     15408     15411     15411     15412     15411     15413
     15411     15414     15414     15415     15414     15416     15416     15417
     15416     15418     15418     15419     15418     15420     15418     15421
     15421     15422     15421     15423     15421     15424     15424     15425
     15424     15426     15424     15427     15427     15428     15427     15429
     15427     15430     15430     15431     15430     15432     15430     15433
     15433     15434     15433     15435     15433     15436     15436     15437
     15436     15438     15436     15439     15439     15440     15439     15441
     15439     15442     15390     15391     15391     15393     15391     15392
     15393     15394     15393     15395     15393     15443     15443     15444
     15443     15445     15443     15446     15446     15447     15446     15448
     15446     15449     15449     15450     15449     15451     15449     15452
     15452     15453     15452     15454     15452     15455     15455     15456
     15455     15457     15455     15458     15458     15459     15458     15460
     15458     15461     15461     15462     15461     15463     15461     15464
     15464     15465     15464     15466     15464     15467     15467     15468
     15467     15469     15467     15470     15470     15471     15470     15472
     15470     15473     15473     15474     15473     15475     15473     15476
     15476     15477     15476     15478     15476     15479     15479     15480
     15479     15481     15479     15482     15482     15483     15482     15484
     15482     15485     15486     15490     15486     15494     15486     15498
     15490     15491     15490     15492     15490     15493     15494     15495
     15494     15496     15494     15497     15498     15499     15498     15500
     15498     15501     15486     15487     15487     15488     15487     15489
     15487     15502     15502     15503     15502     15504     15502     15508
     15509     15510     15508     15505     15505     15509     15505     15506
     15505     15507     15510     15511     15510     15512     15510     15513
     15513     15514     15513     15521     15513     15515     15521     15522
     15521     15523     15521     15524     15515     15516     15516     15518
     15516     15517     15518     15519     15518     15520     15518     15530
     15530     15531     15530     15532     15530     15533     15533     15534
     15533     15535     15533     15536     15536     15537     15536     15538
     15536     15539     15539     15540     15539     15541     15539     15542
     15542     15543     15542     15544     15542     15545     15545     15546
     15545     15547     15545     15548     15548     15549     15548     15550
     15550     15551     15550     15552     15552     15553     15552     15554
     15552     15555     15555     15556     15555     15557     15555     15558
     15558     15559     15558     15560     15558     15561     15561     15562
     15561     15563     15561     15564     15564     15565     15564     15566
     15564     15567     15567     15568     15567     15569     15567     15570
     15570     15571     15570     15572     15570     15573     15573     15574
     15573     15575     15573     15576     15524     15525     15525     15527
     15525     15526     15527     15528     15527     15529     15527     15577
     15577     15578     15577     15579     15577     15580     15580     15581
     15580     15582     15580     15583     15583     15584     15583     15585
     15583     15586     15586     15587     15586     15588     15586     15589
     15589     15590     15589     15591     15589     15592     15592     15593
     15592     15594     15592     15595     15595     15596     15595     15597
     15595     15598     15598     15599     15598     15600     15598     15601
     15601     15602     15601     15603     15601     15604     15604     15605
     15604     15606     15604     15607     15607     15608     15607     15609
     15607     15610     15610     15611     15610     15612     15610     15613
     15613     15614     15613     15615     15613     15616     15616     15617
     15616     15618     15616     15619     15620     15621     15620     15622
     15620     15623     15620     15624     15624     15625     15624     15626
     15624     15627     15627     15628     15627     15629     15627     15634
     15634     15630     15630     15633     15630     15631     15630     15632
     15635     15636     15635     15637     15635     15638     15635     15633
     15638     15639     15638     15646     15638     15640     15646     15647
     15646     15648     15646     15649     15640     15641     15641     15643
     15641     15642     15643     15644     15643     15645     15643     15655
     15655     15656     15655     15657     15655     15658     15658     15659
     15658     15660     15658     15661     15661     15662     15661     15663
     15661     15664     15664     15665     15664     15666     15664     15667
     15667     15668     15667     15669     15667     15670     15670     15671
     15670     15672     15670     15673     15673     15674     15673     15675
     15675     15676     15675     15677     15677     15678     15677     15679
     15677     15680     15680     15681     15680     15682     15680     15683
     15683     15684     15683     15685     15683     15686     15686     15687
     15686     15688     15686     15689     15689     15690     15689     15691
     15689     15692     15692     15693     15692     15694     15692     15695
     15695     15696     15695     15697     15695     15698     15698     15699
     15698     15700     15698     15701     15649     15650     15650     15652
     15650     15651     15652     15653     15652     15654     15652     15702
     15702     15703     15702     15704     15702     15705     15705     15706
     15705     15707     15705     15708     15708     15709     15708     15710
     15708     15711     15711     15712     15711     15713     15711     15714
     15714     15715     15714     15716     15714     15717     15717     15718
     15717     15719     15717     15720     15720     15721     15720     15722
     15720     15723     15723     15724     15723     15725     15723     15726
     15726     15727     15726     15728     15726     15729     15729     15730
     15729     15731     15729     15732     15732     15733     15732     15734
     15732     15735     15735     15736     15735     15737     15735     15738
     15738     15739     15738     15740     15738     15741     15741     15742
     15741     15743     15741     15744     15745     15746     15745     15747
     15745     15748     15745     15749     15749     15750     15749     15751
     15749     15752     15752     15753     15752     15754     15752     15759
     15759     15755     15755     15758     15755     15756     15755     15757
     15760     15761     15760     15762     15760     15763     15760     15758
     15763     15764     15763     15771     15763     15765     15771     15772
     15771     15773     15771     15774     15765     15766     15766     15768
     15766     15767     15768     15769     15768     15770     15768     15780
     15780     15781     15780     15782     15780     15783     15783     15784
     15783     15785     15783     15786     15786     15787     15786     15788
     15786     15789     15789     15790     15789     15791     15789     15792
     15792     15793     15792     15794     15792     15795     15795     15796
     15795     15797     15795     15798     15798     15799     15798     15800
     15800     15801     15800     15802     15802     15803     15802     15804
     15802     15805     15805     15806     15805     15807     15805     15808
     15808     15809     15808     15810     15808     15811     15811     15812
     15811     15813     15811     15814     15814     15815     15814     15816
     15814     15817     15817     15818     15817     15819     15817     15820
     15820     15821     15820     15822     15820     15823     15823     15824
     15823     15825     15823     15826     15774     15775     15775     15777
     15775     15776     15777     15778     15777     15779     15777     15827
     15827     15828     15827     15829     15827     15830     15830     15831
     15830     15832     15830     15833     15833     15834     15833     15835
     15833     15836     15836     15837     15836     15838     15836     15839
     15839     15840     15839     15841     15839     15842     15842     15843
     15842     15844     15842     15845     15845     15846     15845     15847
     15845     15848     15848     15849     15848     15850     15848     15851
     15851     15852     15851     15853     15851     15854     15854     15855
     15854     15856     15854     15857     15857     15858     15857     15859
     15857     15860     15860     15861     15860     15862     15860     15863
     15863     15864     15863     15865     15863     15866     15866     15867
     15866     15868     15866     15869     15870     15871     15870     15872
     15870     15873     15870     15874     15874     15875     15874     15876
     15874     15877     15877     15878     15877     15879     15877     15884
     15884     15880     15880     15883     15880     15881     15880     15882
     15885     15886     15885     15887     15885     15888     15885     15883
     15888     15889     15888     15896     15888     15890     15896     15897
     15896     15898     15896     15899     15890     15891     15891     15893
     15891     15892     15893     15894     15893     15895     15893     15905
     15905     15906     15905     15907     15905     15908     15908     15909
     15908     15910     15908     15911     15911     15912     15911     15913
     15911     15914     15914     15915     15914     15916     15914     15917
     15917     15918     15917     15919     15917     15920     15920     15921
     15920     15922     15920     15923     15923     15924     15923     15925
     15925     15926     15925     15927     15927     15928     15927     15929
     15927     15930     15930     15931     15930     15932     15930     15933
     15933     15934     15933     15935     15933     15936     15936     15937
     15936     15938     15936     15939     15939     15940     15939     15941
     15939     15942     15942     15943     15942     15944     15942     15945
     15945     15946     15945     15947     15945     15948     15948     15949
     15948     15950     15948     15951     15899     15900     15900     15902
     15900     15901     15902     15903     15902     15904     15902     15952
     15952     15953     15952     15954     15952     15955     15955     15956
     15955     15957     15955     15958     15958     15959     15958     15960
     15958     15961     15961     15962     15961     15963     15961     15964
     15964     15965     15964     15966     15964     15967     15967     15968
     15967     15969     15967     15970     15970     15971     15970     15972
     15970     15973     15973     15974     15973     15975     15973     15976
     15976     15977     15976     15978     15976     15979     15979     15980
     15979     15981     15979     15982     15982     15983     15982     15984
     15982     15985     15985     15986     15985     15987     15985     15988
     15988     15989     15988     15990     15988     15991     15991     15992
     15991     15993     15991     15994     15995     15996     15995     15997
     15995     15998     15995     15999     15999     16000     15999     16001
     15999     16002     16002     16003     16002     16004     16002     16009
     16009     16005     16005     16008     16005     16006     16005     16007
     16010     16011     16010     16012     16010     16013     16010     16008
     16013     16014     16013     16021     16013     16015     16021     16022
     16021     16023     16021     16024     16015     16016     16016     16018
     16016     16017     16018     16019     16018     16020     16018     16030
     16030     16031     16030     16032     16030     16033     16033     16034
     16033     16035     16033     16036     16036     16037     16036     16038
     16036     16039     16039     16040     16039     16041     16039     16042
     16042     16043     16042     16044     16042     16045     16045     16046
     16045     16047     16045     16048     16048     16049     16048     16050
     16050     16051     16050     16052     16052     16053     16052     16054
     16052     16055     16055     16056     16055     16057     16055     16058
     16058     16059     16058     16060     16058     16061     16061     16062
     16061     16063     16061     16064     16064     16065     16064     16066
     16064     16067     16067     16068     16067     16069     16067     16070
     16070     16071     16070     16072     16070     16073     16073     16074
     16073     16075     16073     16076     16024     16025     16025     16027
     16025     16026     16027     16028     16027     16029     16027     16077
     16077     16078     16077     16079     16077     16080     16080     16081
     16080     16082     16080     16083     16083     16084     16083     16085
     16083     16086     16086     16087     16086     16088     16086     16089
     16089     16090     16089     16091     16089     16092     16092     16093
     16092     16094     16092     16095     16095     16096     16095     16097
     16095     16098     16098     16099     16098     16100     16098     16101
     16101     16102     16101     16103     16101     16104     16104     16105
     16104     16106     16104     16107     16107     16108     16107     16109
     16107     16110     16110     16111     16110     16112     16110     16113
     16113     16114     16113     16115     16113     16116     16116     16117
     16116     16118     16116     16119     16120     16124     16120     16128
     16120     16132     16124     16125     16124     16126     16124     16127
     16128     16129     16128     16130     16128     16131     16132     16133
     16132     16134     16132     16135     16120     16121     16121     16122
     16121     16123     16121     16136     16136     16137     16136     16138
     16136     16142     16143     16144     16142     16139     16139     16143
     16139     16140     16139     16141     16144     16145     16144     16146
     16144     16147     16147     16148     16147     16155     16147     16149
     16155     16156     16155     16157     16155     16158     16149     16150
     16150     16152     16150     16151     16152     16153     16152     16154
     16152     16164     16164     16165     16164     16166     16164     16167
     16167     16168     16167     16169     16167     16170     16170     16171
     16170     16172     16170     16173     16173     16174     16173     16175
     16173     16176     16176     16177     16176     16178     16176     16179
     16179     16180     16179     16181     16179     16182     16182     16183
     16182     16184     16184     16185     16184     16186     16186     16187
     16186     16188     16186     16189     16189     16190     16189     16191
     16189     16192     16192     16193     16192     16194     16192     16195
     16195     16196     16195     16197     16195     16198     16198     16199
     16198     16200     16198     16201     16201     16202     16201     16203
     16201     16204     16204     16205     16204     16206     16204     16207
     16207     16208     16207     16209     16207     16210     16158     16159
     16159     16161     16159     16160     16161     16162     16161     16163
     16161     16211     16211     16212     16211     16213     16211     16214
     16214     16215     16214     16216     16214     16217     16217     16218
     16217     16219     16217     16220     16220     16221     16220     16222
     16220     16223     16223     16224     16223     16225     16223     16226
     16226     16227     16226     16228     16226     16229     16229     16230
     16229     16231     16229     16232     16232     16233     16232     16234
     16232     16235     16235     16236     16235     16237     16235     16238
     16238     16239     16238     16240     16238     16241     16241     16242
     16241     16243     16241     16244     16244     16245     16244     16246
     16244     16247     16247     16248     16247     16249     16247     16250
     16250     16251     16250     16252     16250     16253     16254     16258
     16254     16262     16254     16266     16258     16259     16258     16260
     16258     16261     16262     16263     16262     16264     16262     16265
     16266     16267     16266     16268     16266     16269     16254     16255
     16255     16256     16255     16257     16255     16270     16270     16271
     16270     16272     16270     16276     16277     16278     16276     16273
     16273     16277     16273     16274     16273     16275     16278     16279
     16278     16280     16278     16281     16281     16282     16281     16289
     16281     16283     16289     16290     16289     16291     16289     16292
     16283     16284     16284     16286     16284     16285     16286     16287
     16286     16288     16286     16298     16298     16299     16298     16300
     16298     16301     16301     16302     16301     16303     16301     16304
     16304     16305     16304     16306     16304     16307     16307     16308
     16307     16309     16307     16310     16310     16311     16310     16312
     16310     16313     16313     16314     16313     16315     16313     16316
     16316     16317     16316     16318     16318     16319     16318     16320
     16320     16321     16320     16322     16320     16323     16323     16324
     16323     16325     16323     16326     16326     16327     16326     16328
     16326     16329     16329     16330     16329     16331     16329     16332
     16332     16333     16332     16334     16332     16335     16335     16336
     16335     16337     16335     16338     16338     16339     16338     16340
     16338     16341     16341     16342     16341     16343     16341     16344
     16292     16293     16293     16295     16293     16294     16295     16296
     16295     16297     16295     16345     16345     16346     16345     16347
     16345     16348     16348     16349     16348     16350     16348     16351
     16351     16352     16351     16353     16351     16354     16354     16355
     16354     16356     16354     16357     16357     16358     16357     16359
     16357     16360     16360     16361     16360     16362     16360     16363
     16363     16364     16363     16365     16363     16366     16366     16367
     16366     16368     16366     16369     16369     16370     16369     16371
     16369     16372     16372     16373     16372     16374     16372     16375
     16375     16376     16375     16377     16375     16378     16378     16379
     16378     16380     16378     16381     16381     16382     16381     16383
     16381     16384     16384     16385     16384     16386     16384     16387
     16388     16389     16388     16390     16388     16391     16388     16392
     16392     16393     16392     16394     16392     16395     16395     16396
     16395     16397     16395     16402     16402     16398     16398     16401
     16398     16399     16398     16400     16403     16404     16403     16405
     16403     16406     16403     16401     16406     16407     16406     16414
     16406     16408     16414     16415     16414     16416     16414     16417
     16408     16409     16409     16411     16409     16410     16411     16412
     16411     16413     16411     16423     16423     16424     16423     16425
     16423     16426     16426     16427     16426     16428     16426     16429
     16429     16430     16429     16431     16429     16432     16432     16433
     16432     16434     16432     16435     16435     16436     16435     16437
     16435     16438     16438     16439     16438     16440     16438     16441
     16441     16442     16441     16443     16443     16444     16443     16445
     16445     16446     16445     16447     16445     16448     16448     16449
     16448     16450     16448     16451     16451     16452     16451     16453
     16451     16454     16454     16455     16454     16456     16454     16457
     16457     16458     16457     16459     16457     16460     16460     16461
     16460     16462     16460     16463     16463     16464     16463     16465
     16463     16466     16466     16467     16466     16468     16466     16469
     16417     16418     16418     16420     16418     16419     16420     16421
     16420     16422     16420     16470     16470     16471     16470     16472
     16470     16473     16473     16474     16473     16475     16473     16476
     16476     16477     16476     16478     16476     16479     16479     16480
     16479     16481     16479     16482     16482     16483     16482     16484
     16482     16485     16485     16486     16485     16487     16485     16488
     16488     16489     16488     16490     16488     16491     16491     16492
     16491     16493     16491     16494     16494     16495     16494     16496
     16494     16497     16497     16498     16497     16499     16497     16500
     16500     16501     16500     16502     16500     16503     16503     16504
     16503     16505     16503     16506     16506     16507     16506     16508
     16506     16509     16509     16510     16509     16511     16509     16512
     16513     16517     16513     16521     16513     16525     16517     16518
     16517     16519     16517     16520     16521     16522     16521     16523
     16521     16524     16525     16526     16525     16527     16525     16528
     16513     16514     16514     16515     16514     16516     16514     16529
     16529     16530     16529     16531     16529     16535     16536     16537
     16535     16532     16532     16536     16532     16533     16532     16534
     16537     16538     16537     16539     16537     16540     16540     16541
     16540     16548     16540     16542     16548     16549     16548     16550
     16548     16551     16542     16543     16543     16545     16543     16544
     16545     16546     16545     16547     16545     16557     16557     16558
     16557     16559     16557     16560     16560     16561     16560     16562
     16560     16563     16563     16564     16563     16565     16563     16566
     16566     16567     16566     16568     16566     16569     16569     16570
     16569     16571     16569     16572     16572     16573     16572     16574
     16572     16575     16575     16576     16575     16577     16577     16578
     16577     16579     16579     16580     16579     16581     16579     16582
     16582     16583     16582     16584     16582     16585     16585     16586
     16585     16587     16585     16588     16588     16589     16588     16590
     16588     16591     16591     16592     16591     16593     16591     16594
     16594     16595     16594     16596     16594     16597     16597     16598
     16597     16599     16597     16600     16600     16601     16600     16602
     16600     16603     16551     16552     16552     16554     16552     16553
     16554     16555     16554     16556     16554     16604     16604     16605
     16604     16606     16604     16607     16607     16608     16607     16609
     16607     16610     16610     16611     16610     16612     16610     16613
     16613     16614     16613     16615     16613     16616     16616     16617
     16616     16618     16616     16619     16619     16620     16619     16621
     16619     16622     16622     16623     16622     16624     16622     16625
     16625     16626     16625     16627     16625     16628     16628     16629
     16628     16630     16628     16631     16631     16632     16631     16633
     16631     16634     16634     16635     16634     16636     16634     16637
     16637     16638     16637     16639     16637     16640     16640     16641
     16640     16642     16640     16643     16643     16644     16643     16645
     16643     16646     16647     16651     16647     16655     16647     16659
     16651     16652     16651     16653     16651     16654     16655     16656
     16655     16657     16655     16658     16659     16660     16659     16661
     16659     16662     16647     16648     16648     16649     16648     16650
     16648     16663     16663     16664     16663     16665     16663     16669
     16670     16671     16669     16666     16666     16670     16666     16667
     16666     16668     16671     16672     16671     16673     16671     16674
     16674     16675     16674     16682     16674     16676     16682     16683
     16682     16684     16682     16685     16676     16677     16677     16679
     16677     16678     16679     16680     16679     16681     16679     16691
     16691     16692     16691     16693     16691     16694     16694     16695
     16694     16696     16694     16697     16697     16698     16697     16699
     16697     16700     16700     16701     16700     16702     16700     16703
     16703     16704     16703     16705     16703     16706     16706     16707
     16706     16708     16706     16709     16709     16710     16709     16711
     16711     16712     16711     16713     16713     16714     16713     16715
     16713     16716     16716     16717     16716     16718     16716     16719
     16719     16720     16719     16721     16719     16722     16722     16723
     16722     16724     16722     16725     16725     16726     16725     16727
     16725     16728     16728     16729     16728     16730     16728     16731
     16731     16732     16731     16733     16731     16734     16734     16735
     16734     16736     16734     16737     16685     16686     16686     16688
     16686     16687     16688     16689     16688     16690     16688     16738
     16738     16739     16738     16740     16738     16741     16741     16742
     16741     16743     16741     16744     16744     16745     16744     16746
     16744     16747     16747     16748     16747     16749     16747     16750
     16750     16751     16750     16752     16750     16753     16753     16754
     16753     16755     16753     16756     16756     16757     16756     16758
     16756     16759     16759     16760     16759     16761     16759     16762
     16762     16763     16762     16764     16762     16765     16765     16766
     16765     16767     16765     16768     16768     16769     16768     16770
     16768     16771     16771     16772     16771     16773     16771     16774
     16774     16775     16774     16776     16774     16777     16777     16778
     16777     16779     16777     16780     16781     16785     16781     16789
     16781     16793     16785     16786     16785     16787     16785     16788
     16789     16790     16789     16791     16789     16792     16793     16794
     16793     16795     16793     16796     16781     16782     16782     16783
     16782     16784     16782     16797     16797     16798     16797     16799
     16797     16803     16804     16805     16803     16800     16800     16804
     16800     16801     16800     16802     16805     16806     16805     16807
     16805     16808     16808     16809     16808     16816     16808     16810
     16816     16817     16816     16818     16816     16819     16810     16811
     16811     16813     16811     16812     16813     16814     16813     16815
     16813     16825     16825     16826     16825     16827     16825     16828
     16828     16829     16828     16830     16828     16831     16831     16832
     16831     16833     16831     16834     16834     16835     16834     16836
     16834     16837     16837     16838     16837     16839     16837     16840
     16840     16841     16840     16842     16840     16843     16843     16844
     16843     16845     16845     16846     16845     16847     16847     16848
     16847     16849     16847     16850     16850     16851     16850     16852
     16850     16853     16853     16854     16853     16855     16853     16856
     16856     16857     16856     16858     16856     16859     16859     16860
     16859     16861     16859     16862     16862     16863     16862     16864
     16862     16865     16865     16866     16865     16867     16865     16868
     16868     16869     16868     16870     16868     16871     16819     16820
     16820     16822     16820     16821     16822     16823     16822     16824
     16822     16872     16872     16873     16872     16874     16872     16875
     16875     16876     16875     16877     16875     16878     16878     16879
     16878     16880     16878     16881     16881     16882     16881     16883
     16881     16884     16884     16885     16884     16886     16884     16887
     16887     16888     16887     16889     16887     16890     16890     16891
     16890     16892     16890     16893     16893     16894     16893     16895
     16893     16896     16896     16897     16896     16898     16896     16899
     16899     16900     16899     16901     16899     16902     16902     16903
     16902     16904     16902     16905     16905     16906     16905     16907
     16905     16908     16908     16909     16908     16910     16908     16911
     16911     16912     16911     16913     16911     16914     16915     16919
     16915     16923     16915     16927     16919     16920     16919     16921
     16919     16922     16923     16924     16923     16925     16923     16926
     16927     16928     16927     16929     16927     16930     16915     16916
     16916     16917     16916     16918     16916     16931     16931     16932
     16931     16933     16931     16937     16938     16939     16937     16934
     16934     16938     16934     16935     16934     16936     16939     16940
     16939     16941     16939     16942     16942     16943     16942     16950
     16942     16944     16950     16951     16950     16952     16950     16953
     16944     16945     16945     16947     16945     16946     16947     16948
     16947     16949     16947     16959     16959     16960     16959     16961
     16959     16962     16962     16963     16962     16964     16962     16965
     16965     16966     16965     16967     16965     16968     16968     16969
     16968     16970     16968     16971     16971     16972     16971     16973
     16971     16974     16974     16975     16974     16976     16974     16977
     16977     16978     16977     16979     16979     16980     16979     16981
     16981     16982     16981     16983     16981     16984     16984     16985
     16984     16986     16984     16987     16987     16988     16987     16989
     16987     16990     16990     16991     16990     16992     16990     16993
     16993     16994     16993     16995     16993     16996     16996     16997
     16996     16998     16996     16999     16999     17000     16999     17001
     16999     17002     17002     17003     17002     17004     17002     17005
     16953     16954     16954     16956     16954     16955     16956     16957
     16956     16958     16956     17006     17006     17007     17006     17008
     17006     17009     17009     17010     17009     17011     17009     17012
     17012     17013     17012     17014     17012     17015     17015     17016
     17015     17017     17015     17018     17018     17019     17018     17020
     17018     17021     17021     17022     17021     17023     17021     17024
     17024     17025     17024     17026     17024     17027     17027     17028
     17027     17029     17027     17030     17030     17031     17030     17032
     17030     17033     17033     17034     17033     17035     17033     17036
     17036     17037     17036     17038     17036     17039     17039     17040
     17039     17041     17039     17042     17042     17043     17042     17044
     17042     17045     17045     17046     17045     17047     17045     17048
     17049     17050     17049     17051     17049     17052     17049     17053
     17053     17054     17053     17055     17053     17056     17056     17057
     17056     17058     17056     17063     17063     17059     17059     17062
     17059     17060     17059     17061     17064     17065     17064     17066
     17064     17067     17064     17062     17067     17068     17067     17075
     17067     17069     17075     17076     17075     17077     17075     17078
     17069     17070     17070     17072     17070     17071     17072     17073
     17072     17074     17072     17084     17084     17085     17084     17086
     17084     17087     17087     17088     17087     17089     17087     17090
     17090     17091     17090     17092     17090     17093     17093     17094
     17093     17095     17093     17096     17096     17097     17096     17098
     17096     17099     17099     17100     17099     17101     17099     17102
     17102     17103     17102     17104     17104     17105     17104     17106
     17106     17107     17106     17108     17106     17109     17109     17110
     17109     17111     17109     17112     17112     17113     17112     17114
     17112     17115     17115     17116     17115     17117     17115     17118
     17118     17119     17118     17120     17118     17121     17121     17122
     17121     17123     17121     17124     17124     17125     17124     17126
     17124     17127     17127     17128     17127     17129     17127     17130
     17078     17079     17079     17081     17079     17080     17081     17082
     17081     17083     17081     17131     17131     17132     17131     17133
     17131     17134     17134     17135     17134     17136     17134     17137
     17137     17138     17137     17139     17137     17140     17140     17141
     17140     17142     17140     17143     17143     17144     17143     17145
     17143     17146     17146     17147     17146     17148     17146     17149
     17149     17150     17149     17151     17149     17152     17152     17153
     17152     17154     17152     17155     17155     17156     17155     17157
     17155     17158     17158     17159     17158     17160     17158     17161
     17161     17162     17161     17163     17161     17164     17164     17165
     17164     17166     17164     17167     17167     17168     17167     17169
     17167     17170     17170     17171     17170     17172     17170     17173
     17174     17178     17174     17182     17174     17186     17178     17179
     17178     17180     17178     17181     17182     17183     17182     17184
     17182     17185     17186     17187     17186     17188     17186     17189
     17174     17175     17175     17176     17175     17177     17175     17190
     17190     17191     17190     17192     17190     17196     17197     17198
     17196     17193     17193     17197     17193     17194     17193     17195
     17198     17199     17198     17200     17198     17201     17201     17202
     17201     17209     17201     17203     17209     17210     17209     17211
     17209     17212     17203     17204     17204     17206     17204     17205
     17206     17207     17206     17208     17206     17218     17218     17219
     17218     17220     17218     17221     17221     17222     17221     17223
     17221     17224     17224     17225     17224     17226     17224     17227
     17227     17228     17227     17229     17227     17230     17230     17231
     17230     17232     17230     17233     17233     17234     17233     17235
     17233     17236     17236     17237     17236     17238     17238     17239
     17238     17240     17240     17241     17240     17242     17240     17243
     17243     17244     17243     17245     17243     17246     17246     17247
     17246     17248     17246     17249     17249     17250     17249     17251
     17249     17252     17252     17253     17252     17254     17252     17255
     17255     17256     17255     17257     17255     17258     17258     17259
     17258     17260     17258     17261     17261     17262     17261     17263
     17261     17264     17212     17213     17213     17215     17213     17214
     17215     17216     17215     17217     17215     17265     17265     17266
     17265     17267     17265     17268     17268     17269     17268     17270
     17268     17271     17271     17272     17271     17273     17271     17274
     17274     17275     17274     17276     17274     17277     17277     17278
     17277     17279     17277     17280     17280     17281     17280     17282
     17280     17283     17283     17284     17283     17285     17283     17286
     17286     17287     17286     17288     17286     17289     17289     17290
     17289     17291     17289     17292     17292     17293     17292     17294
     17292     17295     17295     17296     17295     17297     17295     17298
     17298     17299     17298     17300     17298     17301     17301     17302
     17301     17303     17301     17304     17304     17305     17304     17306
     17304     17307     17308     17309     17308     17310     17308     17311
     17308     17312     17312     17313     17312     17314     17312     17315
     17315     17316     17315     17317     17315     17322     17322     17318
     17318     17321     17318     17319     17318     17320     17323     17324
     17323     17325     17323     17326     17323     17321     17326     17327
     17326     17334     17326     17328     17334     17335     17334     17336
     17334     17337     17328     17329     17329     17331     17329     17330
     17331     17332     17331     17333     17331     17343     17343     17344
     17343     17345     17343     17346     17346     17347     17346     17348
     17346     17349     17349     17350     17349     17351     17349     17352
     17352     17353     17352     17354     17352     17355     17355     17356
     17355     17357     17355     17358     17358     17359     17358     17360
     17358     17361     17361     17362     17361     17363     17363     17364
     17363     17365     17365     17366     17365     17367     17365     17368
     17368     17369     17368     17370     17368     17371     17371     17372
     17371     17373     17371     17374     17374     17375     17374     17376
     17374     17377     17377     17378     17377     17379     17377     17380
     17380     17381     17380     17382     17380     17383     17383     17384
     17383     17385     17383     17386     17386     17387     17386     17388
     17386     17389     17337     17338     17338     17340     17338     17339
     17340     17341     17340     17342     17340     17390     17390     17391
     17390     17392     17390     17393     17393     17394     17393     17395
     17393     17396     17396     17397     17396     17398     17396     17399
     17399     17400     17399     17401     17399     17402     17402     17403
     17402     17404     17402     17405     17405     17406     17405     17407
     17405     17408     17408     17409     17408     17410     17408     17411
     17411     17412     17411     17413     17411     17414     17414     17415
     17414     17416     17414     17417     17417     17418     17417     17419
     17417     17420     17420     17421     17420     17422     17420     17423
     17423     17424     17423     17425     17423     17426     17426     17427
     17426     17428     17426     17429     17429     17430     17429     17431
     17429     17432     17433     17434     17433     17435     17433     17436
     17433     17437     17437     17438     17437     17439     17437     17440
     17440     17441     17440     17442     17440     17447     17447     17443
     17443     17446     17443     17444     17443     17445     17448     17449
     17448     17450     17448     17451     17448     17446     17451     17452
     17451     17459     17451     17453     17459     17460     17459     17461
     17459     17462     17453     17454     17454     17456     17454     17455
     17456     17457     17456     17458     17456     17468     17468     17469
     17468     17470     17468     17471     17471     17472     17471     17473
     17471     17474     17474     17475     17474     17476     17474     17477
     17477     17478     17477     17479     17477     17480     17480     17481
     17480     17482     17480     17483     17483     17484     17483     17485
     17483     17486     17486     17487     17486     17488     17488     17489
     17488     17490     17490     17491     17490     17492     17490     17493
     17493     17494     17493     17495     17493     17496     17496     17497
     17496     17498     17496     17499     17499     17500     17499     17501
     17499     17502     17502     17503     17502     17504     17502     17505
     17505     17506     17505     17507     17505     17508     17508     17509
     17508     17510     17508     17511     17511     17512     17511     17513
     17511     17514     17462     17463     17463     17465     17463     17464
     17465     17466     17465     17467     17465     17515     17515     17516
     17515     17517     17515     17518     17518     17519     17518     17520
     17518     17521     17521     17522     17521     17523     17521     17524
     17524     17525     17524     17526     17524     17527     17527     17528
     17527     17529     17527     17530     17530     17531     17530     17532
     17530     17533     17533     17534     17533     17535     17533     17536
     17536     17537     17536     17538     17536     17539     17539     17540
     17539     17541     17539     17542     17542     17543     17542     17544
     17542     17545     17545     17546     17545     17547     17545     17548
     17548     17549     17548     17550     17548     17551     17551     17552
     17551     17553     17551     17554     17554     17555     17554     17556
     17554     17557     17558     17562     17558     17566     17558     17570
     17562     17563     17562     17564     17562     17565     17566     17567
     17566     17568     17566     17569     17570     17571     17570     17572
     17570     17573     17558     17559     17559     17560     17559     17561
     17559     17574     17574     17575     17574     17576     17574     17580
     17581     17582     17580     17577     17577     17581     17577     17578
     17577     17579     17582     17583     17582     17584     17582     17585
     17585     17586     17585     17593     17585     17587     17593     17594
     17593     17595     17593     17596     17587     17588     17588     17590
     17588     17589     17590     17591     17590     17592     17590     17602
     17602     17603     17602     17604     17602     17605     17605     17606
     17605     17607     17605     17608     17608     17609     17608     17610
     17608     17611     17611     17612     17611     17613     17611     17614
     17614     17615     17614     17616     17614     17617     17617     17618
     17617     17619     17617     17620     17620     17621     17620     17622
     17622     17623     17622     17624     17624     17625     17624     17626
     17624     17627     17627     17628     17627     17629     17627     17630
     17630     17631     17630     17632     17630     17633     17633     17634
     17633     17635     17633     17636     17636     17637     17636     17638
     17636     17639     17639     17640     17639     17641     17639     17642
     17642     17643     17642     17644     17642     17645     17645     17646
     17645     17647     17645     17648     17596     17597     17597     17599
     17597     17598     17599     17600     17599     17601     17599     17649
     17649     17650     17649     17651     17649     17652     17652     17653
     17652     17654     17652     17655     17655     17656     17655     17657
     17655     17658     17658     17659     17658     17660     17658     17661
     17661     17662     17661     17663     17661     17664     17664     17665
     17664     17666     17664     17667     17667     17668     17667     17669
     17667     17670     17670     17671     17670     17672     17670     17673
     17673     17674     17673     17675     17673     17676     17676     17677
     17676     17678     17676     17679     17679     17680     17679     17681
     17679     17682     17682     17683     17682     17684     17682     17685
     17685     17686     17685     17687     17685     17688     17688     17689
     17688     17690     17688     17691     17692     17696     17692     17700
     17692     17704     17696     17697     17696     17698     17696     17699
     17700     17701     17700     17702     17700     17703     17704     17705
     17704     17706     17704     17707     17692     17693     17693     17694
     17693     17695     17693     17708     17708     17709     17708     17710
     17708     17714     17715     17716     17714     17711     17711     17715
     17711     17712     17711     17713     17716     17717     17716     17718
     17716     17719     17719     17720     17719     17727     17719     17721
     17727     17728     17727     17729     17727     17730     17721     17722
     17722     17724     17722     17723     17724     17725     17724     17726
     17724     17736     17736     17737     17736     17738     17736     17739
     17739     17740     17739     17741     17739     17742     17742     17743
     17742     17744     17742     17745     17745     17746     17745     17747
     17745     17748     17748     17749     17748     17750     17748     17751
     17751     17752     17751     17753     17751     17754     17754     17755
     17754     17756     17756     17757     17756     17758     17758     17759
     17758     17760     17758     17761     17761     17762     17761     17763
     17761     17764     17764     17765     17764     17766     17764     17767
     17767     17768     17767     17769     17767     17770     17770     17771
     17770     17772     17770     17773     17773     17774     17773     17775
     17773     17776     17776     17777     17776     17778     17776     17779
     17779     17780     17779     17781     17779     17782     17730     17731
     17731     17733     17731     17732     17733     17734     17733     17735
     17733     17783     17783     17784     17783     17785     17783     17786
     17786     17787     17786     17788     17786     17789     17789     17790
     17789     17791     17789     17792     17792     17793     17792     17794
     17792     17795     17795     17796     17795     17797     17795     17798
     17798     17799     17798     17800     17798     17801     17801     17802
     17801     17803     17801     17804     17804     17805     17804     17806
     17804     17807     17807     17808     17807     17809     17807     17810
     17810     17811     17810     17812     17810     17813     17813     17814
     17813     17815     17813     17816     17816     17817     17816     17818
     17816     17819     17819     17820     17819     17821     17819     17822
     17822     17823     17822     17824     17822     17825     17826     17827
     17826     17828     17826     17829     17826     17830     17830     17831
     17830     17832     17830     17833     17833     17834     17833     17835
     17833     17840     17840     17836     17836     17839     17836     17837
     17836     17838     17841     17842     17841     17843     17841     17844
     17841     17839     17844     17845     17844     17852     17844     17846
     17852     17853     17852     17854     17852     17855     17846     17847
     17847     17849     17847     17848     17849     17850     17849     17851
     17849     17861     17861     17862     17861     17863     17861     17864
     17864     17865     17864     17866     17864     17867     17867     17868
     17867     17869     17867     17870     17870     17871     17870     17872
     17870     17873     17873     17874     17873     17875     17873     17876
     17876     17877     17876     17878     17876     17879     17879     17880
     17879     17881     17881     17882     17881     17883     17883     17884
     17883     17885     17883     17886     17886     17887     17886     17888
     17886     17889     17889     17890     17889     17891     17889     17892
     17892     17893     17892     17894     17892     17895     17895     17896
     17895     17897     17895     17898     17898     17899     17898     17900
     17898     17901     17901     17902     17901     17903     17901     17904
     17904     17905     17904     17906     17904     17907     17855     17856
     17856     17858     17856     17857     17858     17859     17858     17860
     17858     17908     17908     17909     17908     17910     17908     17911
     17911     17912     17911     17913     17911     17914     17914     17915
     17914     17916     17914     17917     17917     17918     17917     17919
     17917     17920     17920     17921     17920     17922     17920     17923
     17923     17924     17923     17925     17923     17926     17926     17927
     17926     17928     17926     17929     17929     17930     17929     17931
     17929     17932     17932     17933     17932     17934     17932     17935
     17935     17936     17935     17937     17935     17938     17938     17939
     17938     17940     17938     17941     17941     17942     17941     17943
     17941     17944     17944     17945     17944     17946     17944     17947
     17947     17948     17947     17949     17947     17950     17951     17952
     17951     17953     17951     17954     17951     17955     17955     17956
     17955     17957     17955     17958     17958     17959     17958     17960
     17958     17965     17965     17961     17961     17964     17961     17962
     17961     17963     17966     17967     17966     17968     17966     17969
     17966     17964     17969     17970     17969     17977     17969     17971
     17977     17978     17977     17979     17977     17980     17971     17972
     17972     17974     17972     17973     17974     17975     17974     17976
     17974     17986     17986     17987     17986     17988     17986     17989
     17989     17990     17989     17991     17989     17992     17992     17993
     17992     17994     17992     17995     17995     17996     17995     17997
     17995     17998     17998     17999     17998     18000     17998     18001
     18001     18002     18001     18003     18001     18004     18004     18005
     18004     18006     18006     18007     18006     18008     18008     18009
     18008     18010     18008     18011     18011     18012     18011     18013
     18011     18014     18014     18015     18014     18016     18014     18017
     18017     18018     18017     18019     18017     18020     18020     18021
     18020     18022     18020     18023     18023     18024     18023     18025
     18023     18026     18026     18027     18026     18028     18026     18029
     18029     18030     18029     18031     18029     18032     17980     17981
     17981     17983     17981     17982     17983     17984     17983     17985
     17983     18033     18033     18034     18033     18035     18033     18036
     18036     18037     18036     18038     18036     18039     18039     18040
     18039     18041     18039     18042     18042     18043     18042     18044
     18042     18045     18045     18046     18045     18047     18045     18048
     18048     18049     18048     18050     18048     18051     18051     18052
     18051     18053     18051     18054     18054     18055     18054     18056
     18054     18057     18057     18058     18057     18059     18057     18060
     18060     18061     18060     18062     18060     18063     18063     18064
     18063     18065     18063     18066     18066     18067     18066     18068
     18066     18069     18069     18070     18069     18071     18069     18072
     18072     18073     18072     18074     18072     18075     18076     18080
     18076     18084     18076     18088     18080     18081     18080     18082
     18080     18083     18084     18085     18084     18086     18084     18087
     18088     18089     18088     18090     18088     18091     18076     18077
     18077     18078     18077     18079     18077     18092     18092     18093
     18092     18094     18092     18098     18099     18100     18098     18095
     18095     18099     18095     18096     18095     18097     18100     18101
     18100     18102     18100     18103     18103     18104     18103     18111
     18103     18105     18111     18112     18111     18113     18111     18114
     18105     18106     18106     18108     18106     18107     18108     18109
     18108     18110     18108     18120     18120     18121     18120     18122
     18120     18123     18123     18124     18123     18125     18123     18126
     18126     18127     18126     18128     18126     18129     18129     18130
     18129     18131     18129     18132     18132     18133     18132     18134
     18132     18135     18135     18136     18135     18137     18135     18138
     18138     18139     18138     18140     18140     18141     18140     18142
     18142     18143     18142     18144     18142     18145     18145     18146
     18145     18147     18145     18148     18148     18149     18148     18150
     18148     18151     18151     18152     18151     18153     18151     18154
     18154     18155     18154     18156     18154     18157     18157     18158
     18157     18159     18157     18160     18160     18161     18160     18162
     18160     18163     18163     18164     18163     18165     18163     18166
     18114     18115     18115     18117     18115     18116     18117     18118
     18117     18119     18117     18167     18167     18168     18167     18169
     18167     18170     18170     18171     18170     18172     18170     18173
     18173     18174     18173     18175     18173     18176     18176     18177
     18176     18178     18176     18179     18179     18180     18179     18181
     18179     18182     18182     18183     18182     18184     18182     18185
     18185     18186     18185     18187     18185     18188     18188     18189
     18188     18190     18188     18191     18191     18192     18191     18193
     18191     18194     18194     18195     18194     18196     18194     18197
     18197     18198     18197     18199     18197     18200     18200     18201
     18200     18202     18200     18203     18203     18204     18203     18205
     18203     18206     18206     18207     18206     18208     18206     18209
     18210     18214     18210     18218     18210     18222     18214     18215
     18214     18216     18214     18217     18218     18219     18218     18220
     18218     18221     18222     18223     18222     18224     18222     18225
     18210     18211     18211     18212     18211     18213     18211     18226
     18226     18227     18226     18228     18226     18232     18233     18234
     18232     18229     18229     18233     18229     18230     18229     18231
     18234     18235     18234     18236     18234     18237     18237     18238
     18237     18245     18237     18239     18245     18246     18245     18247
     18245     18248     18239     18240     18240     18242     18240     18241
     18242     18243     18242     18244     18242     18254     18254     18255
     18254     18256     18254     18257     18257     18258     18257     18259
     18257     18260     18260     18261     18260     18262     18260     18263
     18263     18264     18263     18265     18263     18266     18266     18267
     18266     18268     18266     18269     18269     18270     18269     18271
     18269     18272     18272     18273     18272     18274     18274     18275
     18274     18276     18276     18277     18276     18278     18276     18279
     18279     18280     18279     18281     18279     18282     18282     18283
     18282     18284     18282     18285     18285     18286     18285     18287
     18285     18288     18288     18289     18288     18290     18288     18291
     18291     18292     18291     18293     18291     18294     18294     18295
     18294     18296     18294     18297     18297     18298     18297     18299
     18297     18300     18248     18249     18249     18251     18249     18250
     18251     18252     18251     18253     18251     18301     18301     18302
     18301     18303     18301     18304     18304     18305     18304     18306
     18304     18307     18307     18308     18307     18309     18307     18310
     18310     18311     18310     18312     18310     18313     18313     18314
     18313     18315     18313     18316     18316     18317     18316     18318
     18316     18319     18319     18320     18319     18321     18319     18322
     18322     18323     18322     18324     18322     18325     18325     18326
     18325     18327     18325     18328     18328     18329     18328     18330
     18328     18331     18331     18332     18331     18333     18331     18334
     18334     18335     18334     18336     18334     18337     18337     18338
     18337     18339     18337     18340     18340     18341     18340     18342
     18340     18343     18344     18348     18344     18352     18344     18356
     18348     18349     18348     18350     18348     18351     18352     18353
     18352     18354     18352     18355     18356     18357     18356     18358
     18356     18359     18344     18345     18345     18346     18345     18347
     18345     18360     18360     18361     18360     18362     18360     18366
     18367     18368     18366     18363     18363     18367     18363     18364
     18363     18365     18368     18369     18368     18370     18368     18371
     18371     18372     18371     18379     18371     18373     18379     18380
     18379     18381     18379     18382     18373     18374     18374     18376
     18374     18375     18376     18377     18376     18378     18376     18388
     18388     18389     18388     18390     18388     18391     18391     18392
     18391     18393     18391     18394     18394     18395     18394     18396
     18394     18397     18397     18398     18397     18399     18397     18400
     18400     18401     18400     18402     18400     18403     18403     18404
     18403     18405     18403     18406     18406     18407     18406     18408
     18408     18409     18408     18410     18410     18411     18410     18412
     18410     18413     18413     18414     18413     18415     18413     18416
     18416     18417     18416     18418     18416     18419     18419     18420
     18419     18421     18419     18422     18422     18423     18422     18424
     18422     18425     18425     18426     18425     18427     18425     18428
     18428     18429     18428     18430     18428     18431     18431     18432
     18431     18433     18431     18434     18382     18383     18383     18385
     18383     18384     18385     18386     18385     18387     18385     18435
     18435     18436     18435     18437     18435     18438     18438     18439
     18438     18440     18438     18441     18441     18442     18441     18443
     18441     18444     18444     18445     18444     18446     18444     18447
     18447     18448     18447     18449     18447     18450     18450     18451
     18450     18452     18450     18453     18453     18454     18453     18455
     18453     18456     18456     18457     18456     18458     18456     18459
     18459     18460     18459     18461     18459     18462     18462     18463
     18462     18464     18462     18465     18465     18466     18465     18467
     18465     18468     18468     18469     18468     18470     18468     18471
     18471     18472     18471     18473     18471     18474     18474     18475
     18474     18476     18474     18477     18478     18482     18478     18486
     18478     18490     18482     18483     18482     18484     18482     18485
     18486     18487     18486     18488     18486     18489     18490     18491
     18490     18492     18490     18493     18478     18479     18479     18480
     18479     18481     18479     18494     18494     18495     18494     18496
     18494     18500     18501     18502     18500     18497     18497     18501
     18497     18498     18497     18499     18502     18503     18502     18504
     18502     18505     18505     18506     18505     18513     18505     18507
     18513     18514     18513     18515     18513     18516     18507     18508
     18508     18510     18508     18509     18510     18511     18510     18512
     18510     18522     18522     18523     18522     18524     18522     18525
     18525     18526     18525     18527     18525     18528     18528     18529
     18528     18530     18528     18531     18531     18532     18531     18533
     18531     18534     18534     18535     18534     18536     18534     18537
     18537     18538     18537     18539     18537     18540     18540     18541
     18540     18542     18542     18543     18542     18544     18544     18545
     18544     18546     18544     18547     18547     18548     18547     18549
     18547     18550     18550     18551     18550     18552     18550     18553
     18553     18554     18553     18555     18553     18556     18556     18557
     18556     18558     18556     18559     18559     18560     18559     18561
     18559     18562     18562     18563     18562     18564     18562     18565
     18565     18566     18565     18567     18565     18568     18516     18517
     18517     18519     18517     18518     18519     18520     18519     18521
     18519     18569     18569     18570     18569     18571     18569     18572
     18572     18573     18572     18574     18572     18575     18575     18576
     18575     18577     18575     18578     18578     18579     18578     18580
     18578     18581     18581     18582     18581     18583     18581     18584
     18584     18585     18584     18586     18584     18587     18587     18588
     18587     18589     18587     18590     18590     18591     18590     18592
     18590     18593     18593     18594     18593     18595     18593     18596
     18596     18597     18596     18598     18596     18599     18599     18600
     18599     18601     18599     18602     18602     18603     18602     18604
     18602     18605     18605     18606     18605     18607     18605     18608
     18608     18609     18608     18610     18608     18611     18612     18613
     18612     18614     18612     18615     18612     18616     18616     18617
     18616     18618     18616     18619     18619     18620     18619     18621
     18619     18626     18626     18622     18622     18625     18622     18623
     18622     18624     18627     18628     18627     18629     18627     18630
     18627     18625     18630     18631     18630     18638     18630     18632
     18638     18639     18638     18640     18638     18641     18632     18633
     18633     18635     18633     18634     18635     18636     18635     18637
     18635     18647     18647     18648     18647     18649     18647     18650
     18650     18651     18650     18652     18650     18653     18653     18654
     18653     18655     18653     18656     18656     18657     18656     18658
     18656     18659     18659     18660     18659     18661     18659     18662
     18662     18663     18662     18664     18662     18665     18665     18666
     18665     18667     18667     18668     18667     18669     18669     18670
     18669     18671     18669     18672     18672     18673     18672     18674
     18672     18675     18675     18676     18675     18677     18675     18678
     18678     18679     18678     18680     18678     18681     18681     18682
     18681     18683     18681     18684     18684     18685     18684     18686
     18684     18687     18687     18688     18687     18689     18687     18690
     18690     18691     18690     18692     18690     18693     18641     18642
     18642     18644     18642     18643     18644     18645     18644     18646
     18644     18694     18694     18695     18694     18696     18694     18697
     18697     18698     18697     18699     18697     18700     18700     18701
     18700     18702     18700     18703     18703     18704     18703     18705
     18703     18706     18706     18707     18706     18708     18706     18709
     18709     18710     18709     18711     18709     18712     18712     18713
     18712     18714     18712     18715     18715     18716     18715     18717
     18715     18718     18718     18719     18718     18720     18718     18721
     18721     18722     18721     18723     18721     18724     18724     18725
     18724     18726     18724     18727     18727     18728     18727     18729
     18727     18730     18730     18731     18730     18732     18730     18733
     18733     18734     18733     18735     18733     18736     18737     18738
     18737     18739     18737     18740     18737     18741     18741     18742
     18741     18743     18741     18744     18744     18745     18744     18746
     18744     18751     18751     18747     18747     18750     18747     18748
     18747     18749     18752     18753     18752     18754     18752     18755
     18752     18750     18755     18756     18755     18763     18755     18757
     18763     18764     18763     18765     18763     18766     18757     18758
     18758     18760     18758     18759     18760     18761     18760     18762
     18760     18772     18772     18773     18772     18774     18772     18775
     18775     18776     18775     18777     18775     18778     18778     18779
     18778     18780     18778     18781     18781     18782     18781     18783
     18781     18784     18784     18785     18784     18786     18784     18787
     18787     18788     18787     18789     18787     18790     18790     18791
     18790     18792     18792     18793     18792     18794     18794     18795
     18794     18796     18794     18797     18797     18798     18797     18799
     18797     18800     18800     18801     18800     18802     18800     18803
     18803     18804     18803     18805     18803     18806     18806     18807
     18806     18808     18806     18809     18809     18810     18809     18811
     18809     18812     18812     18813     18812     18814     18812     18815
     18815     18816     18815     18817     18815     18818     18766     18767
     18767     18769     18767     18768     18769     18770     18769     18771
     18769     18819     18819     18820     18819     18821     18819     18822
     18822     18823     18822     18824     18822     18825     18825     18826
     18825     18827     18825     18828     18828     18829     18828     18830
     18828     18831     18831     18832     18831     18833     18831     18834
     18834     18835     18834     18836     18834     18837     18837     18838
     18837     18839     18837     18840     18840     18841     18840     18842
     18840     18843     18843     18844     18843     18845     18843     18846
     18846     18847     18846     18848     18846     18849     18849     18850
     18849     18851     18849     18852     18852     18853     18852     18854
     18852     18855     18855     18856     18855     18857     18855     18858
     18858     18859     18858     18860     18858     18861     18862     18863
     18862     18864     18862     18865     18862     18866     18866     18867
     18866     18868     18866     18869     18869     18870     18869     18871
     18869     18876     18876     18872     18872     18875     18872     18873
     18872     18874     18877     18878     18877     18879     18877     18880
     18877     18875     18880     18881     18880     18888     18880     18882
     18888     18889     18888     18890     18888     18891     18882     18883
     18883     18885     18883     18884     18885     18886     18885     18887
     18885     18897     18897     18898     18897     18899     18897     18900
     18900     18901     18900     18902     18900     18903     18903     18904
     18903     18905     18903     18906     18906     18907     18906     18908
     18906     18909     18909     18910     18909     18911     18909     18912
     18912     18913     18912     18914     18912     18915     18915     18916
     18915     18917     18917     18918     18917     18919     18919     18920
     18919     18921     18919     18922     18922     18923     18922     18924
     18922     18925     18925     18926     18925     18927     18925     18928
     18928     18929     18928     18930     18928     18931     18931     18932
     18931     18933     18931     18934     18934     18935     18934     18936
     18934     18937     18937     18938     18937     18939     18937     18940
     18940     18941     18940     18942     18940     18943     18891     18892
     18892     18894     18892     18893     18894     18895     18894     18896
     18894     18944     18944     18945     18944     18946     18944     18947
     18947     18948     18947     18949     18947     18950     18950     18951
     18950     18952     18950     18953     18953     18954     18953     18955
     18953     18956     18956     18957     18956     18958     18956     18959
     18959     18960     18959     18961     18959     18962     18962     18963
     18962     18964     18962     18965     18965     18966     18965     18967
     18965     18968     18968     18969     18968     18970     18968     18971
     18971     18972     18971     18973     18971     18974     18974     18975
     18974     18976     18974     18977     18977     18978     18977     18979
     18977     18980     18980     18981     18980     18982     18980     18983
     18983     18984     18983     18985     18983     18986     18987     18988
     18987     18989     18987     18990     18987     18991     18991     18992
     18991     18993     18991     18994     18994     18995     18994     18996
     18994     19001     19001     18997     18997     19000     18997     18998
     18997     18999     19002     19003     19002     19004     19002     19005
     19002     19000     19005     19006     19005     19013     19005     19007
     19013     19014     19013     19015     19013     19016     19007     19008
     19008     19010     19008     19009     19010     19011     19010     19012
     19010     19022     19022     19023     19022     19024     19022     19025
     19025     19026     19025     19027     19025     19028     19028     19029
     19028     19030     19028     19031     19031     19032     19031     19033
     19031     19034     19034     19035     19034     19036     19034     19037
     19037     19038     19037     19039     19037     19040     19040     19041
     19040     19042     19042     19043     19042     19044     19044     19045
     19044     19046     19044     19047     19047     19048     19047     19049
     19047     19050     19050     19051     19050     19052     19050     19053
     19053     19054     19053     19055     19053     19056     19056     19057
     19056     19058     19056     19059     19059     19060     19059     19061
     19059     19062     19062     19063     19062     19064     19062     19065
     19065     19066     19065     19067     19065     19068     19016     19017
     19017     19019     19017     19018     19019     19020     19019     19021
     19019     19069     19069     19070     19069     19071     19069     19072
     19072     19073     19072     19074     19072     19075     19075     19076
     19075     19077     19075     19078     19078     19079     19078     19080
     19078     19081     19081     19082     19081     19083     19081     19084
     19084     19085     19084     19086     19084     19087     19087     19088
     19087     19089     19087     19090     19090     19091     19090     19092
     19090     19093     19093     19094     19093     19095     19093     19096
     19096     19097     19096     19098     19096     19099     19099     19100
     19099     19101     19099     19102     19102     19103     19102     19104
     19102     19105     19105     19106     19105     19107     19105     19108
     19108     19109     19108     19110     19108     19111     19112     19116
     19112     19120     19112     19124     19116     19117     19116     19118
     19116     19119     19120     19121     19120     19122     19120     19123
     19124     19125     19124     19126     19124     19127     19112     19113
     19113     19114     19113     19115     19113     19128     19128     19129
     19128     19130     19128     19134     19135     19136     19134     19131
     19131     19135     19131     19132     19131     19133     19136     19137
     19136     19138     19136     19139     19139     19140     19139     19147
     19139     19141     19147     19148     19147     19149     19147     19150
     19141     19142     19142     19144     19142     19143     19144     19145
     19144     19146     19144     19156     19156     19157     19156     19158
     19156     19159     19159     19160     19159     19161     19159     19162
     19162     19163     19162     19164     19162     19165     19165     19166
     19165     19167     19165     19168     19168     19169     19168     19170
     19168     19171     19171     19172     19171     19173     19171     19174
     19174     19175     19174     19176     19176     19177     19176     19178
     19178     19179     19178     19180     19178     19181     19181     19182
     19181     19183     19181     19184     19184     19185     19184     19186
     19184     19187     19187     19188     19187     19189     19187     19190
     19190     19191     19190     19192     19190     19193     19193     19194
     19193     19195     19193     19196     19196     19197     19196     19198
     19196     19199     19199     19200     19199     19201     19199     19202
     19150     19151     19151     19153     19151     19152     19153     19154
     19153     19155     19153     19203     19203     19204     19203     19205
     19203     19206     19206     19207     19206     19208     19206     19209
     19209     19210     19209     19211     19209     19212     19212     19213
     19212     19214     19212     19215     19215     19216     19215     19217
     19215     19218     19218     19219     19218     19220     19218     19221
     19221     19222     19221     19223     19221     19224     19224     19225
     19224     19226     19224     19227     19227     19228     19227     19229
     19227     19230     19230     19231     19230     19232     19230     19233
     19233     19234     19233     19235     19233     19236     19236     19237
     19236     19238     19236     19239     19239     19240     19239     19241
     19239     19242     19242     19243     19242     19244     19242     19245
     19246     19250     19246     19254     19246     19258     19250     19251
     19250     19252     19250     19253     19254     19255     19254     19256
     19254     19257     19258     19259     19258     19260     19258     19261
     19246     19247     19247     19248     19247     19249     19247     19262
     19262     19263     19262     19264     19262     19268     19269     19270
     19268     19265     19265     19269     19265     19266     19265     19267
     19270     19271     19270     19272     19270     19273     19273     19274
     19273     19281     19273     19275     19281     19282     19281     19283
     19281     19284     19275     19276     19276     19278     19276     19277
     19278     19279     19278     19280     19278     19290     19290     19291
     19290     19292     19290     19293     19293     19294     19293     19295
     19293     19296     19296     19297     19296     19298     19296     19299
     19299     19300     19299     19301     19299     19302     19302     19303
     19302     19304     19302     19305     19305     19306     19305     19307
     19305     19308     19308     19309     19308     19310     19310     19311
     19310     19312     19312     19313     19312     19314     19312     19315
     19315     19316     19315     19317     19315     19318     19318     19319
     19318     19320     19318     19321     19321     19322     19321     19323
     19321     19324     19324     19325     19324     19326     19324     19327
     19327     19328     19327     19329     19327     19330     19330     19331
     19330     19332     19330     19333     19333     19334     19333     19335
     19333     19336     19284     19285     19285     19287     19285     19286
     19287     19288     19287     19289     19287     19337     19337     19338
     19337     19339     19337     19340     19340     19341     19340     19342
     19340     19343     19343     19344     19343     19345     19343     19346
     19346     19347     19346     19348     19346     19349     19349     19350
     19349     19351     19349     19352     19352     19353     19352     19354
     19352     19355     19355     19356     19355     19357     19355     19358
     19358     19359     19358     19360     19358     19361     19361     19362
     19361     19363     19361     19364     19364     19365     19364     19366
     19364     19367     19367     19368     19367     19369     19367     19370
     19370     19371     19370     19372     19370     19373     19373     19374
     19373     19375     19373     19376     19376     19377     19376     19378
     19376     19379     19380     19381     19380     19382     19380     19383
     19380     19384     19384     19385     19384     19386     19384     19387
     19387     19388     19387     19389     19387     19394     19394     19390
     19390     19393     19390     19391     19390     19392     19395     19396
     19395     19397     19395     19398     19395     19393     19398     19399
     19398     19406     19398     19400     19406     19407     19406     19408
     19406     19409     19400     19401     19401     19403     19401     19402
     19403     19404     19403     19405     19403     19415     19415     19416
     19415     19417     19415     19418     19418     19419     19418     19420
     19418     19421     19421     19422     19421     19423     19421     19424
     19424     19425     19424     19426     19424     19427     19427     19428
     19427     19429     19427     19430     19430     19431     19430     19432
     19430     19433     19433     19434     19433     19435     19435     19436
     19435     19437     19437     19438     19437     19439     19437     19440
     19440     19441     19440     19442     19440     19443     19443     19444
     19443     19445     19443     19446     19446     19447     19446     19448
     19446     19449     19449     19450     19449     19451     19449     19452
     19452     19453     19452     19454     19452     19455     19455     19456
     19455     19457     19455     19458     19458     19459     19458     19460
     19458     19461     19409     19410     19410     19412     19410     19411
     19412     19413     19412     19414     19412     19462     19462     19463
     19462     19464     19462     19465     19465     19466     19465     19467
     19465     19468     19468     19469     19468     19470     19468     19471
     19471     19472     19471     19473     19471     19474     19474     19475
     19474     19476     19474     19477     19477     19478     19477     19479
     19477     19480     19480     19481     19480     19482     19480     19483
     19483     19484     19483     19485     19483     19486     19486     19487
     19486     19488     19486     19489     19489     19490     19489     19491
     19489     19492     19492     19493     19492     19494     19492     19495
     19495     19496     19495     19497     19495     19498     19498     19499
     19498     19500     19498     19501     19501     19502     19501     19503
     19501     19504     19505     19509     19505     19513     19505     19517
     19509     19510     19509     19511     19509     19512     19513     19514
     19513     19515     19513     19516     19517     19518     19517     19519
     19517     19520     19505     19506     19506     19507     19506     19508
     19506     19521     19521     19522     19521     19523     19521     19527
     19528     19529     19527     19524     19524     19528     19524     19525
     19524     19526     19529     19530     19529     19531     19529     19532
     19532     19533     19532     19540     19532     19534     19540     19541
     19540     19542     19540     19543     19534     19535     19535     19537
     19535     19536     19537     19538     19537     19539     19537     19549
     19549     19550     19549     19551     19549     19552     19552     19553
     19552     19554     19552     19555     19555     19556     19555     19557
     19555     19558     19558     19559     19558     19560     19558     19561
     19561     19562     19561     19563     19561     19564     19564     19565
     19564     19566     19564     19567     19567     19568     19567     19569
     19569     19570     19569     19571     19571     19572     19571     19573
     19571     19574     19574     19575     19574     19576     19574     19577
     19577     19578     19577     19579     19577     19580     19580     19581
     19580     19582     19580     19583     19583     19584     19583     19585
     19583     19586     19586     19587     19586     19588     19586     19589
     19589     19590     19589     19591     19589     19592     19592     19593
     19592     19594     19592     19595     19543     19544     19544     19546
     19544     19545     19546     19547     19546     19548     19546     19596
     19596     19597     19596     19598     19596     19599     19599     19600
     19599     19601     19599     19602     19602     19603     19602     19604
     19602     19605     19605     19606     19605     19607     19605     19608
     19608     19609     19608     19610     19608     19611     19611     19612
     19611     19613     19611     19614     19614     19615     19614     19616
     19614     19617     19617     19618     19617     19619     19617     19620
     19620     19621     19620     19622     19620     19623     19623     19624
     19623     19625     19623     19626     19626     19627     19626     19628
     19626     19629     19629     19630     19629     19631     19629     19632
     19632     19633     19632     19634     19632     19635     19635     19636
     19635     19637     19635     19638     19639     19643     19639     19647
     19639     19651     19643     19644     19643     19645     19643     19646
     19647     19648     19647     19649     19647     19650     19651     19652
     19651     19653     19651     19654     19639     19640     19640     19641
     19640     19642     19640     19655     19655     19656     19655     19657
     19655     19661     19662     19663     19661     19658     19658     19662
     19658     19659     19658     19660     19663     19664     19663     19665
     19663     19666     19666     19667     19666     19674     19666     19668
     19674     19675     19674     19676     19674     19677     19668     19669
     19669     19671     19669     19670     19671     19672     19671     19673
     19671     19683     19683     19684     19683     19685     19683     19686
     19686     19687     19686     19688     19686     19689     19689     19690
     19689     19691     19689     19692     19692     19693     19692     19694
     19692     19695     19695     19696     19695     19697     19695     19698
     19698     19699     19698     19700     19698     19701     19701     19702
     19701     19703     19703     19704     19703     19705     19705     19706
     19705     19707     19705     19708     19708     19709     19708     19710
     19708     19711     19711     19712     19711     19713     19711     19714
     19714     19715     19714     19716     19714     19717     19717     19718
     19717     19719     19717     19720     19720     19721     19720     19722
     19720     19723     19723     19724     19723     19725     19723     19726
     19726     19727     19726     19728     19726     19729     19677     19678
     19678     19680     19678     19679     19680     19681     19680     19682
     19680     19730     19730     19731     19730     19732     19730     19733
     19733     19734     19733     19735     19733     19736     19736     19737
     19736     19738     19736     19739     19739     19740     19739     19741
     19739     19742     19742     19743     19742     19744     19742     19745
     19745     19746     19745     19747     19745     19748     19748     19749
     19748     19750     19748     19751     19751     19752     19751     19753
     19751     19754     19754     19755     19754     19756     19754     19757
     19757     19758     19757     19759     19757     19760     19760     19761
     19760     19762     19760     19763     19763     19764     19763     19765
     19763     19766     19766     19767     19766     19768     19766     19769
     19769     19770     19769     19771     19769     19772     19773     19774
     19773     19775     19773     19776     19773     19777     19777     19778
     19777     19779     19777     19780     19780     19781     19780     19782
     19780     19787     19787     19783     19783     19786     19783     19784
     19783     19785     19788     19789     19788     19790     19788     19791
     19788     19786     19791     19792     19791     19799     19791     19793
     19799     19800     19799     19801     19799     19802     19793     19794
     19794     19796     19794     19795     19796     19797     19796     19798
     19796     19808     19808     19809     19808     19810     19808     19811
     19811     19812     19811     19813     19811     19814     19814     19815
     19814     19816     19814     19817     19817     19818     19817     19819
     19817     19820     19820     19821     19820     19822     19820     19823
     19823     19824     19823     19825     19823     19826     19826     19827
     19826     19828     19828     19829     19828     19830     19830     19831
     19830     19832     19830     19833     19833     19834     19833     19835
     19833     19836     19836     19837     19836     19838     19836     19839
     19839     19840     19839     19841     19839     19842     19842     19843
     19842     19844     19842     19845     19845     19846     19845     19847
     19845     19848     19848     19849     19848     19850     19848     19851
     19851     19852     19851     19853     19851     19854     19802     19803
     19803     19805     19803     19804     19805     19806     19805     19807
     19805     19855     19855     19856     19855     19857     19855     19858
     19858     19859     19858     19860     19858     19861     19861     19862
     19861     19863     19861     19864     19864     19865     19864     19866
     19864     19867     19867     19868     19867     19869     19867     19870
     19870     19871     19870     19872     19870     19873     19873     19874
     19873     19875     19873     19876     19876     19877     19876     19878
     19876     19879     19879     19880     19879     19881     19879     19882
     19882     19883     19882     19884     19882     19885     19885     19886
     19885     19887     19885     19888     19888     19889     19888     19890
     19888     19891     19891     19892     19891     19893     19891     19894
     19894     19895     19894     19896     19894     19897     19898     19899
     19898     19900     19898     19901     19898     19902     19902     19903
     19902     19904     19902     19905     19905     19906     19905     19907
     19905     19912     19912     19908     19908     19911     19908     19909
     19908     19910     19913     19914     19913     19915     19913     19916
     19913     19911     19916     19917     19916     19924     19916     19918
     19924     19925     19924     19926     19924     19927     19918     19919
     19919     19921     19919     19920     19921     19922     19921     19923
     19921     19933     19933     19934     19933     19935     19933     19936
     19936     19937     19936     19938     19936     19939     19939     19940
     19939     19941     19939     19942     19942     19943     19942     19944
     19942     19945     19945     19946     19945     19947     19945     19948
     19948     19949     19948     19950     19948     19951     19951     19952
     19951     19953     19953     19954     19953     19955     19955     19956
     19955     19957     19955     19958     19958     19959     19958     19960
     19958     19961     19961     19962     19961     19963     19961     19964
     19964     19965     19964     19966     19964     19967     19967     19968
     19967     19969     19967     19970     19970     19971     19970     19972
     19970     19973     19973     19974     19973     19975     19973     19976
     19976     19977     19976     19978     19976     19979     19927     19928
     19928     19930     19928     19929     19930     19931     19930     19932
     19930     19980     19980     19981     19980     19982     19980     19983
     19983     19984     19983     19985     19983     19986     19986     19987
     19986     19988     19986     19989     19989     19990     19989     19991
     19989     19992     19992     19993     19992     19994     19992     19995
     19995     19996     19995     19997     19995     19998     19998     19999
     19998     20000     19998     20001     20001     20002     20001     20003
     20001     20004     20004     20005     20004     20006     20004     20007
     20007     20008     20007     20009     20007     20010     20010     20011
     20010     20012     20010     20013     20013     20014     20013     20015
     20013     20016     20016     20017     20016     20018     20016     20019
     20019     20020     20019     20021     20019     20022     20023     20027
     20023     20031     20023     20035     20027     20028     20027     20029
     20027     20030     20031     20032     20031     20033     20031     20034
     20035     20036     20035     20037     20035     20038     20023     20024
     20024     20025     20024     20026     20024     20039     20039     20040
     20039     20041     20039     20045     20046     20047     20045     20042
     20042     20046     20042     20043     20042     20044     20047     20048
     20047     20049     20047     20050     20050     20051     20050     20058
     20050     20052     20058     20059     20058     20060     20058     20061
     20052     20053     20053     20055     20053     20054     20055     20056
     20055     20057     20055     20067     20067     20068     20067     20069
     20067     20070     20070     20071     20070     20072     20070     20073
     20073     20074     20073     20075     20073     20076     20076     20077
     20076     20078     20076     20079     20079     20080     20079     20081
     20079     20082     20082     20083     20082     20084     20082     20085
     20085     20086     20085     20087     20087     20088     20087     20089
     20089     20090     20089     20091     20089     20092     20092     20093
     20092     20094     20092     20095     20095     20096     20095     20097
     20095     20098     20098     20099     20098     20100     20098     20101
     20101     20102     20101     20103     20101     20104     20104     20105
     20104     20106     20104     20107     20107     20108     20107     20109
     20107     20110     20110     20111     20110     20112     20110     20113
     20061     20062     20062     20064     20062     20063     20064     20065
     20064     20066     20064     20114     20114     20115     20114     20116
     20114     20117     20117     20118     20117     20119     20117     20120
     20120     20121     20120     20122     20120     20123     20123     20124
     20123     20125     20123     20126     20126     20127     20126     20128
     20126     20129     20129     20130     20129     20131     20129     20132
     20132     20133     20132     20134     20132     20135     20135     20136
     20135     20137     20135     20138     20138     20139     20138     20140
     20138     20141     20141     20142     20141     20143     20141     20144
     20144     20145     20144     20146     20144     20147     20147     20148
     20147     20149     20147     20150     20150     20151     20150     20152
     20150     20153     20153     20154     20153     20155     20153     20156
     20157     20161     20157     20165     20157     20169     20161     20162
     20161     20163     20161     20164     20165     20166     20165     20167
     20165     20168     20169     20170     20169     20171     20169     20172
     20157     20158     20158     20159     20158     20160     20158     20173
     20173     20174     20173     20175     20173     20179     20180     20181
     20179     20176     20176     20180     20176     20177     20176     20178
     20181     20182     20181     20183     20181     20184     20184     20185
     20184     20192     20184     20186     20192     20193     20192     20194
     20192     20195     20186     20187     20187     20189     20187     20188
     20189     20190     20189     20191     20189     20201     20201     20202
     20201     20203     20201     20204     20204     20205     20204     20206
     20204     20207     20207     20208     20207     20209     20207     20210
     20210     20211     20210     20212     20210     20213     20213     20214
     20213     20215     20213     20216     20216     20217     20216     20218
     20216     20219     20219     20220     20219     20221     20221     20222
     20221     20223     20223     20224     20223     20225     20223     20226
     20226     20227     20226     20228     20226     20229     20229     20230
     20229     20231     20229     20232     20232     20233     20232     20234
     20232     20235     20235     20236     20235     20237     20235     20238
     20238     20239     20238     20240     20238     20241     20241     20242
     20241     20243     20241     20244     20244     20245     20244     20246
     20244     20247     20195     20196     20196     20198     20196     20197
     20198     20199     20198     20200     20198     20248     20248     20249
     20248     20250     20248     20251     20251     20252     20251     20253
     20251     20254     20254     20255     20254     20256     20254     20257
     20257     20258     20257     20259     20257     20260     20260     20261
     20260     20262     20260     20263     20263     20264     20263     20265
     20263     20266     20266     20267     20266     20268     20266     20269
     20269     20270     20269     20271     20269     20272     20272     20273
     20272     20274     20272     20275     20275     20276     20275     20277
     20275     20278     20278     20279     20278     20280     20278     20281
     20281     20282     20281     20283     20281     20284     20284     20285
     20284     20286     20284     20287     20287     20288     20287     20289
     20287     20290     20291     20292     20291     20293     20291     20294
     20291     20295     20295     20296     20295     20297     20295     20298
     20298     20299     20298     20300     20298     20305     20305     20301
     20301     20304     20301     20302     20301     20303     20306     20307
     20306     20308     20306     20309     20306     20304     20309     20310
     20309     20317     20309     20311     20317     20318     20317     20319
     20317     20320     20311     20312     20312     20314     20312     20313
     20314     20315     20314     20316     20314     20326     20326     20327
     20326     20328     20326     20329     20329     20330     20329     20331
     20329     20332     20332     20333     20332     20334     20332     20335
     20335     20336     20335     20337     20335     20338     20338     20339
     20338     20340     20338     20341     20341     20342     20341     20343
     20341     20344     20344     20345     20344     20346     20346     20347
     20346     20348     20348     20349     20348     20350     20348     20351
     20351     20352     20351     20353     20351     20354     20354     20355
     20354     20356     20354     20357     20357     20358     20357     20359
     20357     20360     20360     20361     20360     20362     20360     20363
     20363     20364     20363     20365     20363     20366     20366     20367
     20366     20368     20366     20369     20369     20370     20369     20371
     20369     20372     20320     20321     20321     20323     20321     20322
     20323     20324     20323     20325     20323     20373     20373     20374
     20373     20375     20373     20376     20376     20377     20376     20378
     20376     20379     20379     20380     20379     20381     20379     20382
     20382     20383     20382     20384     20382     20385     20385     20386
     20385     20387     20385     20388     20388     20389     20388     20390
     20388     20391     20391     20392     20391     20393     20391     20394
     20394     20395     20394     20396     20394     20397     20397     20398
     20397     20399     20397     20400     20400     20401     20400     20402
     20400     20403     20403     20404     20403     20405     20403     20406
     20406     20407     20406     20408     20406     20409     20409     20410
     20409     20411     20409     20412     20412     20413     20412     20414
     20412     20415     20416     20420     20416     20424     20416     20428
     20420     20421     20420     20422     20420     20423     20424     20425
     20424     20426     20424     20427     20428     20429     20428     20430
     20428     20431     20416     20417     20417     20418     20417     20419
     20417     20432     20432     20433     20432     20434     20432     20438
     20439     20440     20438     20435     20435     20439     20435     20436
     20435     20437     20440     20441     20440     20442     20440     20443
     20443     20444     20443     20451     20443     20445     20451     20452
     20451     20453     20451     20454     20445     20446     20446     20448
     20446     20447     20448     20449     20448     20450     20448     20460
     20460     20461     20460     20462     20460     20463     20463     20464
     20463     20465     20463     20466     20466     20467     20466     20468
     20466     20469     20469     20470     20469     20471     20469     20472
     20472     20473     20472     20474     20472     20475     20475     20476
     20475     20477     20475     20478     20478     20479     20478     20480
     20480     20481     20480     20482     20482     20483     20482     20484
     20482     20485     20485     20486     20485     20487     20485     20488
     20488     20489     20488     20490     20488     20491     20491     20492
     20491     20493     20491     20494     20494     20495     20494     20496
     20494     20497     20497     20498     20497     20499     20497     20500
     20500     20501     20500     20502     20500     20503     20503     20504
     20503     20505     20503     20506     20454     20455     20455     20457
     20455     20456     20457     20458     20457     20459     20457     20507
     20507     20508     20507     20509     20507     20510     20510     20511
     20510     20512     20510     20513     20513     20514     20513     20515
     20513     20516     20516     20517     20516     20518     20516     20519
     20519     20520     20519     20521     20519     20522     20522     20523
     20522     20524     20522     20525     20525     20526     20525     20527
     20525     20528     20528     20529     20528     20530     20528     20531
     20531     20532     20531     20533     20531     20534     20534     20535
     20534     20536     20534     20537     20537     20538     20537     20539
     20537     20540     20540     20541     20540     20542     20540     20543
     20543     20544     20543     20545     20543     20546     20546     20547
     20546     20548     20546     20549     20550     20554     20550     20558
     20550     20562     20554     20555     20554     20556     20554     20557
     20558     20559     20558     20560     20558     20561     20562     20563
     20562     20564     20562     20565     20550     20551     20551     20552
     20551     20553     20551     20566     20566     20567     20566     20568
     20566     20572     20573     20574     20572     20569     20569     20573
     20569     20570     20569     20571     20574     20575     20574     20576
     20574     20577     20577     20578     20577     20585     20577     20579
     20585     20586     20585     20587     20585     20588     20579     20580
     20580     20582     20580     20581     20582     20583     20582     20584
     20582     20594     20594     20595     20594     20596     20594     20597
     20597     20598     20597     20599     20597     20600     20600     20601
     20600     20602     20600     20603     20603     20604     20603     20605
     20603     20606     20606     20607     20606     20608     20606     20609
     20609     20610     20609     20611     20609     20612     20612     20613
     20612     20614     20614     20615     20614     20616     20616     20617
     20616     20618     20616     20619     20619     20620     20619     20621
     20619     20622     20622     20623     20622     20624     20622     20625
     20625     20626     20625     20627     20625     20628     20628     20629
     20628     20630     20628     20631     20631     20632     20631     20633
     20631     20634     20634     20635     20634     20636     20634     20637
     20637     20638     20637     20639     20637     20640     20588     20589
     20589     20591     20589     20590     20591     20592     20591     20593
     20591     20641     20641     20642     20641     20643     20641     20644
     20644     20645     20644     20646     20644     20647     20647     20648
     20647     20649     20647     20650     20650     20651     20650     20652
     20650     20653     20653     20654     20653     20655     20653     20656
     20656     20657     20656     20658     20656     20659     20659     20660
     20659     20661     20659     20662     20662     20663     20662     20664
     20662     20665     20665     20666     20665     20667     20665     20668
     20668     20669     20668     20670     20668     20671     20671     20672
     20671     20673     20671     20674     20674     20675     20674     20676
     20674     20677     20677     20678     20677     20679     20677     20680
     20680     20681     20680     20682     20680     20683     20684     20688
     20684     20692     20684     20696     20688     20689     20688     20690
     20688     20691     20692     20693     20692     20694     20692     20695
     20696     20697     20696     20698     20696     20699     20684     20685
     20685     20686     20685     20687     20685     20700     20700     20701
     20700     20702     20700     20706     20707     20708     20706     20703
     20703     20707     20703     20704     20703     20705     20708     20709
     20708     20710     20708     20711     20711     20712     20711     20719
     20711     20713     20719     20720     20719     20721     20719     20722
     20713     20714     20714     20716     20714     20715     20716     20717
     20716     20718     20716     20728     20728     20729     20728     20730
     20728     20731     20731     20732     20731     20733     20731     20734
     20734     20735     20734     20736     20734     20737     20737     20738
     20737     20739     20737     20740     20740     20741     20740     20742
     20740     20743     20743     20744     20743     20745     20743     20746
     20746     20747     20746     20748     20748     20749     20748     20750
     20750     20751     20750     20752     20750     20753     20753     20754
     20753     20755     20753     20756     20756     20757     20756     20758
     20756     20759     20759     20760     20759     20761     20759     20762
     20762     20763     20762     20764     20762     20765     20765     20766
     20765     20767     20765     20768     20768     20769     20768     20770
     20768     20771     20771     20772     20771     20773     20771     20774
     20722     20723     20723     20725     20723     20724     20725     20726
     20725     20727     20725     20775     20775     20776     20775     20777
     20775     20778     20778     20779     20778     20780     20778     20781
     20781     20782     20781     20783     20781     20784     20784     20785
     20784     20786     20784     20787     20787     20788     20787     20789
     20787     20790     20790     20791     20790     20792     20790     20793
     20793     20794     20793     20795     20793     20796     20796     20797
     20796     20798     20796     20799     20799     20800     20799     20801
     20799     20802     20802     20803     20802     20804     20802     20805
     20805     20806     20805     20807     20805     20808     20808     20809
     20808     20810     20808     20811     20811     20812     20811     20813
     20811     20814     20814     20815     20814     20816     20814     20817
     20818     20819     20818     20820     20818     20821     20818     20822
     20822     20823     20822     20824     20822     20825     20825     20826
     20825     20827     20825     20832     20832     20828     20828     20831
     20828     20829     20828     20830     20833     20834     20833     20835
     20833     20836     20833     20831     20836     20837     20836     20844
     20836     20838     20844     20845     20844     20846     20844     20847
     20838     20839     20839     20841     20839     20840     20841     20842
     20841     20843     20841     20853     20853     20854     20853     20855
     20853     20856     20856     20857     20856     20858     20856     20859
     20859     20860     20859     20861     20859     20862     20862     20863
     20862     20864     20862     20865     20865     20866     20865     20867
     20865     20868     20868     20869     20868     20870     20868     20871
     20871     20872     20871     20873     20873     20874     20873     20875
     20875     20876     20875     20877     20875     20878     20878     20879
     20878     20880     20878     20881     20881     20882     20881     20883
     20881     20884     20884     20885     20884     20886     20884     20887
     20887     20888     20887     20889     20887     20890     20890     20891
     20890     20892     20890     20893     20893     20894     20893     20895
     20893     20896     20896     20897     20896     20898     20896     20899
     20847     20848     20848     20850     20848     20849     20850     20851
     20850     20852     20850     20900     20900     20901     20900     20902
     20900     20903     20903     20904     20903     20905     20903     20906
     20906     20907     20906     20908     20906     20909     20909     20910
     20909     20911     20909     20912     20912     20913     20912     20914
     20912     20915     20915     20916     20915     20917     20915     20918
     20918     20919     20918     20920     20918     20921     20921     20922
     20921     20923     20921     20924     20924     20925     20924     20926
     20924     20927     20927     20928     20927     20929     20927     20930
     20930     20931     20930     20932     20930     20933     20933     20934
     20933     20935     20933     20936     20936     20937     20936     20938
     20936     20939     20939     20940     20939     20941     20939     20942
     20943     20945     20943     20944     20945     20946     20943     20989
     20989     20990     20989     20991     20989     20986     20986     20987
     20986     20988     20943     20947     20947     20948     20947     20949
     20947     20950     20950     20981     20981     20986     20981     20982
     20982     20983     20982     20984     20982     20985     20950     20951
     20951     20952     20951     20953     20953     20954     20953     20955
     20953     20956     20956     20957     20956     20979     20979     20980
     20979     20981     20956     20958     20958     20959     20958     20968
     20968     20973     20973     20974     20973     20975     20973     20976
     20976     20977     20976     20978     20976     20979     20968     20969
     20969     20970     20969     20971     20969     20972     20958     20960
     20960     20961     20960     20962     20960     20963     20963     20964
     20963     20965     20963     20966     20966     20967     20966     20968
     20966     20992     20992     20993     20992     20994     20994     20995
     20994     20996     20994     20997     20992     20998     20998     20999
     20998     21000     20998     21001     21001     21002     21001     21003
     21001     21004     21004     21005     21004     21006     21004     21007
     21007     21008     21007     21009     21009     21010     21009     21011
     21009     21012     21007     21013     21013     21014     21013     21015
     21013     21016     21017     21019     21017     21018     21019     21020
     21017     21063     21063     21064     21063     21065     21063     21060
     21060     21061     21060     21062     21017     21021     21021     21022
     21021     21023     21021     21024     21024     21055     21055     21060
     21055     21056     21056     21057     21056     21058     21056     21059
     21024     21025     21025     21026     21025     21027     21027     21028
     21027     21029     21027     21030     21030     21031     21030     21053
     21053     21054     21053     21055     21030     21032     21032     21033
     21032     21042     21042     21047     21047     21048     21047     21049
     21047     21050     21050     21051     21050     21052     21050     21053
     21042     21043     21043     21044     21043     21045     21043     21046
     21032     21034     21034     21035     21034     21036     21034     21037
     21037     21038     21037     21039     21037     21040     21040     21041
     21040     21042     21040     21066     21066     21067     21066     21068
     21068     21069     21068     21070     21068     21071     21066     21072
     21072     21073     21072     21074     21072     21075     21075     21076
     21075     21077     21075     21078     21078     21079     21078     21080
     21078     21081     21081     21082     21081     21083     21083     21084
     21083     21085     21083     21086     21081     21087     21087     21088
     21087     21089     21087     21090     21091     21093     21091     21092
     21093     21094     21091     21137     21137     21138     21137     21139
     21137     21134     21134     21135     21134     21136     21091     21095
     21095     21096     21095     21097     21095     21098     21098     21129
     21129     21134     21129     21130     21130     21131     21130     21132
     21130     21133     21098     21099     21099     21100     21099     21101
     21101     21102     21101     21103     21101     21104     21104     21105
     21104     21127     21127     21128     21127     21129     21104     21106
     21106     21107     21106     21116     21116     21121     21121     21122
     21121     21123     21121     21124     21124     21125     21124     21126
     21124     21127     21116     21117     21117     21118     21117     21119
     21117     21120     21106     21108     21108     21109     21108     21110
     21108     21111     21111     21112     21111     21113     21111     21114
     21114     21115     21114     21116     21114     21140     21140     21141
     21140     21142     21142     21143     21142     21144     21142     21145
     21140     21146     21146     21147     21146     21148     21146     21149
     21149     21150     21149     21151     21149     21152     21152     21153
     21152     21154     21152     21155     21155     21156     21155     21157
     21157     21158     21157     21159     21157     21160     21155     21161
     21161     21162     21161     21163     21161     21164     21165     21167
     21165     21166     21167     21168     21165     21211     21211     21212
     21211     21213     21211     21208     21208     21209     21208     21210
     21165     21169     21169     21170     21169     21171     21169     21172
     21172     21203     21203     21208     21203     21204     21204     21205
     21204     21206     21204     21207     21172     21173     21173     21174
     21173     21175     21175     21176     21175     21177     21175     21178
     21178     21179     21178     21201     21201     21202     21201     21203
     21178     21180     21180     21181     21180     21190     21190     21195
     21195     21196     21195     21197     21195     21198     21198     21199
     21198     21200     21198     21201     21190     21191     21191     21192
     21191     21193     21191     21194     21180     21182     21182     21183
     21182     21184     21182     21185     21185     21186     21185     21187
     21185     21188     21188     21189     21188     21190     21188     21214
     21214     21215     21214     21216     21216     21217     21216     21218
     21216     21219     21214     21220     21220     21221     21220     21222
     21220     21223     21223     21224     21223     21225     21223     21226
     21226     21227     21226     21228     21226     21229     21229     21230
     21229     21231     21231     21232     21231     21233     21231     21234
     21229     21235     21235     21236     21235     21237     21235     21238
     21239     21241     21239     21240     21241     21242     21239     21285
     21285     21286     21285     21287     21285     21282     21282     21283
     21282     21284     21239     21243     21243     21244     21243     21245
     21243     21246     21246     21277     21277     21282     21277     21278
     21278     21279     21278     21280     21278     21281     21246     21247
     21247     21248     21247     21249     21249     21250     21249     21251
     21249     21252     21252     21253     21252     21275     21275     21276
     21275     21277     21252     21254     21254     21255     21254     21264
     21264     21269     21269     21270     21269     21271     21269     21272
     21272     21273     21272     21274     21272     21275     21264     21265
     21265     21266     21265     21267     21265     21268     21254     21256
     21256     21257     21256     21258     21256     21259     21259     21260
     21259     21261     21259     21262     21262     21263     21262     21264
     21262     21288     21288     21289     21288     21290     21290     21291
     21290     21292     21290     21293     21288     21294     21294     21295
     21294     21296     21294     21297     21297     21298     21297     21299
     21297     21300     21300     21301     21300     21302     21300     21303
     21303     21304     21303     21305     21305     21306     21305     21307
     21305     21308     21303     21309     21309     21310     21309     21311
     21309     21312     21313     21315     21313     21314     21315     21316
     21313     21359     21359     21360     21359     21361     21359     21356
     21356     21357     21356     21358     21313     21317     21317     21318
     21317     21319     21317     21320     21320     21351     21351     21356
     21351     21352     21352     21353     21352     21354     21352     21355
     21320     21321     21321     21322     21321     21323     21323     21324
     21323     21325     21323     21326     21326     21327     21326     21349
     21349     21350     21349     21351     21326     21328     21328     21329
     21328     21338     21338     21343     21343     21344     21343     21345
     21343     21346     21346     21347     21346     21348     21346     21349
     21338     21339     21339     21340     21339     21341     21339     21342
     21328     21330     21330     21331     21330     21332     21330     21333
     21333     21334     21333     21335     21333     21336     21336     21337
     21336     21338     21336     21362     21362     21363     21362     21364
     21364     21365     21364     21366     21364     21367     21362     21368
     21368     21369     21368     21370     21368     21371     21371     21372
     21371     21373     21371     21374     21374     21375     21374     21376
     21374     21377     21377     21378     21377     21379     21379     21380
     21379     21381     21379     21382     21377     21383     21383     21384
     21383     21385     21383     21386     21387     21389     21387     21388
     21389     21390     21387     21433     21433     21434     21433     21435
     21433     21430     21430     21431     21430     21432     21387     21391
     21391     21392     21391     21393     21391     21394     21394     21425
     21425     21430     21425     21426     21426     21427     21426     21428
     21426     21429     21394     21395     21395     21396     21395     21397
     21397     21398     21397     21399     21397     21400     21400     21401
     21400     21423     21423     21424     21423     21425     21400     21402
     21402     21403     21402     21412     21412     21417     21417     21418
     21417     21419     21417     21420     21420     21421     21420     21422
     21420     21423     21412     21413     21413     21414     21413     21415
     21413     21416     21402     21404     21404     21405     21404     21406
     21404     21407     21407     21408     21407     21409     21407     21410
     21410     21411     21410     21412     21410     21436     21436     21437
     21436     21438     21438     21439     21438     21440     21438     21441
     21436     21442     21442     21443     21442     21444     21442     21445
     21445     21446     21445     21447     21445     21448     21448     21449
     21448     21450     21448     21451     21451     21452     21451     21453
     21453     21454     21453     21455     21453     21456     21451     21457
     21457     21458     21457     21459     21457     21460     21461     21463
     21461     21462     21463     21464     21461     21507     21507     21508
     21507     21509     21507     21504     21504     21505     21504     21506
     21461     21465     21465     21466     21465     21467     21465     21468
     21468     21499     21499     21504     21499     21500     21500     21501
     21500     21502     21500     21503     21468     21469     21469     21470
     21469     21471     21471     21472     21471     21473     21471     21474
     21474     21475     21474     21497     21497     21498     21497     21499
     21474     21476     21476     21477     21476     21486     21486     21491
     21491     21492     21491     21493     21491     21494     21494     21495
     21494     21496     21494     21497     21486     21487     21487     21488
     21487     21489     21487     21490     21476     21478     21478     21479
     21478     21480     21478     21481     21481     21482     21481     21483
     21481     21484     21484     21485     21484     21486     21484     21510
     21510     21511     21510     21512     21512     21513     21512     21514
     21512     21515     21510     21516     21516     21517     21516     21518
     21516     21519     21519     21520     21519     21521     21519     21522
     21522     21523     21522     21524     21522     21525     21525     21526
     21525     21527     21527     21528     21527     21529     21527     21530
     21525     21531     21531     21532     21531     21533     21531     21534
     21535     21537     21535     21536     21537     21538     21535     21581
     21581     21582     21581     21583     21581     21578     21578     21579
     21578     21580     21535     21539     21539     21540     21539     21541
     21539     21542     21542     21573     21573     21578     21573     21574
     21574     21575     21574     21576     21574     21577     21542     21543
     21543     21544     21543     21545     21545     21546     21545     21547
     21545     21548     21548     21549     21548     21571     21571     21572
     21571     21573     21548     21550     21550     21551     21550     21560
     21560     21565     21565     21566     21565     21567     21565     21568
     21568     21569     21568     21570     21568     21571     21560     21561
     21561     21562     21561     21563     21561     21564     21550     21552
     21552     21553     21552     21554     21552     21555     21555     21556
     21555     21557     21555     21558     21558     21559     21558     21560
     21558     21584     21584     21585     21584     21586     21586     21587
     21586     21588     21586     21589     21584     21590     21590     21591
     21590     21592     21590     21593     21593     21594     21593     21595
     21593     21596     21596     21597     21596     21598     21596     21599
     21599     21600     21599     21601     21601     21602     21601     21603
     21601     21604     21599     21605     21605     21606     21605     21607
     21605     21608     21609     21611     21609     21610     21611     21612
     21609     21655     21655     21656     21655     21657     21655     21652
     21652     21653     21652     21654     21609     21613     21613     21614
     21613     21615     21613     21616     21616     21647     21647     21652
     21647     21648     21648     21649     21648     21650     21648     21651
     21616     21617     21617     21618     21617     21619     21619     21620
     21619     21621     21619     21622     21622     21623     21622     21645
     21645     21646     21645     21647     21622     21624     21624     21625
     21624     21634     21634     21639     21639     21640     21639     21641
     21639     21642     21642     21643     21642     21644     21642     21645
     21634     21635     21635     21636     21635     21637     21635     21638
     21624     21626     21626     21627     21626     21628     21626     21629
     21629     21630     21629     21631     21629     21632     21632     21633
     21632     21634     21632     21658     21658     21659     21658     21660
     21660     21661     21660     21662     21660     21663     21658     21664
     21664     21665     21664     21666     21664     21667     21667     21668
     21667     21669     21667     21670     21670     21671     21670     21672
     21670     21673     21673     21674     21673     21675     21675     21676
     21675     21677     21675     21678     21673     21679     21679     21680
     21679     21681     21679     21682     21683     21685     21683     21684
     21685     21686     21683     21729     21729     21730     21729     21731
     21729     21726     21726     21727     21726     21728     21683     21687
     21687     21688     21687     21689     21687     21690     21690     21721
     21721     21726     21721     21722     21722     21723     21722     21724
     21722     21725     21690     21691     21691     21692     21691     21693
     21693     21694     21693     21695     21693     21696     21696     21697
     21696     21719     21719     21720     21719     21721     21696     21698
     21698     21699     21698     21708     21708     21713     21713     21714
     21713     21715     21713     21716     21716     21717     21716     21718
     21716     21719     21708     21709     21709     21710     21709     21711
     21709     21712     21698     21700     21700     21701     21700     21702
     21700     21703     21703     21704     21703     21705     21703     21706
     21706     21707     21706     21708     21706     21732     21732     21733
     21732     21734     21734     21735     21734     21736     21734     21737
     21732     21738     21738     21739     21738     21740     21738     21741
     21741     21742     21741     21743     21741     21744     21744     21745
     21744     21746     21744     21747     21747     21748     21747     21749
     21749     21750     21749     21751     21749     21752     21747     21753
     21753     21754     21753     21755     21753     21756     21757     21759
     21757     21758     21759     21760     21757     21803     21803     21804
     21803     21805     21803     21800     21800     21801     21800     21802
     21757     21761     21761     21762     21761     21763     21761     21764
     21764     21795     21795     21800     21795     21796     21796     21797
     21796     21798     21796     21799     21764     21765     21765     21766
     21765     21767     21767     21768     21767     21769     21767     21770
     21770     21771     21770     21793     21793     21794     21793     21795
     21770     21772     21772     21773     21772     21782     21782     21787
     21787     21788     21787     21789     21787     21790     21790     21791
     21790     21792     21790     21793     21782     21783     21783     21784
     21783     21785     21783     21786     21772     21774     21774     21775
     21774     21776     21774     21777     21777     21778     21777     21779
     21777     21780     21780     21781     21780     21782     21780     21806
     21806     21807     21806     21808     21808     21809     21808     21810
     21808     21811     21806     21812     21812     21813     21812     21814
     21812     21815     21815     21816     21815     21817     21815     21818
     21818     21819     21818     21820     21818     21821     21821     21822
     21821     21823     21823     21824     21823     21825     21823     21826
     21821     21827     21827     21828     21827     21829     21827     21830
     21831     21833     21831     21832     21833     21834     21831     21877
     21877     21878     21877     21879     21877     21874     21874     21875
     21874     21876     21831     21835     21835     21836     21835     21837
     21835     21838     21838     21869     21869     21874     21869     21870
     21870     21871     21870     21872     21870     21873     21838     21839
     21839     21840     21839     21841     21841     21842     21841     21843
     21841     21844     21844     21845     21844     21867     21867     21868
     21867     21869     21844     21846     21846     21847     21846     21856
     21856     21861     21861     21862     21861     21863     21861     21864
     21864     21865     21864     21866     21864     21867     21856     21857
     21857     21858     21857     21859     21857     21860     21846     21848
     21848     21849     21848     21850     21848     21851     21851     21852
     21851     21853     21851     21854     21854     21855     21854     21856
     21854     21880     21880     21881     21880     21882     21882     21883
     21882     21884     21882     21885     21880     21886     21886     21887
     21886     21888     21886     21889     21889     21890     21889     21891
     21889     21892     21892     21893     21892     21894     21892     21895
     21895     21896     21895     21897     21897     21898     21897     21899
     21897     21900     21895     21901     21901     21902     21901     21903
     21901     21904     21905     21907     21905     21906     21907     21908
     21905     21951     21951     21952     21951     21953     21951     21948
     21948     21949     21948     21950     21905     21909     21909     21910
     21909     21911     21909     21912     21912     21943     21943     21948
     21943     21944     21944     21945     21944     21946     21944     21947
     21912     21913     21913     21914     21913     21915     21915     21916
     21915     21917     21915     21918     21918     21919     21918     21941
     21941     21942     21941     21943     21918     21920     21920     21921
     21920     21930     21930     21935     21935     21936     21935     21937
     21935     21938     21938     21939     21938     21940     21938     21941
     21930     21931     21931     21932     21931     21933     21931     21934
     21920     21922     21922     21923     21922     21924     21922     21925
     21925     21926     21925     21927     21925     21928     21928     21929
     21928     21930     21928     21954     21954     21955     21954     21956
     21956     21957     21956     21958     21956     21959     21954     21960
     21960     21961     21960     21962     21960     21963     21963     21964
     21963     21965     21963     21966     21966     21967     21966     21968
     21966     21969     21969     21970     21969     21971     21971     21972
     21971     21973     21971     21974     21969     21975     21975     21976
     21975     21977     21975     21978     21979     21981     21979     21980
     21981     21982     21979     22025     22025     22026     22025     22027
     22025     22022     22022     22023     22022     22024     21979     21983
     21983     21984     21983     21985     21983     21986     21986     22017
     22017     22022     22017     22018     22018     22019     22018     22020
     22018     22021     21986     21987     21987     21988     21987     21989
     21989     21990     21989     21991     21989     21992     21992     21993
     21992     22015     22015     22016     22015     22017     21992     21994
     21994     21995     21994     22004     22004     22009     22009     22010
     22009     22011     22009     22012     22012     22013     22012     22014
     22012     22015     22004     22005     22005     22006     22005     22007
     22005     22008     21994     21996     21996     21997     21996     21998
     21996     21999     21999     22000     21999     22001     21999     22002
     22002     22003     22002     22004     22002     22028     22028     22029
     22028     22030     22030     22031     22030     22032     22030     22033
     22028     22034     22034     22035     22034     22036     22034     22037
     22037     22038     22037     22039     22037     22040     22040     22041
     22040     22042     22040     22043     22043     22044     22043     22045
     22045     22046     22045     22047     22045     22048     22043     22049
     22049     22050     22049     22051     22049     22052     22053     22055
     22053     22054     22055     22056     22053     22099     22099     22100
     22099     22101     22099     22096     22096     22097     22096     22098
     22053     22057     22057     22058     22057     22059     22057     22060
     22060     22091     22091     22096     22091     22092     22092     22093
     22092     22094     22092     22095     22060     22061     22061     22062
     22061     22063     22063     22064     22063     22065     22063     22066
     22066     22067     22066     22089     22089     22090     22089     22091
     22066     22068     22068     22069     22068     22078     22078     22083
     22083     22084     22083     22085     22083     22086     22086     22087
     22086     22088     22086     22089     22078     22079     22079     22080
     22079     22081     22079     22082     22068     22070     22070     22071
     22070     22072     22070     22073     22073     22074     22073     22075
     22073     22076     22076     22077     22076     22078     22076     22102
     22102     22103     22102     22104     22104     22105     22104     22106
     22104     22107     22102     22108     22108     22109     22108     22110
     22108     22111     22111     22112     22111     22113     22111     22114
     22114     22115     22114     22116     22114     22117     22117     22118
     22117     22119     22119     22120     22119     22121     22119     22122
     22117     22123     22123     22124     22123     22125     22123     22126
     22127     22129     22127     22128     22129     22130     22127     22173
     22173     22174     22173     22175     22173     22170     22170     22171
     22170     22172     22127     22131     22131     22132     22131     22133
     22131     22134     22134     22165     22165     22170     22165     22166
     22166     22167     22166     22168     22166     22169     22134     22135
     22135     22136     22135     22137     22137     22138     22137     22139
     22137     22140     22140     22141     22140     22163     22163     22164
     22163     22165     22140     22142     22142     22143     22142     22152
     22152     22157     22157     22158     22157     22159     22157     22160
     22160     22161     22160     22162     22160     22163     22152     22153
     22153     22154     22153     22155     22153     22156     22142     22144
     22144     22145     22144     22146     22144     22147     22147     22148
     22147     22149     22147     22150     22150     22151     22150     22152
     22150     22176     22176     22177     22176     22178     22178     22179
     22178     22180     22178     22181     22176     22182     22182     22183
     22182     22184     22182     22185     22185     22186     22185     22187
     22185     22188     22188     22189     22188     22190     22188     22191
     22191     22192     22191     22193     22193     22194     22193     22195
     22193     22196     22191     22197     22197     22198     22197     22199
     22197     22200     22201     22203     22201     22202     22203     22204
     22201     22247     22247     22248     22247     22249     22247     22244
     22244     22245     22244     22246     22201     22205     22205     22206
     22205     22207     22205     22208     22208     22239     22239     22244
     22239     22240     22240     22241     22240     22242     22240     22243
     22208     22209     22209     22210     22209     22211     22211     22212
     22211     22213     22211     22214     22214     22215     22214     22237
     22237     22238     22237     22239     22214     22216     22216     22217
     22216     22226     22226     22231     22231     22232     22231     22233
     22231     22234     22234     22235     22234     22236     22234     22237
     22226     22227     22227     22228     22227     22229     22227     22230
     22216     22218     22218     22219     22218     22220     22218     22221
     22221     22222     22221     22223     22221     22224     22224     22225
     22224     22226     22224     22250     22250     22251     22250     22252
     22252     22253     22252     22254     22252     22255     22250     22256
     22256     22257     22256     22258     22256     22259     22259     22260
     22259     22261     22259     22262     22262     22263     22262     22264
     22262     22265     22265     22266     22265     22267     22267     22268
     22267     22269     22267     22270     22265     22271     22271     22272
     22271     22273     22271     22274     22275     22277     22275     22276
     22277     22278     22275     22321     22321     22322     22321     22323
     22321     22318     22318     22319     22318     22320     22275     22279
     22279     22280     22279     22281     22279     22282     22282     22313
     22313     22318     22313     22314     22314     22315     22314     22316
     22314     22317     22282     22283     22283     22284     22283     22285
     22285     22286     22285     22287     22285     22288     22288     22289
     22288     22311     22311     22312     22311     22313     22288     22290
     22290     22291     22290     22300     22300     22305     22305     22306
     22305     22307     22305     22308     22308     22309     22308     22310
     22308     22311     22300     22301     22301     22302     22301     22303
     22301     22304     22290     22292     22292     22293     22292     22294
     22292     22295     22295     22296     22295     22297     22295     22298
     22298     22299     22298     22300     22298     22324     22324     22325
     22324     22326     22326     22327     22326     22328     22326     22329
     22324     22330     22330     22331     22330     22332     22330     22333
     22333     22334     22333     22335     22333     22336     22336     22337
     22336     22338     22336     22339     22339     22340     22339     22341
     22341     22342     22341     22343     22341     22344     22339     22345
     22345     22346     22345     22347     22345     22348     22349     22351
     22349     22350     22351     22352     22349     22395     22395     22396
     22395     22397     22395     22392     22392     22393     22392     22394
     22349     22353     22353     22354     22353     22355     22353     22356
     22356     22387     22387     22392     22387     22388     22388     22389
     22388     22390     22388     22391     22356     22357     22357     22358
     22357     22359     22359     22360     22359     22361     22359     22362
     22362     22363     22362     22385     22385     22386     22385     22387
     22362     22364     22364     22365     22364     22374     22374     22379
     22379     22380     22379     22381     22379     22382     22382     22383
     22382     22384     22382     22385     22374     22375     22375     22376
     22375     22377     22375     22378     22364     22366     22366     22367
     22366     22368     22366     22369     22369     22370     22369     22371
     22369     22372     22372     22373     22372     22374     22372     22398
     22398     22399     22398     22400     22400     22401     22400     22402
     22400     22403     22398     22404     22404     22405     22404     22406
     22404     22407     22407     22408     22407     22409     22407     22410
     22410     22411     22410     22412     22410     22413     22413     22414
     22413     22415     22415     22416     22415     22417     22415     22418
     22413     22419     22419     22420     22419     22421     22419     22422
     22423     22425     22423     22424     22425     22426     22423     22469
     22469     22470     22469     22471     22469     22466     22466     22467
     22466     22468     22423     22427     22427     22428     22427     22429
     22427     22430     22430     22461     22461     22466     22461     22462
     22462     22463     22462     22464     22462     22465     22430     22431
     22431     22432     22431     22433     22433     22434     22433     22435
     22433     22436     22436     22437     22436     22459     22459     22460
     22459     22461     22436     22438     22438     22439     22438     22448
     22448     22453     22453     22454     22453     22455     22453     22456
     22456     22457     22456     22458     22456     22459     22448     22449
     22449     22450     22449     22451     22449     22452     22438     22440
     22440     22441     22440     22442     22440     22443     22443     22444
     22443     22445     22443     22446     22446     22447     22446     22448
     22446     22472     22472     22473     22472     22474     22474     22475
     22474     22476     22474     22477     22472     22478     22478     22479
     22478     22480     22478     22481     22481     22482     22481     22483
     22481     22484     22484     22485     22484     22486     22484     22487
     22487     22488     22487     22489     22489     22490     22489     22491
     22489     22492     22487     22493     22493     22494     22493     22495
     22493     22496     22497     22499     22497     22498     22499     22500
     22497     22543     22543     22544     22543     22545     22543     22540
     22540     22541     22540     22542     22497     22501     22501     22502
     22501     22503     22501     22504     22504     22535     22535     22540
     22535     22536     22536     22537     22536     22538     22536     22539
     22504     22505     22505     22506     22505     22507     22507     22508
     22507     22509     22507     22510     22510     22511     22510     22533
     22533     22534     22533     22535     22510     22512     22512     22513
     22512     22522     22522     22527     22527     22528     22527     22529
     22527     22530     22530     22531     22530     22532     22530     22533
     22522     22523     22523     22524     22523     22525     22523     22526
     22512     22514     22514     22515     22514     22516     22514     22517
     22517     22518     22517     22519     22517     22520     22520     22521
     22520     22522     22520     22546     22546     22547     22546     22548
     22548     22549     22548     22550     22548     22551     22546     22552
     22552     22553     22552     22554     22552     22555     22555     22556
     22555     22557     22555     22558     22558     22559     22558     22560
     22558     22561     22561     22562     22561     22563     22563     22564
     22563     22565     22563     22566     22561     22567     22567     22568
     22567     22569     22567     22570     22571     22573     22571     22572
     22573     22574     22571     22617     22617     22618     22617     22619
     22617     22614     22614     22615     22614     22616     22571     22575
     22575     22576     22575     22577     22575     22578     22578     22609
     22609     22614     22609     22610     22610     22611     22610     22612
     22610     22613     22578     22579     22579     22580     22579     22581
     22581     22582     22581     22583     22581     22584     22584     22585
     22584     22607     22607     22608     22607     22609     22584     22586
     22586     22587     22586     22596     22596     22601     22601     22602
     22601     22603     22601     22604     22604     22605     22604     22606
     22604     22607     22596     22597     22597     22598     22597     22599
     22597     22600     22586     22588     22588     22589     22588     22590
     22588     22591     22591     22592     22591     22593     22591     22594
     22594     22595     22594     22596     22594     22620     22620     22621
     22620     22622     22622     22623     22622     22624     22622     22625
     22620     22626     22626     22627     22626     22628     22626     22629
     22629     22630     22629     22631     22629     22632     22632     22633
     22632     22634     22632     22635     22635     22636     22635     22637
     22637     22638     22637     22639     22637     22640     22635     22641
     22641     22642     22641     22643     22641     22644     22645     22647
     22645     22646     22647     22648     22645     22691     22691     22692
     22691     22693     22691     22688     22688     22689     22688     22690
     22645     22649     22649     22650     22649     22651     22649     22652
     22652     22683     22683     22688     22683     22684     22684     22685
     22684     22686     22684     22687     22652     22653     22653     22654
     22653     22655     22655     22656     22655     22657     22655     22658
     22658     22659     22658     22681     22681     22682     22681     22683
     22658     22660     22660     22661     22660     22670     22670     22675
     22675     22676     22675     22677     22675     22678     22678     22679
     22678     22680     22678     22681     22670     22671     22671     22672
     22671     22673     22671     22674     22660     22662     22662     22663
     22662     22664     22662     22665     22665     22666     22665     22667
     22665     22668     22668     22669     22668     22670     22668     22694
     22694     22695     22694     22696     22696     22697     22696     22698
     22696     22699     22694     22700     22700     22701     22700     22702
     22700     22703     22703     22704     22703     22705     22703     22706
     22706     22707     22706     22708     22706     22709     22709     22710
     22709     22711     22711     22712     22711     22713     22711     22714
     22709     22715     22715     22716     22715     22717     22715     22718
     22719     22721     22719     22720     22721     22722     22719     22765
     22765     22766     22765     22767     22765     22762     22762     22763
     22762     22764     22719     22723     22723     22724     22723     22725
     22723     22726     22726     22757     22757     22762     22757     22758
     22758     22759     22758     22760     22758     22761     22726     22727
     22727     22728     22727     22729     22729     22730     22729     22731
     22729     22732     22732     22733     22732     22755     22755     22756
     22755     22757     22732     22734     22734     22735     22734     22744
     22744     22749     22749     22750     22749     22751     22749     22752
     22752     22753     22752     22754     22752     22755     22744     22745
     22745     22746     22745     22747     22745     22748     22734     22736
     22736     22737     22736     22738     22736     22739     22739     22740
     22739     22741     22739     22742     22742     22743     22742     22744
     22742     22768     22768     22769     22768     22770     22770     22771
     22770     22772     22770     22773     22768     22774     22774     22775
     22774     22776     22774     22777     22777     22778     22777     22779
     22777     22780     22780     22781     22780     22782     22780     22783
     22783     22784     22783     22785     22785     22786     22785     22787
     22785     22788     22783     22789     22789     22790     22789     22791
     22789     22792     22793     22795     22793     22794     22795     22796
     22793     22839     22839     22840     22839     22841     22839     22836
     22836     22837     22836     22838     22793     22797     22797     22798
     22797     22799     22797     22800     22800     22831     22831     22836
     22831     22832     22832     22833     22832     22834     22832     22835
     22800     22801     22801     22802     22801     22803     22803     22804
     22803     22805     22803     22806     22806     22807     22806     22829
     22829     22830     22829     22831     22806     22808     22808     22809
     22808     22818     22818     22823     22823     22824     22823     22825
     22823     22826     22826     22827     22826     22828     22826     22829
     22818     22819     22819     22820     22819     22821     22819     22822
     22808     22810     22810     22811     22810     22812     22810     22813
     22813     22814     22813     22815     22813     22816     22816     22817
     22816     22818     22816     22842     22842     22843     22842     22844
     22844     22845     22844     22846     22844     22847     22842     22848
     22848     22849     22848     22850     22848     22851     22851     22852
     22851     22853     22851     22854     22854     22855     22854     22856
     22854     22857     22857     22858     22857     22859     22859     22860
     22859     22861     22859     22862     22857     22863     22863     22864
     22863     22865     22863     22866     22867     22869     22867     22868
     22869     22870     22867     22913     22913     22914     22913     22915
     22913     22910     22910     22911     22910     22912     22867     22871
     22871     22872     22871     22873     22871     22874     22874     22905
     22905     22910     22905     22906     22906     22907     22906     22908
     22906     22909     22874     22875     22875     22876     22875     22877
     22877     22878     22877     22879     22877     22880     22880     22881
     22880     22903     22903     22904     22903     22905     22880     22882
     22882     22883     22882     22892     22892     22897     22897     22898
     22897     22899     22897     22900     22900     22901     22900     22902
     22900     22903     22892     22893     22893     22894     22893     22895
     22893     22896     22882     22884     22884     22885     22884     22886
     22884     22887     22887     22888     22887     22889     22887     22890
     22890     22891     22890     22892     22890     22916     22916     22917
     22916     22918     22918     22919     22918     22920     22918     22921
     22916     22922     22922     22923     22922     22924     22922     22925
     22925     22926     22925     22927     22925     22928     22928     22929
     22928     22930     22928     22931     22931     22932     22931     22933
     22933     22934     22933     22935     22933     22936     22931     22937
     22937     22938     22937     22939     22937     22940     22941     22943
     22941     22942     22943     22944     22941     22987     22987     22988
     22987     22989     22987     22984     22984     22985     22984     22986
     22941     22945     22945     22946     22945     22947     22945     22948
     22948     22979     22979     22984     22979     22980     22980     22981
     22980     22982     22980     22983     22948     22949     22949     22950
     22949     22951     22951     22952     22951     22953     22951     22954
     22954     22955     22954     22977     22977     22978     22977     22979
     22954     22956     22956     22957     22956     22966     22966     22971
     22971     22972     22971     22973     22971     22974     22974     22975
     22974     22976     22974     22977     22966     22967     22967     22968
     22967     22969     22967     22970     22956     22958     22958     22959
     22958     22960     22958     22961     22961     22962     22961     22963
     22961     22964     22964     22965     22964     22966     22964     22990
     22990     22991     22990     22992     22992     22993     22992     22994
     22992     22995     22990     22996     22996     22997     22996     22998
     22996     22999     22999     23000     22999     23001     22999     23002
     23002     23003     23002     23004     23002     23005     23005     23006
     23005     23007     23007     23008     23007     23009     23007     23010
     23005     23011     23011     23012     23011     23013     23011     23014
     23015     23017     23015     23016     23017     23018     23015     23061
     23061     23062     23061     23063     23061     23058     23058     23059
     23058     23060     23015     23019     23019     23020     23019     23021
     23019     23022     23022     23053     23053     23058     23053     23054
     23054     23055     23054     23056     23054     23057     23022     23023
     23023     23024     23023     23025     23025     23026     23025     23027
     23025     23028     23028     23029     23028     23051     23051     23052
     23051     23053     23028     23030     23030     23031     23030     23040
     23040     23045     23045     23046     23045     23047     23045     23048
     23048     23049     23048     23050     23048     23051     23040     23041
     23041     23042     23041     23043     23041     23044     23030     23032
     23032     23033     23032     23034     23032     23035     23035     23036
     23035     23037     23035     23038     23038     23039     23038     23040
     23038     23064     23064     23065     23064     23066     23066     23067
     23066     23068     23066     23069     23064     23070     23070     23071
     23070     23072     23070     23073     23073     23074     23073     23075
     23073     23076     23076     23077     23076     23078     23076     23079
     23079     23080     23079     23081     23081     23082     23081     23083
     23081     23084     23079     23085     23085     23086     23085     23087
     23085     23088     23089     23091     23089     23090     23091     23092
     23089     23135     23135     23136     23135     23137     23135     23132
     23132     23133     23132     23134     23089     23093     23093     23094
     23093     23095     23093     23096     23096     23127     23127     23132
     23127     23128     23128     23129     23128     23130     23128     23131
     23096     23097     23097     23098     23097     23099     23099     23100
     23099     23101     23099     23102     23102     23103     23102     23125
     23125     23126     23125     23127     23102     23104     23104     23105
     23104     23114     23114     23119     23119     23120     23119     23121
     23119     23122     23122     23123     23122     23124     23122     23125
     23114     23115     23115     23116     23115     23117     23115     23118
     23104     23106     23106     23107     23106     23108     23106     23109
     23109     23110     23109     23111     23109     23112     23112     23113
     23112     23114     23112     23138     23138     23139     23138     23140
     23140     23141     23140     23142     23140     23143     23138     23144
     23144     23145     23144     23146     23144     23147     23147     23148
     23147     23149     23147     23150     23150     23151     23150     23152
     23150     23153     23153     23154     23153     23155     23155     23156
     23155     23157     23155     23158     23153     23159     23159     23160
     23159     23161     23159     23162     23163     23167     23163     23171
     23163     23175     23167     23168     23167     23169     23167     23170
     23171     23172     23171     23173     23171     23174     23175     23176
     23175     23177     23175     23178     23163     23164     23164     23165
     23164     23166     23164     23179     23179     23180     23179     23181
     23179     23185     23186     23187     23185     23182     23182     23186
     23182     23183     23182     23184     23187     23188     23187     23189
     23187     23190     23190     23191     23190     23198     23190     23192
     23198     23199     23198     23200     23198     23201     23192     23193
     23193     23195     23193     23194     23195     23196     23195     23197
     23195     23207     23207     23208     23207     23209     23207     23210
     23210     23211     23210     23212     23210     23213     23213     23214
     23213     23215     23213     23216     23216     23217     23216     23218
     23216     23219     23219     23220     23219     23221     23219     23222
     23222     23223     23222     23224     23222     23225     23225     23226
     23225     23227     23227     23228     23227     23229     23229     23230
     23229     23231     23229     23232     23232     23233     23232     23234
     23232     23235     23235     23236     23235     23237     23235     23238
     23238     23239     23238     23240     23238     23241     23241     23242
     23241     23243     23241     23244     23244     23245     23244     23246
     23244     23247     23247     23248     23247     23249     23247     23250
     23250     23251     23250     23252     23250     23253     23201     23202
     23202     23204     23202     23203     23204     23205     23204     23206
     23204     23254     23254     23255     23254     23256     23254     23257
     23257     23258     23257     23259     23257     23260     23260     23261
     23260     23262     23260     23263     23263     23264     23263     23265
     23263     23266     23266     23267     23266     23268     23266     23269
     23269     23270     23269     23271     23269     23272     23272     23273
     23272     23274     23272     23275     23275     23276     23275     23277
     23275     23278     23278     23279     23278     23280     23278     23281
     23281     23282     23281     23283     23281     23284     23284     23285
     23284     23286     23284     23287     23287     23288     23287     23289
     23287     23290     23290     23291     23290     23292     23290     23293
     23293     23294     23293     23295     23293     23296     23297     23301
     23297     23305     23297     23309     23301     23302     23301     23303
     23301     23304     23305     23306     23305     23307     23305     23308
     23309     23310     23309     23311     23309     23312     23297     23298
     23298     23299     23298     23300     23298     23313     23313     23314
     23313     23315     23313     23319     23320     23321     23319     23316
     23316     23320     23316     23317     23316     23318     23321     23322
     23321     23323     23321     23324     23324     23325     23324     23332
     23324     23326     23332     23333     23332     23334     23332     23335
     23326     23327     23327     23329     23327     23328     23329     23330
     23329     23331     23329     23341     23341     23342     23341     23343
     23341     23344     23344     23345     23344     23346     23344     23347
     23347     23348     23347     23349     23347     23350     23350     23351
     23350     23352     23350     23353     23353     23354     23353     23355
     23353     23356     23356     23357     23356     23358     23356     23359
     23359     23360     23359     23361     23361     23362     23361     23363
     23363     23364     23363     23365     23363     23366     23366     23367
     23366     23368     23366     23369     23369     23370     23369     23371
     23369     23372     23372     23373     23372     23374     23372     23375
     23375     23376     23375     23377     23375     23378     23378     23379
     23378     23380     23378     23381     23381     23382     23381     23383
     23381     23384     23384     23385     23384     23386     23384     23387
     23335     23336     23336     23338     23336     23337     23338     23339
     23338     23340     23338     23388     23388     23389     23388     23390
     23388     23391     23391     23392     23391     23393     23391     23394
     23394     23395     23394     23396     23394     23397     23397     23398
     23397     23399     23397     23400     23400     23401     23400     23402
     23400     23403     23403     23404     23403     23405     23403     23406
     23406     23407     23406     23408     23406     23409     23409     23410
     23409     23411     23409     23412     23412     23413     23412     23414
     23412     23415     23415     23416     23415     23417     23415     23418
     23418     23419     23418     23420     23418     23421     23421     23422
     23421     23423     23421     23424     23424     23425     23424     23426
     23424     23427     23427     23428     23427     23429     23427     23430
     23431     23435     23431     23439     23431     23443     23435     23436
     23435     23437     23435     23438     23439     23440     23439     23441
     23439     23442     23443     23444     23443     23445     23443     23446
     23431     23432     23432     23433     23432     23434     23432     23447
     23447     23448     23447     23449     23447     23453     23454     23455
     23453     23450     23450     23454     23450     23451     23450     23452
     23455     23456     23455     23457     23455     23458     23458     23459
     23458     23466     23458     23460     23466     23467     23466     23468
     23466     23469     23460     23461     23461     23463     23461     23462
     23463     23464     23463     23465     23463     23475     23475     23476
     23475     23477     23475     23478     23478     23479     23478     23480
     23478     23481     23481     23482     23481     23483     23481     23484
     23484     23485     23484     23486     23484     23487     23487     23488
     23487     23489     23487     23490     23490     23491     23490     23492
     23490     23493     23493     23494     23493     23495     23495     23496
     23495     23497     23497     23498     23497     23499     23497     23500
     23500     23501     23500     23502     23500     23503     23503     23504
     23503     23505     23503     23506     23506     23507     23506     23508
     23506     23509     23509     23510     23509     23511     23509     23512
     23512     23513     23512     23514     23512     23515     23515     23516
     23515     23517     23515     23518     23518     23519     23518     23520
     23518     23521     23469     23470     23470     23472     23470     23471
     23472     23473     23472     23474     23472     23522     23522     23523
     23522     23524     23522     23525     23525     23526     23525     23527
     23525     23528     23528     23529     23528     23530     23528     23531
     23531     23532     23531     23533     23531     23534     23534     23535
     23534     23536     23534     23537     23537     23538     23537     23539
     23537     23540     23540     23541     23540     23542     23540     23543
     23543     23544     23543     23545     23543     23546     23546     23547
     23546     23548     23546     23549     23549     23550     23549     23551
     23549     23552     23552     23553     23552     23554     23552     23555
     23555     23556     23555     23557     23555     23558     23558     23559
     23558     23560     23558     23561     23561     23562     23561     23563
     23561     23564     23565     23569     23565     23573     23565     23577
     23569     23570     23569     23571     23569     23572     23573     23574
     23573     23575     23573     23576     23577     23578     23577     23579
     23577     23580     23565     23566     23566     23567     23566     23568
     23566     23581     23581     23582     23581     23583     23581     23587
     23588     23589     23587     23584     23584     23588     23584     23585
     23584     23586     23589     23590     23589     23591     23589     23592
     23592     23593     23592     23600     23592     23594     23600     23601
     23600     23602     23600     23603     23594     23595     23595     23597
     23595     23596     23597     23598     23597     23599     23597     23609
     23609     23610     23609     23611     23609     23612     23612     23613
     23612     23614     23612     23615     23615     23616     23615     23617
     23615     23618     23618     23619     23618     23620     23618     23621
     23621     23622     23621     23623     23621     23624     23624     23625
     23624     23626     23624     23627     23627     23628     23627     23629
     23629     23630     23629     23631     23631     23632     23631     23633
     23631     23634     23634     23635     23634     23636     23634     23637
     23637     23638     23637     23639     23637     23640     23640     23641
     23640     23642     23640     23643     23643     23644     23643     23645
     23643     23646     23646     23647     23646     23648     23646     23649
     23649     23650     23649     23651     23649     23652     23652     23653
     23652     23654     23652     23655     23603     23604     23604     23606
     23604     23605     23606     23607     23606     23608     23606     23656
     23656     23657     23656     23658     23656     23659     23659     23660
     23659     23661     23659     23662     23662     23663     23662     23664
     23662     23665     23665     23666     23665     23667     23665     23668
     23668     23669     23668     23670     23668     23671     23671     23672
     23671     23673     23671     23674     23674     23675     23674     23676
     23674     23677     23677     23678     23677     23679     23677     23680
     23680     23681     23680     23682     23680     23683     23683     23684
     23683     23685     23683     23686     23686     23687     23686     23688
     23686     23689     23689     23690     23689     23691     23689     23692
     23692     23693     23692     23694     23692     23695     23695     23696
     23695     23697     23695     23698     23699     23700     23699     23701
     23699     23702     23699     23703     23703     23704     23703     23705
     23703     23706     23706     23707     23706     23708     23706     23713
     23713     23709     23709     23712     23709     23710     23709     23711
     23714     23715     23714     23716     23714     23717     23714     23712
     23717     23718     23717     23725     23717     23719     23725     23726
     23725     23727     23725     23728     23719     23720     23720     23722
     23720     23721     23722     23723     23722     23724     23722     23734
     23734     23735     23734     23736     23734     23737     23737     23738
     23737     23739     23737     23740     23740     23741     23740     23742
     23740     23743     23743     23744     23743     23745     23743     23746
     23746     23747     23746     23748     23746     23749     23749     23750
     23749     23751     23749     23752     23752     23753     23752     23754
     23754     23755     23754     23756     23756     23757     23756     23758
     23756     23759     23759     23760     23759     23761     23759     23762
     23762     23763     23762     23764     23762     23765     23765     23766
     23765     23767     23765     23768     23768     23769     23768     23770
     23768     23771     23771     23772     23771     23773     23771     23774
     23774     23775     23774     23776     23774     23777     23777     23778
     23777     23779     23777     23780     23728     23729     23729     23731
     23729     23730     23731     23732     23731     23733     23731     23781
     23781     23782     23781     23783     23781     23784     23784     23785
     23784     23786     23784     23787     23787     23788     23787     23789
     23787     23790     23790     23791     23790     23792     23790     23793
     23793     23794     23793     23795     23793     23796     23796     23797
     23796     23798     23796     23799     23799     23800     23799     23801
     23799     23802     23802     23803     23802     23804     23802     23805
     23805     23806     23805     23807     23805     23808     23808     23809
     23808     23810     23808     23811     23811     23812     23811     23813
     23811     23814     23814     23815     23814     23816     23814     23817
     23817     23818     23817     23819     23817     23820     23820     23821
     23820     23822     23820     23823     23824     23828     23824     23832
     23824     23836     23828     23829     23828     23830     23828     23831
     23832     23833     23832     23834     23832     23835     23836     23837
     23836     23838     23836     23839     23824     23825     23825     23826
     23825     23827     23825     23840     23840     23841     23840     23842
     23840     23846     23847     23848     23846     23843     23843     23847
     23843     23844     23843     23845     23848     23849     23848     23850
     23848     23851     23851     23852     23851     23859     23851     23853
     23859     23860     23859     23861     23859     23862     23853     23854
     23854     23856     23854     23855     23856     23857     23856     23858
     23856     23868     23868     23869     23868     23870     23868     23871
     23871     23872     23871     23873     23871     23874     23874     23875
     23874     23876     23874     23877     23877     23878     23877     23879
     23877     23880     23880     23881     23880     23882     23880     23883
     23883     23884     23883     23885     23883     23886     23886     23887
     23886     23888     23888     23889     23888     23890     23890     23891
     23890     23892     23890     23893     23893     23894     23893     23895
     23893     23896     23896     23897     23896     23898     23896     23899
     23899     23900     23899     23901     23899     23902     23902     23903
     23902     23904     23902     23905     23905     23906     23905     23907
     23905     23908     23908     23909     23908     23910     23908     23911
     23911     23912     23911     23913     23911     23914     23862     23863
     23863     23865     23863     23864     23865     23866     23865     23867
     23865     23915     23915     23916     23915     23917     23915     23918
     23918     23919     23918     23920     23918     23921     23921     23922
     23921     23923     23921     23924     23924     23925     23924     23926
     23924     23927     23927     23928     23927     23929     23927     23930
     23930     23931     23930     23932     23930     23933     23933     23934
     23933     23935     23933     23936     23936     23937     23936     23938
     23936     23939     23939     23940     23939     23941     23939     23942
     23942     23943     23942     23944     23942     23945     23945     23946
     23945     23947     23945     23948     23948     23949     23948     23950
     23948     23951     23951     23952     23951     23953     23951     23954
     23954     23955     23954     23956     23954     23957     23958     23962
     23958     23966     23958     23970     23962     23963     23962     23964
     23962     23965     23966     23967     23966     23968     23966     23969
     23970     23971     23970     23972     23970     23973     23958     23959
     23959     23960     23959     23961     23959     23974     23974     23975
     23974     23976     23974     23980     23981     23982     23980     23977
     23977     23981     23977     23978     23977     23979     23982     23983
     23982     23984     23982     23985     23985     23986     23985     23993
     23985     23987     23993     23994     23993     23995     23993     23996
     23987     23988     23988     23990     23988     23989     23990     23991
     23990     23992     23990     24002     24002     24003     24002     24004
     24002     24005     24005     24006     24005     24007     24005     24008
     24008     24009     24008     24010     24008     24011     24011     24012
     24011     24013     24011     24014     24014     24015     24014     24016
     24014     24017     24017     24018     24017     24019     24017     24020
     24020     24021     24020     24022     24022     24023     24022     24024
     24024     24025     24024     24026     24024     24027     24027     24028
     24027     24029     24027     24030     24030     24031     24030     24032
     24030     24033     24033     24034     24033     24035     24033     24036
     24036     24037     24036     24038     24036     24039     24039     24040
     24039     24041     24039     24042     24042     24043     24042     24044
     24042     24045     24045     24046     24045     24047     24045     24048
     23996     23997     23997     23999     23997     23998     23999     24000
     23999     24001     23999     24049     24049     24050     24049     24051
     24049     24052     24052     24053     24052     24054     24052     24055
     24055     24056     24055     24057     24055     24058     24058     24059
     24058     24060     24058     24061     24061     24062     24061     24063
     24061     24064     24064     24065     24064     24066     24064     24067
     24067     24068     24067     24069     24067     24070     24070     24071
     24070     24072     24070     24073     24073     24074     24073     24075
     24073     24076     24076     24077     24076     24078     24076     24079
     24079     24080     24079     24081     24079     24082     24082     24083
     24082     24084     24082     24085     24085     24086     24085     24087
     24085     24088     24088     24089     24088     24090     24088     24091
     24092     24093     24092     24094     24092     24095     24092     24096
     24096     24097     24096     24098     24096     24099     24099     24100
     24099     24101     24099     24106     24106     24102     24102     24105
     24102     24103     24102     24104     24107     24108     24107     24109
     24107     24110     24107     24105     24110     24111     24110     24118
     24110     24112     24118     24119     24118     24120     24118     24121
     24112     24113     24113     24115     24113     24114     24115     24116
     24115     24117     24115     24127     24127     24128     24127     24129
     24127     24130     24130     24131     24130     24132     24130     24133
     24133     24134     24133     24135     24133     24136     24136     24137
     24136     24138     24136     24139     24139     24140     24139     24141
     24139     24142     24142     24143     24142     24144     24142     24145
     24145     24146     24145     24147     24147     24148     24147     24149
     24149     24150     24149     24151     24149     24152     24152     24153
     24152     24154     24152     24155     24155     24156     24155     24157
     24155     24158     24158     24159     24158     24160     24158     24161
     24161     24162     24161     24163     24161     24164     24164     24165
     24164     24166     24164     24167     24167     24168     24167     24169
     24167     24170     24170     24171     24170     24172     24170     24173
     24121     24122     24122     24124     24122     24123     24124     24125
     24124     24126     24124     24174     24174     24175     24174     24176
     24174     24177     24177     24178     24177     24179     24177     24180
     24180     24181     24180     24182     24180     24183     24183     24184
     24183     24185     24183     24186     24186     24187     24186     24188
     24186     24189     24189     24190     24189     24191     24189     24192
     24192     24193     24192     24194     24192     24195     24195     24196
     24195     24197     24195     24198     24198     24199     24198     24200
     24198     24201     24201     24202     24201     24203     24201     24204
     24204     24205     24204     24206     24204     24207     24207     24208
     24207     24209     24207     24210     24210     24211     24210     24212
     24210     24213     24213     24214     24213     24215     24213     24216
     24217     24218     24217     24219     24217     24220     24217     24221
     24221     24222     24221     24223     24221     24224     24224     24225
     24224     24226     24224     24231     24231     24227     24227     24230
     24227     24228     24227     24229     24232     24233     24232     24234
     24232     24235     24232     24230     24235     24236     24235     24243
     24235     24237     24243     24244     24243     24245     24243     24246
     24237     24238     24238     24240     24238     24239     24240     24241
     24240     24242     24240     24252     24252     24253     24252     24254
     24252     24255     24255     24256     24255     24257     24255     24258
     24258     24259     24258     24260     24258     24261     24261     24262
     24261     24263     24261     24264     24264     24265     24264     24266
     24264     24267     24267     24268     24267     24269     24267     24270
     24270     24271     24270     24272     24272     24273     24272     24274
     24274     24275     24274     24276     24274     24277     24277     24278
     24277     24279     24277     24280     24280     24281     24280     24282
     24280     24283     24283     24284     24283     24285     24283     24286
     24286     24287     24286     24288     24286     24289     24289     24290
     24289     24291     24289     24292     24292     24293     24292     24294
     24292     24295     24295     24296     24295     24297     24295     24298
     24246     24247     24247     24249     24247     24248     24249     24250
     24249     24251     24249     24299     24299     24300     24299     24301
     24299     24302     24302     24303     24302     24304     24302     24305
     24305     24306     24305     24307     24305     24308     24308     24309
     24308     24310     24308     24311     24311     24312     24311     24313
     24311     24314     24314     24315     24314     24316     24314     24317
     24317     24318     24317     24319     24317     24320     24320     24321
     24320     24322     24320     24323     24323     24324     24323     24325
     24323     24326     24326     24327     24326     24328     24326     24329
     24329     24330     24329     24331     24329     24332     24332     24333
     24332     24334     24332     24335     24335     24336     24335     24337
     24335     24338     24338     24339     24338     24340     24338     24341
     24342     24343     24342     24344     24342     24345     24342     24346
     24346     24347     24346     24348     24346     24349     24349     24350
     24349     24351     24349     24356     24356     24352     24352     24355
     24352     24353     24352     24354     24357     24358     24357     24359
     24357     24360     24357     24355     24360     24361     24360     24368
     24360     24362     24368     24369     24368     24370     24368     24371
     24362     24363     24363     24365     24363     24364     24365     24366
     24365     24367     24365     24377     24377     24378     24377     24379
     24377     24380     24380     24381     24380     24382     24380     24383
     24383     24384     24383     24385     24383     24386     24386     24387
     24386     24388     24386     24389     24389     24390     24389     24391
     24389     24392     24392     24393     24392     24394     24392     24395
     24395     24396     24395     24397     24397     24398     24397     24399
     24399     24400     24399     24401     24399     24402     24402     24403
     24402     24404     24402     24405     24405     24406     24405     24407
     24405     24408     24408     24409     24408     24410     24408     24411
     24411     24412     24411     24413     24411     24414     24414     24415
     24414     24416     24414     24417     24417     24418     24417     24419
     24417     24420     24420     24421     24420     24422     24420     24423
     24371     24372     24372     24374     24372     24373     24374     24375
     24374     24376     24374     24424     24424     24425     24424     24426
     24424     24427     24427     24428     24427     24429     24427     24430
     24430     24431     24430     24432     24430     24433     24433     24434
     24433     24435     24433     24436     24436     24437     24436     24438
     24436     24439     24439     24440     24439     24441     24439     24442
     24442     24443     24442     24444     24442     24445     24445     24446
     24445     24447     24445     24448     24448     24449     24448     24450
     24448     24451     24451     24452     24451     24453     24451     24454
     24454     24455     24454     24456     24454     24457     24457     24458
     24457     24459     24457     24460     24460     24461     24460     24462
     24460     24463     24463     24464     24463     24465     24463     24466
     24467     24471     24467     24475     24467     24479     24471     24472
     24471     24473     24471     24474     24475     24476     24475     24477
     24475     24478     24479     24480     24479     24481     24479     24482
     24467     24468     24468     24469     24468     24470     24468     24483
     24483     24484     24483     24485     24483     24489     24490     24491
     24489     24486     24486     24490     24486     24487     24486     24488
     24491     24492     24491     24493     24491     24494     24494     24495
     24494     24502     24494     24496     24502     24503     24502     24504
     24502     24505     24496     24497     24497     24499     24497     24498
     24499     24500     24499     24501     24499     24511     24511     24512
     24511     24513     24511     24514     24514     24515     24514     24516
     24514     24517     24517     24518     24517     24519     24517     24520
     24520     24521     24520     24522     24520     24523     24523     24524
     24523     24525     24523     24526     24526     24527     24526     24528
     24526     24529     24529     24530     24529     24531     24531     24532
     24531     24533     24533     24534     24533     24535     24533     24536
     24536     24537     24536     24538     24536     24539     24539     24540
     24539     24541     24539     24542     24542     24543     24542     24544
     24542     24545     24545     24546     24545     24547     24545     24548
     24548     24549     24548     24550     24548     24551     24551     24552
     24551     24553     24551     24554     24554     24555     24554     24556
     24554     24557     24505     24506     24506     24508     24506     24507
     24508     24509     24508     24510     24508     24558     24558     24559
     24558     24560     24558     24561     24561     24562     24561     24563
     24561     24564     24564     24565     24564     24566     24564     24567
     24567     24568     24567     24569     24567     24570     24570     24571
     24570     24572     24570     24573     24573     24574     24573     24575
     24573     24576     24576     24577     24576     24578     24576     24579
     24579     24580     24579     24581     24579     24582     24582     24583
     24582     24584     24582     24585     24585     24586     24585     24587
     24585     24588     24588     24589     24588     24590     24588     24591
     24591     24592     24591     24593     24591     24594     24594     24595
     24594     24596     24594     24597     24597     24598     24597     24599
     24597     24600     24601     24602     24601     24603     24601     24604
     24601     24605     24605     24606     24605     24607     24605     24608
     24608     24609     24608     24610     24608     24615     24615     24611
     24611     24614     24611     24612     24611     24613     24616     24617
     24616     24618     24616     24619     24616     24614     24619     24620
     24619     24627     24619     24621     24627     24628     24627     24629
     24627     24630     24621     24622     24622     24624     24622     24623
     24624     24625     24624     24626     24624     24636     24636     24637
     24636     24638     24636     24639     24639     24640     24639     24641
     24639     24642     24642     24643     24642     24644     24642     24645
     24645     24646     24645     24647     24645     24648     24648     24649
     24648     24650     24648     24651     24651     24652     24651     24653
     24651     24654     24654     24655     24654     24656     24656     24657
     24656     24658     24658     24659     24658     24660     24658     24661
     24661     24662     24661     24663     24661     24664     24664     24665
     24664     24666     24664     24667     24667     24668     24667     24669
     24667     24670     24670     24671     24670     24672     24670     24673
     24673     24674     24673     24675     24673     24676     24676     24677
     24676     24678     24676     24679     24679     24680     24679     24681
     24679     24682     24630     24631     24631     24633     24631     24632
     24633     24634     24633     24635     24633     24683     24683     24684
     24683     24685     24683     24686     24686     24687     24686     24688
     24686     24689     24689     24690     24689     24691     24689     24692
     24692     24693     24692     24694     24692     24695     24695     24696
     24695     24697     24695     24698     24698     24699     24698     24700
     24698     24701     24701     24702     24701     24703     24701     24704
     24704     24705     24704     24706     24704     24707     24707     24708
     24707     24709     24707     24710     24710     24711     24710     24712
     24710     24713     24713     24714     24713     24715     24713     24716
     24716     24717     24716     24718     24716     24719     24719     24720
     24719     24721     24719     24722     24722     24723     24722     24724
     24722     24725     24726     24727     24726     24728     24726     24729
     24726     24730     24730     24731     24730     24732     24730     24733
     24733     24734     24733     24735     24733     24740     24740     24736
     24736     24739     24736     24737     24736     24738     24741     24742
     24741     24743     24741     24744     24741     24739     24744     24745
     24744     24752     24744     24746     24752     24753     24752     24754
     24752     24755     24746     24747     24747     24749     24747     24748
     24749     24750     24749     24751     24749     24761     24761     24762
     24761     24763     24761     24764     24764     24765     24764     24766
     24764     24767     24767     24768     24767     24769     24767     24770
     24770     24771     24770     24772     24770     24773     24773     24774
     24773     24775     24773     24776     24776     24777     24776     24778
     24776     24779     24779     24780     24779     24781     24781     24782
     24781     24783     24783     24784     24783     24785     24783     24786
     24786     24787     24786     24788     24786     24789     24789     24790
     24789     24791     24789     24792     24792     24793     24792     24794
     24792     24795     24795     24796     24795     24797     24795     24798
     24798     24799     24798     24800     24798     24801     24801     24802
     24801     24803     24801     24804     24804     24805     24804     24806
     24804     24807     24755     24756     24756     24758     24756     24757
     24758     24759     24758     24760     24758     24808     24808     24809
     24808     24810     24808     24811     24811     24812     24811     24813
     24811     24814     24814     24815     24814     24816     24814     24817
     24817     24818     24817     24819     24817     24820     24820     24821
     24820     24822     24820     24823     24823     24824     24823     24825
     24823     24826     24826     24827     24826     24828     24826     24829
     24829     24830     24829     24831     24829     24832     24832     24833
     24832     24834     24832     24835     24835     24836     24835     24837
     24835     24838     24838     24839     24838     24840     24838     24841
     24841     24842     24841     24843     24841     24844     24844     24845
     24844     24846     24844     24847     24847     24848     24847     24849
     24847     24850     24851     24855     24851     24859     24851     24863
     24855     24856     24855     24857     24855     24858     24859     24860
     24859     24861     24859     24862     24863     24864     24863     24865
     24863     24866     24851     24852     24852     24853     24852     24854
     24852     24867     24867     24868     24867     24869     24867     24873
     24874     24875     24873     24870     24870     24874     24870     24871
     24870     24872     24875     24876     24875     24877     24875     24878
     24878     24879     24878     24886     24878     24880     24886     24887
     24886     24888     24886     24889     24880     24881     24881     24883
     24881     24882     24883     24884     24883     24885     24883     24895
     24895     24896     24895     24897     24895     24898     24898     24899
     24898     24900     24898     24901     24901     24902     24901     24903
     24901     24904     24904     24905     24904     24906     24904     24907
     24907     24908     24907     24909     24907     24910     24910     24911
     24910     24912     24910     24913     24913     24914     24913     24915
     24915     24916     24915     24917     24917     24918     24917     24919
     24917     24920     24920     24921     24920     24922     24920     24923
     24923     24924     24923     24925     24923     24926     24926     24927
     24926     24928     24926     24929     24929     24930     24929     24931
     24929     24932     24932     24933     24932     24934     24932     24935
     24935     24936     24935     24937     24935     24938     24938     24939
     24938     24940     24938     24941     24889     24890     24890     24892
     24890     24891     24892     24893     24892     24894     24892     24942
     24942     24943     24942     24944     24942     24945     24945     24946
     24945     24947     24945     24948     24948     24949     24948     24950
     24948     24951     24951     24952     24951     24953     24951     24954
     24954     24955     24954     24956     24954     24957     24957     24958
     24957     24959     24957     24960     24960     24961     24960     24962
     24960     24963     24963     24964     24963     24965     24963     24966
     24966     24967     24966     24968     24966     24969     24969     24970
     24969     24971     24969     24972     24972     24973     24972     24974
     24972     24975     24975     24976     24975     24977     24975     24978
     24978     24979     24978     24980     24978     24981     24981     24982
     24981     24983     24981     24984     24985     24989     24985     24993
     24985     24997     24989     24990     24989     24991     24989     24992
     24993     24994     24993     24995     24993     24996     24997     24998
     24997     24999     24997     25000     24985     24986     24986     24987
     24986     24988     24986     25001     25001     25002     25001     25003
     25001     25007     25008     25009     25007     25004     25004     25008
     25004     25005     25004     25006     25009     25010     25009     25011
     25009     25012     25012     25013     25012     25020     25012     25014
     25020     25021     25020     25022     25020     25023     25014     25015
     25015     25017     25015     25016     25017     25018     25017     25019
     25017     25029     25029     25030     25029     25031     25029     25032
     25032     25033     25032     25034     25032     25035     25035     25036
     25035     25037     25035     25038     25038     25039     25038     25040
     25038     25041     25041     25042     25041     25043     25041     25044
     25044     25045     25044     25046     25044     25047     25047     25048
     25047     25049     25049     25050     25049     25051     25051     25052
     25051     25053     25051     25054     25054     25055     25054     25056
     25054     25057     25057     25058     25057     25059     25057     25060
     25060     25061     25060     25062     25060     25063     25063     25064
     25063     25065     25063     25066     25066     25067     25066     25068
     25066     25069     25069     25070     25069     25071     25069     25072
     25072     25073     25072     25074     25072     25075     25023     25024
     25024     25026     25024     25025     25026     25027     25026     25028
     25026     25076     25076     25077     25076     25078     25076     25079
     25079     25080     25079     25081     25079     25082     25082     25083
     25082     25084     25082     25085     25085     25086     25085     25087
     25085     25088     25088     25089     25088     25090     25088     25091
     25091     25092     25091     25093     25091     25094     25094     25095
     25094     25096     25094     25097     25097     25098     25097     25099
     25097     25100     25100     25101     25100     25102     25100     25103
     25103     25104     25103     25105     25103     25106     25106     25107
     25106     25108     25106     25109     25109     25110     25109     25111
     25109     25112     25112     25113     25112     25114     25112     25115
     25115     25116     25115     25117     25115     25118     25119     25120
     25119     25121     25119     25122     25119     25123     25123     25124
     25123     25125     25123     25126     25126     25127     25126     25128
     25126     25133     25133     25129     25129     25132     25129     25130
     25129     25131     25134     25135     25134     25136     25134     25137
     25134     25132     25137     25138     25137     25145     25137     25139
     25145     25146     25145     25147     25145     25148     25139     25140
     25140     25142     25140     25141     25142     25143     25142     25144
     25142     25154     25154     25155     25154     25156     25154     25157
     25157     25158     25157     25159     25157     25160     25160     25161
     25160     25162     25160     25163     25163     25164     25163     25165
     25163     25166     25166     25167     25166     25168     25166     25169
     25169     25170     25169     25171     25169     25172     25172     25173
     25172     25174     25174     25175     25174     25176     25176     25177
     25176     25178     25176     25179     25179     25180     25179     25181
     25179     25182     25182     25183     25182     25184     25182     25185
     25185     25186     25185     25187     25185     25188     25188     25189
     25188     25190     25188     25191     25191     25192     25191     25193
     25191     25194     25194     25195     25194     25196     25194     25197
     25197     25198     25197     25199     25197     25200     25148     25149
     25149     25151     25149     25150     25151     25152     25151     25153
     25151     25201     25201     25202     25201     25203     25201     25204
     25204     25205     25204     25206     25204     25207     25207     25208
     25207     25209     25207     25210     25210     25211     25210     25212
     25210     25213     25213     25214     25213     25215     25213     25216
     25216     25217     25216     25218     25216     25219     25219     25220
     25219     25221     25219     25222     25222     25223     25222     25224
     25222     25225     25225     25226     25225     25227     25225     25228
     25228     25229     25228     25230     25228     25231     25231     25232
     25231     25233     25231     25234     25234     25235     25234     25236
     25234     25237     25237     25238     25237     25239     25237     25240
     25240     25241     25240     25242     25240     25243     25244     25248
     25244     25252     25244     25256     25248     25249     25248     25250
     25248     25251     25252     25253     25252     25254     25252     25255
     25256     25257     25256     25258     25256     25259     25244     25245
     25245     25246     25245     25247     25245     25260     25260     25261
     25260     25262     25260     25266     25267     25268     25266     25263
     25263     25267     25263     25264     25263     25265     25268     25269
     25268     25270     25268     25271     25271     25272     25271     25279
     25271     25273     25279     25280     25279     25281     25279     25282
     25273     25274     25274     25276     25274     25275     25276     25277
     25276     25278     25276     25288     25288     25289     25288     25290
     25288     25291     25291     25292     25291     25293     25291     25294
     25294     25295     25294     25296     25294     25297     25297     25298
     25297     25299     25297     25300     25300     25301     25300     25302
     25300     25303     25303     25304     25303     25305     25303     25306
     25306     25307     25306     25308     25308     25309     25308     25310
     25310     25311     25310     25312     25310     25313     25313     25314
     25313     25315     25313     25316     25316     25317     25316     25318
     25316     25319     25319     25320     25319     25321     25319     25322
     25322     25323     25322     25324     25322     25325     25325     25326
     25325     25327     25325     25328     25328     25329     25328     25330
     25328     25331     25331     25332     25331     25333     25331     25334
     25282     25283     25283     25285     25283     25284     25285     25286
     25285     25287     25285     25335     25335     25336     25335     25337
     25335     25338     25338     25339     25338     25340     25338     25341
     25341     25342     25341     25343     25341     25344     25344     25345
     25344     25346     25344     25347     25347     25348     25347     25349
     25347     25350     25350     25351     25350     25352     25350     25353
     25353     25354     25353     25355     25353     25356     25356     25357
     25356     25358     25356     25359     25359     25360     25359     25361
     25359     25362     25362     25363     25362     25364     25362     25365
     25365     25366     25365     25367     25365     25368     25368     25369
     25368     25370     25368     25371     25371     25372     25371     25373
     25371     25374     25374     25375     25374     25376     25374     25377
     25378     25379     25378     25380     25378     25381     25378     25382
     25382     25383     25382     25384     25382     25385     25385     25386
     25385     25387     25385     25392     25392     25388     25388     25391
     25388     25389     25388     25390     25393     25394     25393     25395
     25393     25396     25393     25391     25396     25397     25396     25404
     25396     25398     25404     25405     25404     25406     25404     25407
     25398     25399     25399     25401     25399     25400     25401     25402
     25401     25403     25401     25413     25413     25414     25413     25415
     25413     25416     25416     25417     25416     25418     25416     25419
     25419     25420     25419     25421     25419     25422     25422     25423
     25422     25424     25422     25425     25425     25426     25425     25427
     25425     25428     25428     25429     25428     25430     25428     25431
     25431     25432     25431     25433     25433     25434     25433     25435
     25435     25436     25435     25437     25435     25438     25438     25439
     25438     25440     25438     25441     25441     25442     25441     25443
     25441     25444     25444     25445     25444     25446     25444     25447
     25447     25448     25447     25449     25447     25450     25450     25451
     25450     25452     25450     25453     25453     25454     25453     25455
     25453     25456     25456     25457     25456     25458     25456     25459
     25407     25408     25408     25410     25408     25409     25410     25411
     25410     25412     25410     25460     25460     25461     25460     25462
     25460     25463     25463     25464     25463     25465     25463     25466
     25466     25467     25466     25468     25466     25469     25469     25470
     25469     25471     25469     25472     25472     25473     25472     25474
     25472     25475     25475     25476     25475     25477     25475     25478
     25478     25479     25478     25480     25478     25481     25481     25482
     25481     25483     25481     25484     25484     25485     25484     25486
     25484     25487     25487     25488     25487     25489     25487     25490
     25490     25491     25490     25492     25490     25493     25493     25494
     25493     25495     25493     25496     25496     25497     25496     25498
     25496     25499     25499     25500     25499     25501     25499     25502
     25503     25507     25503     25511     25503     25515     25507     25508
     25507     25509     25507     25510     25511     25512     25511     25513
     25511     25514     25515     25516     25515     25517     25515     25518
     25503     25504     25504     25505     25504     25506     25504     25519
     25519     25520     25519     25521     25519     25525     25526     25527
     25525     25522     25522     25526     25522     25523     25522     25524
     25527     25528     25527     25529     25527     25530     25530     25531
     25530     25538     25530     25532     25538     25539     25538     25540
     25538     25541     25532     25533     25533     25535     25533     25534
     25535     25536     25535     25537     25535     25547     25547     25548
     25547     25549     25547     25550     25550     25551     25550     25552
     25550     25553     25553     25554     25553     25555     25553     25556
     25556     25557     25556     25558     25556     25559     25559     25560
     25559     25561     25559     25562     25562     25563     25562     25564
     25562     25565     25565     25566     25565     25567     25567     25568
     25567     25569     25569     25570     25569     25571     25569     25572
     25572     25573     25572     25574     25572     25575     25575     25576
     25575     25577     25575     25578     25578     25579     25578     25580
     25578     25581     25581     25582     25581     25583     25581     25584
     25584     25585     25584     25586     25584     25587     25587     25588
     25587     25589     25587     25590     25590     25591     25590     25592
     25590     25593     25541     25542     25542     25544     25542     25543
     25544     25545     25544     25546     25544     25594     25594     25595
     25594     25596     25594     25597     25597     25598     25597     25599
     25597     25600     25600     25601     25600     25602     25600     25603
     25603     25604     25603     25605     25603     25606     25606     25607
     25606     25608     25606     25609     25609     25610     25609     25611
     25609     25612     25612     25613     25612     25614     25612     25615
     25615     25616     25615     25617     25615     25618     25618     25619
     25618     25620     25618     25621     25621     25622     25621     25623
     25621     25624     25624     25625     25624     25626     25624     25627
     25627     25628     25627     25629     25627     25630     25630     25631
     25630     25632     25630     25633     25633     25634     25633     25635
     25633     25636     25637     25641     25637     25645     25637     25649
     25641     25642     25641     25643     25641     25644     25645     25646
     25645     25647     25645     25648     25649     25650     25649     25651
     25649     25652     25637     25638     25638     25639     25638     25640
     25638     25653     25653     25654     25653     25655     25653     25659
     25660     25661     25659     25656     25656     25660     25656     25657
     25656     25658     25661     25662     25661     25663     25661     25664
     25664     25665     25664     25672     25664     25666     25672     25673
     25672     25674     25672     25675     25666     25667     25667     25669
     25667     25668     25669     25670     25669     25671     25669     25681
     25681     25682     25681     25683     25681     25684     25684     25685
     25684     25686     25684     25687     25687     25688     25687     25689
     25687     25690     25690     25691     25690     25692     25690     25693
     25693     25694     25693     25695     25693     25696     25696     25697
     25696     25698     25696     25699     25699     25700     25699     25701
     25701     25702     25701     25703     25703     25704     25703     25705
     25703     25706     25706     25707     25706     25708     25706     25709
     25709     25710     25709     25711     25709     25712     25712     25713
     25712     25714     25712     25715     25715     25716     25715     25717
     25715     25718     25718     25719     25718     25720     25718     25721
     25721     25722     25721     25723     25721     25724     25724     25725
     25724     25726     25724     25727     25675     25676     25676     25678
     25676     25677     25678     25679     25678     25680     25678     25728
     25728     25729     25728     25730     25728     25731     25731     25732
     25731     25733     25731     25734     25734     25735     25734     25736
     25734     25737     25737     25738     25737     25739     25737     25740
     25740     25741     25740     25742     25740     25743     25743     25744
     25743     25745     25743     25746     25746     25747     25746     25748
     25746     25749     25749     25750     25749     25751     25749     25752
     25752     25753     25752     25754     25752     25755     25755     25756
     25755     25757     25755     25758     25758     25759     25758     25760
     25758     25761     25761     25762     25761     25763     25761     25764
     25764     25765     25764     25766     25764     25767     25767     25768
     25767     25769     25767     25770     25771     25772     25771     25773
     25771     25774     25771     25775     25775     25776     25775     25777
     25775     25778     25778     25779     25778     25780     25778     25785
     25785     25781     25781     25784     25781     25782     25781     25783
     25786     25787     25786     25788     25786     25789     25786     25784
     25789     25790     25789     25797     25789     25791     25797     25798
     25797     25799     25797     25800     25791     25792     25792     25794
     25792     25793     25794     25795     25794     25796     25794     25806
     25806     25807     25806     25808     25806     25809     25809     25810
     25809     25811     25809     25812     25812     25813     25812     25814
     25812     25815     25815     25816     25815     25817     25815     25818
     25818     25819     25818     25820     25818     25821     25821     25822
     25821     25823     25821     25824     25824     25825     25824     25826
     25826     25827     25826     25828     25828     25829     25828     25830
     25828     25831     25831     25832     25831     25833     25831     25834
     25834     25835     25834     25836     25834     25837     25837     25838
     25837     25839     25837     25840     25840     25841     25840     25842
     25840     25843     25843     25844     25843     25845     25843     25846
     25846     25847     25846     25848     25846     25849     25849     25850
     25849     25851     25849     25852     25800     25801     25801     25803
     25801     25802     25803     25804     25803     25805     25803     25853
     25853     25854     25853     25855     25853     25856     25856     25857
     25856     25858     25856     25859     25859     25860     25859     25861
     25859     25862     25862     25863     25862     25864     25862     25865
     25865     25866     25865     25867     25865     25868     25868     25869
     25868     25870     25868     25871     25871     25872     25871     25873
     25871     25874     25874     25875     25874     25876     25874     25877
     25877     25878     25877     25879     25877     25880     25880     25881
     25880     25882     25880     25883     25883     25884     25883     25885
     25883     25886     25886     25887     25886     25888     25886     25889
     25889     25890     25889     25891     25889     25892     25892     25893
     25892     25894     25892     25895     25896     25897     25896     25898
     25896     25899     25896     25900     25900     25901     25900     25902
     25900     25903     25903     25904     25903     25905     25903     25910
     25910     25906     25906     25909     25906     25907     25906     25908
     25911     25912     25911     25913     25911     25914     25911     25909
     25914     25915     25914     25922     25914     25916     25922     25923
     25922     25924     25922     25925     25916     25917     25917     25919
     25917     25918     25919     25920     25919     25921     25919     25931
     25931     25932     25931     25933     25931     25934     25934     25935
     25934     25936     25934     25937     25937     25938     25937     25939
     25937     25940     25940     25941     25940     25942     25940     25943
     25943     25944     25943     25945     25943     25946     25946     25947
     25946     25948     25946     25949     25949     25950     25949     25951
     25951     25952     25951     25953     25953     25954     25953     25955
     25953     25956     25956     25957     25956     25958     25956     25959
     25959     25960     25959     25961     25959     25962     25962     25963
     25962     25964     25962     25965     25965     25966     25965     25967
     25965     25968     25968     25969     25968     25970     25968     25971
     25971     25972     25971     25973     25971     25974     25974     25975
     25974     25976     25974     25977     25925     25926     25926     25928
     25926     25927     25928     25929     25928     25930     25928     25978
     25978     25979     25978     25980     25978     25981     25981     25982
     25981     25983     25981     25984     25984     25985     25984     25986
     25984     25987     25987     25988     25987     25989     25987     25990
     25990     25991     25990     25992     25990     25993     25993     25994
     25993     25995     25993     25996     25996     25997     25996     25998
     25996     25999     25999     26000     25999     26001     25999     26002
     26002     26003     26002     26004     26002     26005     26005     26006
     26005     26007     26005     26008     26008     26009     26008     26010
     26008     26011     26011     26012     26011     26013     26011     26014
     26014     26015     26014     26016     26014     26017     26017     26018
     26017     26019     26017     26020     26021     26022     26021     26023
     26021     26024     26021     26025     26025     26026     26025     26027
     26025     26028     26028     26029     26028     26030     26028     26035
     26035     26031     26031     26034     26031     26032     26031     26033
     26036     26037     26036     26038     26036     26039     26036     26034
     26039     26040     26039     26047     26039     26041     26047     26048
     26047     26049     26047     26050     26041     26042     26042     26044
     26042     26043     26044     26045     26044     26046     26044     26056
     26056     26057     26056     26058     26056     26059     26059     26060
     26059     26061     26059     26062     26062     26063     26062     26064
     26062     26065     26065     26066     26065     26067     26065     26068
     26068     26069     26068     26070     26068     26071     26071     26072
     26071     26073     26071     26074     26074     26075     26074     26076
     26076     26077     26076     26078     26078     26079     26078     26080
     26078     26081     26081     26082     26081     26083     26081     26084
     26084     26085     26084     26086     26084     26087     26087     26088
     26087     26089     26087     26090     26090     26091     26090     26092
     26090     26093     26093     26094     26093     26095     26093     26096
     26096     26097     26096     26098     26096     26099     26099     26100
     26099     26101     26099     26102     26050     26051     26051     26053
     26051     26052     26053     26054     26053     26055     26053     26103
     26103     26104     26103     26105     26103     26106     26106     26107
     26106     26108     26106     26109     26109     26110     26109     26111
     26109     26112     26112     26113     26112     26114     26112     26115
     26115     26116     26115     26117     26115     26118     26118     26119
     26118     26120     26118     26121     26121     26122     26121     26123
     26121     26124     26124     26125     26124     26126     26124     26127
     26127     26128     26127     26129     26127     26130     26130     26131
     26130     26132     26130     26133     26133     26134     26133     26135
     26133     26136     26136     26137     26136     26138     26136     26139
     26139     26140     26139     26141     26139     26142     26142     26143
     26142     26144     26142     26145     26146     26150     26146     26154
     26146     26158     26150     26151     26150     26152     26150     26153
     26154     26155     26154     26156     26154     26157     26158     26159
     26158     26160     26158     26161     26146     26147     26147     26148
     26147     26149     26147     26162     26162     26163     26162     26164
     26162     26168     26169     26170     26168     26165     26165     26169
     26165     26166     26165     26167     26170     26171     26170     26172
     26170     26173     26173     26174     26173     26181     26173     26175
     26181     26182     26181     26183     26181     26184     26175     26176
     26176     26178     26176     26177     26178     26179     26178     26180
     26178     26190     26190     26191     26190     26192     26190     26193
     26193     26194     26193     26195     26193     26196     26196     26197
     26196     26198     26196     26199     26199     26200     26199     26201
     26199     26202     26202     26203     26202     26204     26202     26205
     26205     26206     26205     26207     26205     26208     26208     26209
     26208     26210     26210     26211     26210     26212     26212     26213
     26212     26214     26212     26215     26215     26216     26215     26217
     26215     26218     26218     26219     26218     26220     26218     26221
     26221     26222     26221     26223     26221     26224     26224     26225
     26224     26226     26224     26227     26227     26228     26227     26229
     26227     26230     26230     26231     26230     26232     26230     26233
     26233     26234     26233     26235     26233     26236     26184     26185
     26185     26187     26185     26186     26187     26188     26187     26189
     26187     26237     26237     26238     26237     26239     26237     26240
     26240     26241     26240     26242     26240     26243     26243     26244
     26243     26245     26243     26246     26246     26247     26246     26248
     26246     26249     26249     26250     26249     26251     26249     26252
     26252     26253     26252     26254     26252     26255     26255     26256
     26255     26257     26255     26258     26258     26259     26258     26260
     26258     26261     26261     26262     26261     26263     26261     26264
     26264     26265     26264     26266     26264     26267     26267     26268
     26267     26269     26267     26270     26270     26271     26270     26272
     26270     26273     26273     26274     26273     26275     26273     26276
     26276     26277     26276     26278     26276     26279     26280     26284
     26280     26288     26280     26292     26284     26285     26284     26286
     26284     26287     26288     26289     26288     26290     26288     26291
     26292     26293     26292     26294     26292     26295     26280     26281
     26281     26282     26281     26283     26281     26296     26296     26297
     26296     26298     26296     26302     26303     26304     26302     26299
     26299     26303     26299     26300     26299     26301     26304     26305
     26304     26306     26304     26307     26307     26308     26307     26315
     26307     26309     26315     26316     26315     26317     26315     26318
     26309     26310     26310     26312     26310     26311     26312     26313
     26312     26314     26312     26324     26324     26325     26324     26326
     26324     26327     26327     26328     26327     26329     26327     26330
     26330     26331     26330     26332     26330     26333     26333     26334
     26333     26335     26333     26336     26336     26337     26336     26338
     26336     26339     26339     26340     26339     26341     26339     26342
     26342     26343     26342     26344     26344     26345     26344     26346
     26346     26347     26346     26348     26346     26349     26349     26350
     26349     26351     26349     26352     26352     26353     26352     26354
     26352     26355     26355     26356     26355     26357     26355     26358
     26358     26359     26358     26360     26358     26361     26361     26362
     26361     26363     26361     26364     26364     26365     26364     26366
     26364     26367     26367     26368     26367     26369     26367     26370
     26318     26319     26319     26321     26319     26320     26321     26322
     26321     26323     26321     26371     26371     26372     26371     26373
     26371     26374     26374     26375     26374     26376     26374     26377
     26377     26378     26377     26379     26377     26380     26380     26381
     26380     26382     26380     26383     26383     26384     26383     26385
     26383     26386     26386     26387     26386     26388     26386     26389
     26389     26390     26389     26391     26389     26392     26392     26393
     26392     26394     26392     26395     26395     26396     26395     26397
     26395     26398     26398     26399     26398     26400     26398     26401
     26401     26402     26401     26403     26401     26404     26404     26405
     26404     26406     26404     26407     26407     26408     26407     26409
     26407     26410     26410     26411     26410     26412     26410     26413
     26414     26415     26414     26416     26414     26417     26414     26418
     26418     26419     26418     26420     26418     26421     26421     26422
     26421     26423     26421     26428     26428     26424     26424     26427
     26424     26425     26424     26426     26429     26430     26429     26431
     26429     26432     26429     26427     26432     26433     26432     26440
     26432     26434     26440     26441     26440     26442     26440     26443
     26434     26435     26435     26437     26435     26436     26437     26438
     26437     26439     26437     26449     26449     26450     26449     26451
     26449     26452     26452     26453     26452     26454     26452     26455
     26455     26456     26455     26457     26455     26458     26458     26459
     26458     26460     26458     26461     26461     26462     26461     26463
     26461     26464     26464     26465     26464     26466     26464     26467
     26467     26468     26467     26469     26469     26470     26469     26471
     26471     26472     26471     26473     26471     26474     26474     26475
     26474     26476     26474     26477     26477     26478     26477     26479
     26477     26480     26480     26481     26480     26482     26480     26483
     26483     26484     26483     26485     26483     26486     26486     26487
     26486     26488     26486     26489     26489     26490     26489     26491
     26489     26492     26492     26493     26492     26494     26492     26495
     26443     26444     26444     26446     26444     26445     26446     26447
     26446     26448     26446     26496     26496     26497     26496     26498
     26496     26499     26499     26500     26499     26501     26499     26502
     26502     26503     26502     26504     26502     26505     26505     26506
     26505     26507     26505     26508     26508     26509     26508     26510
     26508     26511     26511     26512     26511     26513     26511     26514
     26514     26515     26514     26516     26514     26517     26517     26518
     26517     26519     26517     26520     26520     26521     26520     26522
     26520     26523     26523     26524     26523     26525     26523     26526
     26526     26527     26526     26528     26526     26529     26529     26530
     26529     26531     26529     26532     26532     26533     26532     26534
     26532     26535     26535     26536     26535     26537     26535     26538
     26539     26540     26539     26541     26539     26542     26539     26543
     26543     26544     26543     26545     26543     26546     26546     26547
     26546     26548     26546     26553     26553     26549     26549     26552
     26549     26550     26549     26551     26554     26555     26554     26556
     26554     26557     26554     26552     26557     26558     26557     26565
     26557     26559     26565     26566     26565     26567     26565     26568
     26559     26560     26560     26562     26560     26561     26562     26563
     26562     26564     26562     26574     26574     26575     26574     26576
     26574     26577     26577     26578     26577     26579     26577     26580
     26580     26581     26580     26582     26580     26583     26583     26584
     26583     26585     26583     26586     26586     26587     26586     26588
     26586     26589     26589     26590     26589     26591     26589     26592
     26592     26593     26592     26594     26594     26595     26594     26596
     26596     26597     26596     26598     26596     26599     26599     26600
     26599     26601     26599     26602     26602     26603     26602     26604
     26602     26605     26605     26606     26605     26607     26605     26608
     26608     26609     26608     26610     26608     26611     26611     26612
     26611     26613     26611     26614     26614     26615     26614     26616
     26614     26617     26617     26618     26617     26619     26617     26620
     26568     26569     26569     26571     26569     26570     26571     26572
     26571     26573     26571     26621     26621     26622     26621     26623
     26621     26624     26624     26625     26624     26626     26624     26627
     26627     26628     26627     26629     26627     26630     26630     26631
     26630     26632     26630     26633     26633     26634     26633     26635
     26633     26636     26636     26637     26636     26638     26636     26639
     26639     26640     26639     26641     26639     26642     26642     26643
     26642     26644     26642     26645     26645     26646     26645     26647
     26645     26648     26648     26649     26648     26650     26648     26651
     26651     26652     26651     26653     26651     26654     26654     26655
     26654     26656     26654     26657     26657     26658     26657     26659
     26657     26660     26660     26661     26660     26662     26660     26663
     26664     26665     26664     26666     26664     26667     26664     26668
     26668     26669     26668     26670     26668     26671     26671     26672
     26671     26673     26671     26678     26678     26674     26674     26677
     26674     26675     26674     26676     26679     26680     26679     26681
     26679     26682     26679     26677     26682     26683     26682     26690
     26682     26684     26690     26691     26690     26692     26690     26693
     26684     26685     26685     26687     26685     26686     26687     26688
     26687     26689     26687     26699     26699     26700     26699     26701
     26699     26702     26702     26703     26702     26704     26702     26705
     26705     26706     26705     26707     26705     26708     26708     26709
     26708     26710     26708     26711     26711     26712     26711     26713
     26711     26714     26714     26715     26714     26716     26714     26717
     26717     26718     26717     26719     26719     26720     26719     26721
     26721     26722     26721     26723     26721     26724     26724     26725
     26724     26726     26724     26727     26727     26728     26727     26729
     26727     26730     26730     26731     26730     26732     26730     26733
     26733     26734     26733     26735     26733     26736     26736     26737
     26736     26738     26736     26739     26739     26740     26739     26741
     26739     26742     26742     26743     26742     26744     26742     26745
     26693     26694     26694     26696     26694     26695     26696     26697
     26696     26698     26696     26746     26746     26747     26746     26748
     26746     26749     26749     26750     26749     26751     26749     26752
     26752     26753     26752     26754     26752     26755     26755     26756
     26755     26757     26755     26758     26758     26759     26758     26760
     26758     26761     26761     26762     26761     26763     26761     26764
     26764     26765     26764     26766     26764     26767     26767     26768
     26767     26769     26767     26770     26770     26771     26770     26772
     26770     26773     26773     26774     26773     26775     26773     26776
     26776     26777     26776     26778     26776     26779     26779     26780
     26779     26781     26779     26782     26782     26783     26782     26784
     26782     26785     26785     26786     26785     26787     26785     26788
     26789     26790     26789     26791     26789     26792     26789     26793
     26793     26794     26793     26795     26793     26796     26796     26797
     26796     26798     26796     26803     26803     26799     26799     26802
     26799     26800     26799     26801     26804     26805     26804     26806
     26804     26807     26804     26802     26807     26808     26807     26815
     26807     26809     26815     26816     26815     26817     26815     26818
     26809     26810     26810     26812     26810     26811     26812     26813
     26812     26814     26812     26824     26824     26825     26824     26826
     26824     26827     26827     26828     26827     26829     26827     26830
     26830     26831     26830     26832     26830     26833     26833     26834
     26833     26835     26833     26836     26836     26837     26836     26838
     26836     26839     26839     26840     26839     26841     26839     26842
     26842     26843     26842     26844     26844     26845     26844     26846
     26846     26847     26846     26848     26846     26849     26849     26850
     26849     26851     26849     26852     26852     26853     26852     26854
     26852     26855     26855     26856     26855     26857     26855     26858
     26858     26859     26858     26860     26858     26861     26861     26862
     26861     26863     26861     26864     26864     26865     26864     26866
     26864     26867     26867     26868     26867     26869     26867     26870
     26818     26819     26819     26821     26819     26820     26821     26822
     26821     26823     26821     26871     26871     26872     26871     26873
     26871     26874     26874     26875     26874     26876     26874     26877
     26877     26878     26877     26879     26877     26880     26880     26881
     26880     26882     26880     26883     26883     26884     26883     26885
     26883     26886     26886     26887     26886     26888     26886     26889
     26889     26890     26889     26891     26889     26892     26892     26893
     26892     26894     26892     26895     26895     26896     26895     26897
     26895     26898     26898     26899     26898     26900     26898     26901
     26901     26902     26901     26903     26901     26904     26904     26905
     26904     26906     26904     26907     26907     26908     26907     26909
     26907     26910     26910     26911     26910     26912     26910     26913
     26914     26918     26914     26922     26914     26926     26918     26919
     26918     26920     26918     26921     26922     26923     26922     26924
     26922     26925     26926     26927     26926     26928     26926     26929
     26914     26915     26915     26916     26915     26917     26915     26930
     26930     26931     26930     26932     26930     26936     26937     26938
     26936     26933     26933     26937     26933     26934     26933     26935
     26938     26939     26938     26940     26938     26941     26941     26942
     26941     26949     26941     26943     26949     26950     26949     26951
     26949     26952     26943     26944     26944     26946     26944     26945
     26946     26947     26946     26948     26946     26958     26958     26959
     26958     26960     26958     26961     26961     26962     26961     26963
     26961     26964     26964     26965     26964     26966     26964     26967
     26967     26968     26967     26969     26967     26970     26970     26971
     26970     26972     26970     26973     26973     26974     26973     26975
     26973     26976     26976     26977     26976     26978     26978     26979
     26978     26980     26980     26981     26980     26982     26980     26983
     26983     26984     26983     26985     26983     26986     26986     26987
     26986     26988     26986     26989     26989     26990     26989     26991
     26989     26992     26992     26993     26992     26994     26992     26995
     26995     26996     26995     26997     26995     26998     26998     26999
     26998     27000     26998     27001     27001     27002     27001     27003
     27001     27004     26952     26953     26953     26955     26953     26954
     26955     26956     26955     26957     26955     27005     27005     27006
     27005     27007     27005     27008     27008     27009     27008     27010
     27008     27011     27011     27012     27011     27013     27011     27014
     27014     27015     27014     27016     27014     27017     27017     27018
     27017     27019     27017     27020     27020     27021     27020     27022
     27020     27023     27023     27024     27023     27025     27023     27026
     27026     27027     27026     27028     27026     27029     27029     27030
     27029     27031     27029     27032     27032     27033     27032     27034
     27032     27035     27035     27036     27035     27037     27035     27038
     27038     27039     27038     27040     27038     27041     27041     27042
     27041     27043     27041     27044     27044     27045     27044     27046
     27044     27047     27048     27052     27048     27056     27048     27060
     27052     27053     27052     27054     27052     27055     27056     27057
     27056     27058     27056     27059     27060     27061     27060     27062
     27060     27063     27048     27049     27049     27050     27049     27051
     27049     27064     27064     27065     27064     27066     27064     27070
     27071     27072     27070     27067     27067     27071     27067     27068
     27067     27069     27072     27073     27072     27074     27072     27075
     27075     27076     27075     27083     27075     27077     27083     27084
     27083     27085     27083     27086     27077     27078     27078     27080
     27078     27079     27080     27081     27080     27082     27080     27092
     27092     27093     27092     27094     27092     27095     27095     27096
     27095     27097     27095     27098     27098     27099     27098     27100
     27098     27101     27101     27102     27101     27103     27101     27104
     27104     27105     27104     27106     27104     27107     27107     27108
     27107     27109     27107     27110     27110     27111     27110     27112
     27112     27113     27112     27114     27114     27115     27114     27116
     27114     27117     27117     27118     27117     27119     27117     27120
     27120     27121     27120     27122     27120     27123     27123     27124
     27123     27125     27123     27126     27126     27127     27126     27128
     27126     27129     27129     27130     27129     27131     27129     27132
     27132     27133     27132     27134     27132     27135     27135     27136
     27135     27137     27135     27138     27086     27087     27087     27089
     27087     27088     27089     27090     27089     27091     27089     27139
     27139     27140     27139     27141     27139     27142     27142     27143
     27142     27144     27142     27145     27145     27146     27145     27147
     27145     27148     27148     27149     27148     27150     27148     27151
     27151     27152     27151     27153     27151     27154     27154     27155
     27154     27156     27154     27157     27157     27158     27157     27159
     27157     27160     27160     27161     27160     27162     27160     27163
     27163     27164     27163     27165     27163     27166     27166     27167
     27166     27168     27166     27169     27169     27170     27169     27171
     27169     27172     27172     27173     27172     27174     27172     27175
     27175     27176     27175     27177     27175     27178     27178     27179
     27178     27180     27178     27181     27182     27186     27182     27190
     27182     27194     27186     27187     27186     27188     27186     27189
     27190     27191     27190     27192     27190     27193     27194     27195
     27194     27196     27194     27197     27182     27183     27183     27184
     27183     27185     27183     27198     27198     27199     27198     27200
     27198     27204     27205     27206     27204     27201     27201     27205
     27201     27202     27201     27203     27206     27207     27206     27208
     27206     27209     27209     27210     27209     27217     27209     27211
     27217     27218     27217     27219     27217     27220     27211     27212
     27212     27214     27212     27213     27214     27215     27214     27216
     27214     27226     27226     27227     27226     27228     27226     27229
     27229     27230     27229     27231     27229     27232     27232     27233
     27232     27234     27232     27235     27235     27236     27235     27237
     27235     27238     27238     27239     27238     27240     27238     27241
     27241     27242     27241     27243     27241     27244     27244     27245
     27244     27246     27246     27247     27246     27248     27248     27249
     27248     27250     27248     27251     27251     27252     27251     27253
     27251     27254     27254     27255     27254     27256     27254     27257
     27257     27258     27257     27259     27257     27260     27260     27261
     27260     27262     27260     27263     27263     27264     27263     27265
     27263     27266     27266     27267     27266     27268     27266     27269
     27269     27270     27269     27271     27269     27272     27220     27221
     27221     27223     27221     27222     27223     27224     27223     27225
     27223     27273     27273     27274     27273     27275     27273     27276
     27276     27277     27276     27278     27276     27279     27279     27280
     27279     27281     27279     27282     27282     27283     27282     27284
     27282     27285     27285     27286     27285     27287     27285     27288
     27288     27289     27288     27290     27288     27291     27291     27292
     27291     27293     27291     27294     27294     27295     27294     27296
     27294     27297     27297     27298     27297     27299     27297     27300
     27300     27301     27300     27302     27300     27303     27303     27304
     27303     27305     27303     27306     27306     27307     27306     27308
     27306     27309     27309     27310     27309     27311     27309     27312
     27312     27313     27312     27314     27312     27315     27316     27320
     27316     27324     27316     27328     27320     27321     27320     27322
     27320     27323     27324     27325     27324     27326     27324     27327
     27328     27329     27328     27330     27328     27331     27316     27317
     27317     27318     27317     27319     27317     27332     27332     27333
     27332     27334     27332     27338     27339     27340     27338     27335
     27335     27339     27335     27336     27335     27337     27340     27341
     27340     27342     27340     27343     27343     27344     27343     27351
     27343     27345     27351     27352     27351     27353     27351     27354
     27345     27346     27346     27348     27346     27347     27348     27349
     27348     27350     27348     27360     27360     27361     27360     27362
     27360     27363     27363     27364     27363     27365     27363     27366
     27366     27367     27366     27368     27366     27369     27369     27370
     27369     27371     27369     27372     27372     27373     27372     27374
     27372     27375     27375     27376     27375     27377     27375     27378
     27378     27379     27378     27380     27380     27381     27380     27382
     27382     27383     27382     27384     27382     27385     27385     27386
     27385     27387     27385     27388     27388     27389     27388     27390
     27388     27391     27391     27392     27391     27393     27391     27394
     27394     27395     27394     27396     27394     27397     27397     27398
     27397     27399     27397     27400     27400     27401     27400     27402
     27400     27403     27403     27404     27403     27405     27403     27406
     27354     27355     27355     27357     27355     27356     27357     27358
     27357     27359     27357     27407     27407     27408     27407     27409
     27407     27410     27410     27411     27410     27412     27410     27413
     27413     27414     27413     27415     27413     27416     27416     27417
     27416     27418     27416     27419     27419     27420     27419     27421
     27419     27422     27422     27423     27422     27424     27422     27425
     27425     27426     27425     27427     27425     27428     27428     27429
     27428     27430     27428     27431     27431     27432     27431     27433
     27431     27434     27434     27435     27434     27436     27434     27437
     27437     27438     27437     27439     27437     27440     27440     27441
     27440     27442     27440     27443     27443     27444     27443     27445
     27443     27446     27446     27447     27446     27448     27446     27449
     27450     27454     27450     27458     27450     27462     27454     27455
     27454     27456     27454     27457     27458     27459     27458     27460
     27458     27461     27462     27463     27462     27464     27462     27465
     27450     27451     27451     27452     27451     27453     27451     27466
     27466     27467     27466     27468     27466     27472     27473     27474
     27472     27469     27469     27473     27469     27470     27469     27471
     27474     27475     27474     27476     27474     27477     27477     27478
     27477     27485     27477     27479     27485     27486     27485     27487
     27485     27488     27479     27480     27480     27482     27480     27481
     27482     27483     27482     27484     27482     27494     27494     27495
     27494     27496     27494     27497     27497     27498     27497     27499
     27497     27500     27500     27501     27500     27502     27500     27503
     27503     27504     27503     27505     27503     27506     27506     27507
     27506     27508     27506     27509     27509     27510     27509     27511
     27509     27512     27512     27513     27512     27514     27514     27515
     27514     27516     27516     27517     27516     27518     27516     27519
     27519     27520     27519     27521     27519     27522     27522     27523
     27522     27524     27522     27525     27525     27526     27525     27527
     27525     27528     27528     27529     27528     27530     27528     27531
     27531     27532     27531     27533     27531     27534     27534     27535
     27534     27536     27534     27537     27537     27538     27537     27539
     27537     27540     27488     27489     27489     27491     27489     27490
     27491     27492     27491     27493     27491     27541     27541     27542
     27541     27543     27541     27544     27544     27545     27544     27546
     27544     27547     27547     27548     27547     27549     27547     27550
     27550     27551     27550     27552     27550     27553     27553     27554
     27553     27555     27553     27556     27556     27557     27556     27558
     27556     27559     27559     27560     27559     27561     27559     27562
     27562     27563     27562     27564     27562     27565     27565     27566
     27565     27567     27565     27568     27568     27569     27568     27570
     27568     27571     27571     27572     27571     27573     27571     27574
     27574     27575     27574     27576     27574     27577     27577     27578
     27577     27579     27577     27580     27580     27581     27580     27582
     27580     27583     27584     27585     27584     27586     27584     27587
     27584     27588     27588     27589     27588     27590     27588     27591
     27591     27592     27591     27593     27591     27598     27598     27594
     27594     27597     27594     27595     27594     27596     27599     27600
     27599     27601     27599     27602     27599     27597     27602     27603
     27602     27610     27602     27604     27610     27611     27610     27612
     27610     27613     27604     27605     27605     27607     27605     27606
     27607     27608     27607     27609     27607     27619     27619     27620
     27619     27621     27619     27622     27622     27623     27622     27624
     27622     27625     27625     27626     27625     27627     27625     27628
     27628     27629     27628     27630     27628     27631     27631     27632
     27631     27633     27631     27634     27634     27635     27634     27636
     27634     27637     27637     27638     27637     27639     27639     27640
     27639     27641     27641     27642     27641     27643     27641     27644
     27644     27645     27644     27646     27644     27647     27647     27648
     27647     27649     27647     27650     27650     27651     27650     27652
     27650     27653     27653     27654     27653     27655     27653     27656
     27656     27657     27656     27658     27656     27659     27659     27660
     27659     27661     27659     27662     27662     27663     27662     27664
     27662     27665     27613     27614     27614     27616     27614     27615
     27616     27617     27616     27618     27616     27666     27666     27667
     27666     27668     27666     27669     27669     27670     27669     27671
     27669     27672     27672     27673     27672     27674     27672     27675
     27675     27676     27675     27677     27675     27678     27678     27679
     27678     27680     27678     27681     27681     27682     27681     27683
     27681     27684     27684     27685     27684     27686     27684     27687
     27687     27688     27687     27689     27687     27690     27690     27691
     27690     27692     27690     27693     27693     27694     27693     27695
     27693     27696     27696     27697     27696     27698     27696     27699
     27699     27700     27699     27701     27699     27702     27702     27703
     27702     27704     27702     27705     27705     27706     27705     27707
     27705     27708     27709     27710     27709     27711     27709     27712
     27709     27713     27713     27714     27713     27715     27713     27716
     27716     27717     27716     27718     27716     27723     27723     27719
     27719     27722     27719     27720     27719     27721     27724     27725
     27724     27726     27724     27727     27724     27722     27727     27728
     27727     27735     27727     27729     27735     27736     27735     27737
     27735     27738     27729     27730     27730     27732     27730     27731
     27732     27733     27732     27734     27732     27744     27744     27745
     27744     27746     27744     27747     27747     27748     27747     27749
     27747     27750     27750     27751     27750     27752     27750     27753
     27753     27754     27753     27755     27753     27756     27756     27757
     27756     27758     27756     27759     27759     27760     27759     27761
     27759     27762     27762     27763     27762     27764     27764     27765
     27764     27766     27766     27767     27766     27768     27766     27769
     27769     27770     27769     27771     27769     27772     27772     27773
     27772     27774     27772     27775     27775     27776     27775     27777
     27775     27778     27778     27779     27778     27780     27778     27781
     27781     27782     27781     27783     27781     27784     27784     27785
     27784     27786     27784     27787     27787     27788     27787     27789
     27787     27790     27738     27739     27739     27741     27739     27740
     27741     27742     27741     27743     27741     27791     27791     27792
     27791     27793     27791     27794     27794     27795     27794     27796
     27794     27797     27797     27798     27797     27799     27797     27800
     27800     27801     27800     27802     27800     27803     27803     27804
     27803     27805     27803     27806     27806     27807     27806     27808
     27806     27809     27809     27810     27809     27811     27809     27812
     27812     27813     27812     27814     27812     27815     27815     27816
     27815     27817     27815     27818     27818     27819     27818     27820
     27818     27821     27821     27822     27821     27823     27821     27824
     27824     27825     27824     27826     27824     27827     27827     27828
     27827     27829     27827     27830     27830     27831     27830     27832
     27830     27833     27834     27835     27834     27836     27834     27837
     27834     27838     27838     27839     27838     27840     27838     27841
     27841     27842     27841     27843     27841     27848     27848     27844
     27844     27847     27844     27845     27844     27846     27849     27850
     27849     27851     27849     27852     27849     27847     27852     27853
     27852     27860     27852     27854     27860     27861     27860     27862
     27860     27863     27854     27855     27855     27857     27855     27856
     27857     27858     27857     27859     27857     27869     27869     27870
     27869     27871     27869     27872     27872     27873     27872     27874
     27872     27875     27875     27876     27875     27877     27875     27878
     27878     27879     27878     27880     27878     27881     27881     27882
     27881     27883     27881     27884     27884     27885     27884     27886
     27884     27887     27887     27888     27887     27889     27889     27890
     27889     27891     27891     27892     27891     27893     27891     27894
     27894     27895     27894     27896     27894     27897     27897     27898
     27897     27899     27897     27900     27900     27901     27900     27902
     27900     27903     27903     27904     27903     27905     27903     27906
     27906     27907     27906     27908     27906     27909     27909     27910
     27909     27911     27909     27912     27912     27913     27912     27914
     27912     27915     27863     27864     27864     27866     27864     27865
     27866     27867     27866     27868     27866     27916     27916     27917
     27916     27918     27916     27919     27919     27920     27919     27921
     27919     27922     27922     27923     27922     27924     27922     27925
     27925     27926     27925     27927     27925     27928     27928     27929
     27928     27930     27928     27931     27931     27932     27931     27933
     27931     27934     27934     27935     27934     27936     27934     27937
     27937     27938     27937     27939     27937     27940     27940     27941
     27940     27942     27940     27943     27943     27944     27943     27945
     27943     27946     27946     27947     27946     27948     27946     27949
     27949     27950     27949     27951     27949     27952     27952     27953
     27952     27954     27952     27955     27955     27956     27955     27957
     27955     27958     27959     27963     27959     27967     27959     27971
     27963     27964     27963     27965     27963     27966     27967     27968
     27967     27969     27967     27970     27971     27972     27971     27973
     27971     27974     27959     27960     27960     27961     27960     27962
     27960     27975     27975     27976     27975     27977     27975     27981
     27982     27983     27981     27978     27978     27982     27978     27979
     27978     27980     27983     27984     27983     27985     27983     27986
     27986     27987     27986     27994     27986     27988     27994     27995
     27994     27996     27994     27997     27988     27989     27989     27991
     27989     27990     27991     27992     27991     27993     27991     28003
     28003     28004     28003     28005     28003     28006     28006     28007
     28006     28008     28006     28009     28009     28010     28009     28011
     28009     28012     28012     28013     28012     28014     28012     28015
     28015     28016     28015     28017     28015     28018     28018     28019
     28018     28020     28018     28021     28021     28022     28021     28023
     28023     28024     28023     28025     28025     28026     28025     28027
     28025     28028     28028     28029     28028     28030     28028     28031
     28031     28032     28031     28033     28031     28034     28034     28035
     28034     28036     28034     28037     28037     28038     28037     28039
     28037     28040     28040     28041     28040     28042     28040     28043
     28043     28044     28043     28045     28043     28046     28046     28047
     28046     28048     28046     28049     27997     27998     27998     28000
     27998     27999     28000     28001     28000     28002     28000     28050
     28050     28051     28050     28052     28050     28053     28053     28054
     28053     28055     28053     28056     28056     28057     28056     28058
     28056     28059     28059     28060     28059     28061     28059     28062
     28062     28063     28062     28064     28062     28065     28065     28066
     28065     28067     28065     28068     28068     28069     28068     28070
     28068     28071     28071     28072     28071     28073     28071     28074
     28074     28075     28074     28076     28074     28077     28077     28078
     28077     28079     28077     28080     28080     28081     28080     28082
     28080     28083     28083     28084     28083     28085     28083     28086
     28086     28087     28086     28088     28086     28089     28089     28090
     28089     28091     28089     28092     28093     28097     28093     28101
     28093     28105     28097     28098     28097     28099     28097     28100
     28101     28102     28101     28103     28101     28104     28105     28106
     28105     28107     28105     28108     28093     28094     28094     28095
     28094     28096     28094     28109     28109     28110     28109     28111
     28109     28115     28116     28117     28115     28112     28112     28116
     28112     28113     28112     28114     28117     28118     28117     28119
     28117     28120     28120     28121     28120     28128     28120     28122
     28128     28129     28128     28130     28128     28131     28122     28123
     28123     28125     28123     28124     28125     28126     28125     28127
     28125     28137     28137     28138     28137     28139     28137     28140
     28140     28141     28140     28142     28140     28143     28143     28144
     28143     28145     28143     28146     28146     28147     28146     28148
     28146     28149     28149     28150     28149     28151     28149     28152
     28152     28153     28152     28154     28152     28155     28155     28156
     28155     28157     28157     28158     28157     28159     28159     28160
     28159     28161     28159     28162     28162     28163     28162     28164
     28162     28165     28165     28166     28165     28167     28165     28168
     28168     28169     28168     28170     28168     28171     28171     28172
     28171     28173     28171     28174     28174     28175     28174     28176
     28174     28177     28177     28178     28177     28179     28177     28180
     28180     28181     28180     28182     28180     28183     28131     28132
     28132     28134     28132     28133     28134     28135     28134     28136
     28134     28184     28184     28185     28184     28186     28184     28187
     28187     28188     28187     28189     28187     28190     28190     28191
     28190     28192     28190     28193     28193     28194     28193     28195
     28193     28196     28196     28197     28196     28198     28196     28199
     28199     28200     28199     28201     28199     28202     28202     28203
     28202     28204     28202     28205     28205     28206     28205     28207
     28205     28208     28208     28209     28208     28210     28208     28211
     28211     28212     28211     28213     28211     28214     28214     28215
     28214     28216     28214     28217     28217     28218     28217     28219
     28217     28220     28220     28221     28220     28222     28220     28223
     28223     28224     28223     28225     28223     28226     28227     28228
     28227     28229     28227     28230     28227     28231     28231     28232
     28231     28233     28231     28234     28234     28235     28234     28236
     28234     28241     28241     28237     28237     28240     28237     28238
     28237     28239     28242     28243     28242     28244     28242     28245
     28242     28240     28245     28246     28245     28253     28245     28247
     28253     28254     28253     28255     28253     28256     28247     28248
     28248     28250     28248     28249     28250     28251     28250     28252
     28250     28262     28262     28263     28262     28264     28262     28265
     28265     28266     28265     28267     28265     28268     28268     28269
     28268     28270     28268     28271     28271     28272     28271     28273
     28271     28274     28274     28275     28274     28276     28274     28277
     28277     28278     28277     28279     28277     28280     28280     28281
     28280     28282     28282     28283     28282     28284     28284     28285
     28284     28286     28284     28287     28287     28288     28287     28289
     28287     28290     28290     28291     28290     28292     28290     28293
     28293     28294     28293     28295     28293     28296     28296     28297
     28296     28298     28296     28299     28299     28300     28299     28301
     28299     28302     28302     28303     28302     28304     28302     28305
     28305     28306     28305     28307     28305     28308     28256     28257
     28257     28259     28257     28258     28259     28260     28259     28261
     28259     28309     28309     28310     28309     28311     28309     28312
     28312     28313     28312     28314     28312     28315     28315     28316
     28315     28317     28315     28318     28318     28319     28318     28320
     28318     28321     28321     28322     28321     28323     28321     28324
     28324     28325     28324     28326     28324     28327     28327     28328
     28327     28329     28327     28330     28330     28331     28330     28332
     28330     28333     28333     28334     28333     28335     28333     28336
     28336     28337     28336     28338     28336     28339     28339     28340
     28339     28341     28339     28342     28342     28343     28342     28344
     28342     28345     28345     28346     28345     28347     28345     28348
     28348     28349     28348     28350     28348     28351     28352     28353
     28352     28354     28352     28355     28352     28356     28356     28357
     28356     28358     28356     28359     28359     28360     28359     28361
     28359     28366     28366     28362     28362     28365     28362     28363
     28362     28364     28367     28368     28367     28369     28367     28370
     28367     28365     28370     28371     28370     28378     28370     28372
     28378     28379     28378     28380     28378     28381     28372     28373
     28373     28375     28373     28374     28375     28376     28375     28377
     28375     28387     28387     28388     28387     28389     28387     28390
     28390     28391     28390     28392     28390     28393     28393     28394
     28393     28395     28393     28396     28396     28397     28396     28398
     28396     28399     28399     28400     28399     28401     28399     28402
     28402     28403     28402     28404     28402     28405     28405     28406
     28405     28407     28407     28408     28407     28409     28409     28410
     28409     28411     28409     28412     28412     28413     28412     28414
     28412     28415     28415     28416     28415     28417     28415     28418
     28418     28419     28418     28420     28418     28421     28421     28422
     28421     28423     28421     28424     28424     28425     28424     28426
     28424     28427     28427     28428     28427     28429     28427     28430
     28430     28431     28430     28432     28430     28433     28381     28382
     28382     28384     28382     28383     28384     28385     28384     28386
     28384     28434     28434     28435     28434     28436     28434     28437
     28437     28438     28437     28439     28437     28440     28440     28441
     28440     28442     28440     28443     28443     28444     28443     28445
     28443     28446     28446     28447     28446     28448     28446     28449
     28449     28450     28449     28451     28449     28452     28452     28453
     28452     28454     28452     28455     28455     28456     28455     28457
     28455     28458     28458     28459     28458     28460     28458     28461
     28461     28462     28461     28463     28461     28464     28464     28465
     28464     28466     28464     28467     28467     28468     28467     28469
     28467     28470     28470     28471     28470     28472     28470     28473
     28473     28474     28473     28475     28473     28476     28477     28478
     28477     28479     28477     28480     28477     28481     28481     28482
     28481     28483     28481     28484     28484     28485     28484     28486
     28484     28491     28491     28487     28487     28490     28487     28488
     28487     28489     28492     28493     28492     28494     28492     28495
     28492     28490     28495     28496     28495     28503     28495     28497
     28503     28504     28503     28505     28503     28506     28497     28498
     28498     28500     28498     28499     28500     28501     28500     28502
     28500     28512     28512     28513     28512     28514     28512     28515
     28515     28516     28515     28517     28515     28518     28518     28519
     28518     28520     28518     28521     28521     28522     28521     28523
     28521     28524     28524     28525     28524     28526     28524     28527
     28527     28528     28527     28529     28527     28530     28530     28531
     28530     28532     28532     28533     28532     28534     28534     28535
     28534     28536     28534     28537     28537     28538     28537     28539
     28537     28540     28540     28541     28540     28542     28540     28543
     28543     28544     28543     28545     28543     28546     28546     28547
     28546     28548     28546     28549     28549     28550     28549     28551
     28549     28552     28552     28553     28552     28554     28552     28555
     28555     28556     28555     28557     28555     28558     28506     28507
     28507     28509     28507     28508     28509     28510     28509     28511
     28509     28559     28559     28560     28559     28561     28559     28562
     28562     28563     28562     28564     28562     28565     28565     28566
     28565     28567     28565     28568     28568     28569     28568     28570
     28568     28571     28571     28572     28571     28573     28571     28574
     28574     28575     28574     28576     28574     28577     28577     28578
     28577     28579     28577     28580     28580     28581     28580     28582
     28580     28583     28583     28584     28583     28585     28583     28586
     28586     28587     28586     28588     28586     28589     28589     28590
     28589     28591     28589     28592     28592     28593     28592     28594
     28592     28595     28595     28596     28595     28597     28595     28598
     28598     28599     28598     28600     28598     28601     28602     28603
     28602     28604     28602     28605     28602     28606     28606     28607
     28606     28608     28606     28609     28609     28610     28609     28611
     28609     28616     28616     28612     28612     28615     28612     28613
     28612     28614     28617     28618     28617     28619     28617     28620
     28617     28615     28620     28621     28620     28628     28620     28622
     28628     28629     28628     28630     28628     28631     28622     28623
     28623     28625     28623     28624     28625     28626     28625     28627
     28625     28637     28637     28638     28637     28639     28637     28640
     28640     28641     28640     28642     28640     28643     28643     28644
     28643     28645     28643     28646     28646     28647     28646     28648
     28646     28649     28649     28650     28649     28651     28649     28652
     28652     28653     28652     28654     28652     28655     28655     28656
     28655     28657     28657     28658     28657     28659     28659     28660
     28659     28661     28659     28662     28662     28663     28662     28664
     28662     28665     28665     28666     28665     28667     28665     28668
     28668     28669     28668     28670     28668     28671     28671     28672
     28671     28673     28671     28674     28674     28675     28674     28676
     28674     28677     28677     28678     28677     28679     28677     28680
     28680     28681     28680     28682     28680     28683     28631     28632
     28632     28634     28632     28633     28634     28635     28634     28636
     28634     28684     28684     28685     28684     28686     28684     28687
     28687     28688     28687     28689     28687     28690     28690     28691
     28690     28692     28690     28693     28693     28694     28693     28695
     28693     28696     28696     28697     28696     28698     28696     28699
     28699     28700     28699     28701     28699     28702     28702     28703
     28702     28704     28702     28705     28705     28706     28705     28707
     28705     28708     28708     28709     28708     28710     28708     28711
     28711     28712     28711     28713     28711     28714     28714     28715
     28714     28716     28714     28717     28717     28718     28717     28719
     28717     28720     28720     28721     28720     28722     28720     28723
     28723     28724     28723     28725     28723     28726     28727     28728
     28727     28729     28727     28730     28727     28731     28731     28732
     28731     28733     28731     28734     28734     28735     28734     28736
     28734     28741     28741     28737     28737     28740     28737     28738
     28737     28739     28742     28743     28742     28744     28742     28745
     28742     28740     28745     28746     28745     28753     28745     28747
     28753     28754     28753     28755     28753     28756     28747     28748
     28748     28750     28748     28749     28750     28751     28750     28752
     28750     28762     28762     28763     28762     28764     28762     28765
     28765     28766     28765     28767     28765     28768     28768     28769
     28768     28770     28768     28771     28771     28772     28771     28773
     28771     28774     28774     28775     28774     28776     28774     28777
     28777     28778     28777     28779     28777     28780     28780     28781
     28780     28782     28782     28783     28782     28784     28784     28785
     28784     28786     28784     28787     28787     28788     28787     28789
     28787     28790     28790     28791     28790     28792     28790     28793
     28793     28794     28793     28795     28793     28796     28796     28797
     28796     28798     28796     28799     28799     28800     28799     28801
     28799     28802     28802     28803     28802     28804     28802     28805
     28805     28806     28805     28807     28805     28808     28756     28757
     28757     28759     28757     28758     28759     28760     28759     28761
     28759     28809     28809     28810     28809     28811     28809     28812
     28812     28813     28812     28814     28812     28815     28815     28816
     28815     28817     28815     28818     28818     28819     28818     28820
     28818     28821     28821     28822     28821     28823     28821     28824
     28824     28825     28824     28826     28824     28827     28827     28828
     28827     28829     28827     28830     28830     28831     28830     28832
     28830     28833     28833     28834     28833     28835     28833     28836
     28836     28837     28836     28838     28836     28839     28839     28840
     28839     28841     28839     28842     28842     28843     28842     28844
     28842     28845     28845     28846     28845     28847     28845     28848
     28848     28849     28848     28850     28848     28851     28852     28856
     28852     28860     28852     28864     28856     28857     28856     28858
     28856     28859     28860     28861     28860     28862     28860     28863
     28864     28865     28864     28866     28864     28867     28852     28853
     28853     28854     28853     28855     28853     28868     28868     28869
     28868     28870     28868     28874     28875     28876     28874     28871
     28871     28875     28871     28872     28871     28873     28876     28877
     28876     28878     28876     28879     28879     28880     28879     28887
     28879     28881     28887     28888     28887     28889     28887     28890
     28881     28882     28882     28884     28882     28883     28884     28885
     28884     28886     28884     28896     28896     28897     28896     28898
     28896     28899     28899     28900     28899     28901     28899     28902
     28902     28903     28902     28904     28902     28905     28905     28906
     28905     28907     28905     28908     28908     28909     28908     28910
     28908     28911     28911     28912     28911     28913     28911     28914
     28914     28915     28914     28916     28916     28917     28916     28918
     28918     28919     28918     28920     28918     28921     28921     28922
     28921     28923     28921     28924     28924     28925     28924     28926
     28924     28927     28927     28928     28927     28929     28927     28930
     28930     28931     28930     28932     28930     28933     28933     28934
     28933     28935     28933     28936     28936     28937     28936     28938
     28936     28939     28939     28940     28939     28941     28939     28942
     28890     28891     28891     28893     28891     28892     28893     28894
     28893     28895     28893     28943     28943     28944     28943     28945
     28943     28946     28946     28947     28946     28948     28946     28949
     28949     28950     28949     28951     28949     28952     28952     28953
     28952     28954     28952     28955     28955     28956     28955     28957
     28955     28958     28958     28959     28958     28960     28958     28961
     28961     28962     28961     28963     28961     28964     28964     28965
     28964     28966     28964     28967     28967     28968     28967     28969
     28967     28970     28970     28971     28970     28972     28970     28973
     28973     28974     28973     28975     28973     28976     28976     28977
     28976     28978     28976     28979     28979     28980     28979     28981
     28979     28982     28982     28983     28982     28984     28982     28985
     28986     28990     28986     28994     28986     28998     28990     28991
     28990     28992     28990     28993     28994     28995     28994     28996
     28994     28997     28998     28999     28998     29000     28998     29001
     28986     28987     28987     28988     28987     28989     28987     29002
     29002     29003     29002     29004     29002     29008     29009     29010
     29008     29005     29005     29009     29005     29006     29005     29007
     29010     29011     29010     29012     29010     29013     29013     29014
     29013     29021     29013     29015     29021     29022     29021     29023
     29021     29024     29015     29016     29016     29018     29016     29017
     29018     29019     29018     29020     29018     29030     29030     29031
     29030     29032     29030     29033     29033     29034     29033     29035
     29033     29036     29036     29037     29036     29038     29036     29039
     29039     29040     29039     29041     29039     29042     29042     29043
     29042     29044     29042     29045     29045     29046     29045     29047
     29045     29048     29048     29049     29048     29050     29050     29051
     29050     29052     29052     29053     29052     29054     29052     29055
     29055     29056     29055     29057     29055     29058     29058     29059
     29058     29060     29058     29061     29061     29062     29061     29063
     29061     29064     29064     29065     29064     29066     29064     29067
     29067     29068     29067     29069     29067     29070     29070     29071
     29070     29072     29070     29073     29073     29074     29073     29075
     29073     29076     29024     29025     29025     29027     29025     29026
     29027     29028     29027     29029     29027     29077     29077     29078
     29077     29079     29077     29080     29080     29081     29080     29082
     29080     29083     29083     29084     29083     29085     29083     29086
     29086     29087     29086     29088     29086     29089     29089     29090
     29089     29091     29089     29092     29092     29093     29092     29094
     29092     29095     29095     29096     29095     29097     29095     29098
     29098     29099     29098     29100     29098     29101     29101     29102
     29101     29103     29101     29104     29104     29105     29104     29106
     29104     29107     29107     29108     29107     29109     29107     29110
     29110     29111     29110     29112     29110     29113     29113     29114
     29113     29115     29113     29116     29116     29117     29116     29118
     29116     29119     29120     29121     29120     29122     29120     29123
     29120     29124     29124     29125     29124     29126     29124     29127
     29127     29128     29127     29129     29127     29134     29134     29130
     29130     29133     29130     29131     29130     29132     29135     29136
     29135     29137     29135     29138     29135     29133     29138     29139
     29138     29146     29138     29140     29146     29147     29146     29148
     29146     29149     29140     29141     29141     29143     29141     29142
     29143     29144     29143     29145     29143     29155     29155     29156
     29155     29157     29155     29158     29158     29159     29158     29160
     29158     29161     29161     29162     29161     29163     29161     29164
     29164     29165     29164     29166     29164     29167     29167     29168
     29167     29169     29167     29170     29170     29171     29170     29172
     29170     29173     29173     29174     29173     29175     29175     29176
     29175     29177     29177     29178     29177     29179     29177     29180
     29180     29181     29180     29182     29180     29183     29183     29184
     29183     29185     29183     29186     29186     29187     29186     29188
     29186     29189     29189     29190     29189     29191     29189     29192
     29192     29193     29192     29194     29192     29195     29195     29196
     29195     29197     29195     29198     29198     29199     29198     29200
     29198     29201     29149     29150     29150     29152     29150     29151
     29152     29153     29152     29154     29152     29202     29202     29203
     29202     29204     29202     29205     29205     29206     29205     29207
     29205     29208     29208     29209     29208     29210     29208     29211
     29211     29212     29211     29213     29211     29214     29214     29215
     29214     29216     29214     29217     29217     29218     29217     29219
     29217     29220     29220     29221     29220     29222     29220     29223
     29223     29224     29223     29225     29223     29226     29226     29227
     29226     29228     29226     29229     29229     29230     29229     29231
     29229     29232     29232     29233     29232     29234     29232     29235
     29235     29236     29235     29237     29235     29238     29238     29239
     29238     29240     29238     29241     29241     29242     29241     29243
     29241     29244     29245     29249     29245     29253     29245     29257
     29249     29250     29249     29251     29249     29252     29253     29254
     29253     29255     29253     29256     29257     29258     29257     29259
     29257     29260     29245     29246     29246     29247     29246     29248
     29246     29261     29261     29262     29261     29263     29261     29267
     29268     29269     29267     29264     29264     29268     29264     29265
     29264     29266     29269     29270     29269     29271     29269     29272
     29272     29273     29272     29280     29272     29274     29280     29281
     29280     29282     29280     29283     29274     29275     29275     29277
     29275     29276     29277     29278     29277     29279     29277     29289
     29289     29290     29289     29291     29289     29292     29292     29293
     29292     29294     29292     29295     29295     29296     29295     29297
     29295     29298     29298     29299     29298     29300     29298     29301
     29301     29302     29301     29303     29301     29304     29304     29305
     29304     29306     29304     29307     29307     29308     29307     29309
     29309     29310     29309     29311     29311     29312     29311     29313
     29311     29314     29314     29315     29314     29316     29314     29317
     29317     29318     29317     29319     29317     29320     29320     29321
     29320     29322     29320     29323     29323     29324     29323     29325
     29323     29326     29326     29327     29326     29328     29326     29329
     29329     29330     29329     29331     29329     29332     29332     29333
     29332     29334     29332     29335     29283     29284     29284     29286
     29284     29285     29286     29287     29286     29288     29286     29336
     29336     29337     29336     29338     29336     29339     29339     29340
     29339     29341     29339     29342     29342     29343     29342     29344
     29342     29345     29345     29346     29345     29347     29345     29348
     29348     29349     29348     29350     29348     29351     29351     29352
     29351     29353     29351     29354     29354     29355     29354     29356
     29354     29357     29357     29358     29357     29359     29357     29360
     29360     29361     29360     29362     29360     29363     29363     29364
     29363     29365     29363     29366     29366     29367     29366     29368
     29366     29369     29369     29370     29369     29371     29369     29372
     29372     29373     29372     29374     29372     29375     29375     29376
     29375     29377     29375     29378     29379     29383     29379     29387
     29379     29391     29383     29384     29383     29385     29383     29386
     29387     29388     29387     29389     29387     29390     29391     29392
     29391     29393     29391     29394     29379     29380     29380     29381
     29380     29382     29380     29395     29395     29396     29395     29397
     29395     29401     29402     29403     29401     29398     29398     29402
     29398     29399     29398     29400     29403     29404     29403     29405
     29403     29406     29406     29407     29406     29414     29406     29408
     29414     29415     29414     29416     29414     29417     29408     29409
     29409     29411     29409     29410     29411     29412     29411     29413
     29411     29423     29423     29424     29423     29425     29423     29426
     29426     29427     29426     29428     29426     29429     29429     29430
     29429     29431     29429     29432     29432     29433     29432     29434
     29432     29435     29435     29436     29435     29437     29435     29438
     29438     29439     29438     29440     29438     29441     29441     29442
     29441     29443     29443     29444     29443     29445     29445     29446
     29445     29447     29445     29448     29448     29449     29448     29450
     29448     29451     29451     29452     29451     29453     29451     29454
     29454     29455     29454     29456     29454     29457     29457     29458
     29457     29459     29457     29460     29460     29461     29460     29462
     29460     29463     29463     29464     29463     29465     29463     29466
     29466     29467     29466     29468     29466     29469     29417     29418
     29418     29420     29418     29419     29420     29421     29420     29422
     29420     29470     29470     29471     29470     29472     29470     29473
     29473     29474     29473     29475     29473     29476     29476     29477
     29476     29478     29476     29479     29479     29480     29479     29481
     29479     29482     29482     29483     29482     29484     29482     29485
     29485     29486     29485     29487     29485     29488     29488     29489
     29488     29490     29488     29491     29491     29492     29491     29493
     29491     29494     29494     29495     29494     29496     29494     29497
     29497     29498     29497     29499     29497     29500     29500     29501
     29500     29502     29500     29503     29503     29504     29503     29505
     29503     29506     29506     29507     29506     29508     29506     29509
     29509     29510     29509     29511     29509     29512     29513     29517
     29513     29521     29513     29525     29517     29518     29517     29519
     29517     29520     29521     29522     29521     29523     29521     29524
     29525     29526     29525     29527     29525     29528     29513     29514
     29514     29515     29514     29516     29514     29529     29529     29530
     29529     29531     29529     29535     29536     29537     29535     29532
     29532     29536     29532     29533     29532     29534     29537     29538
     29537     29539     29537     29540     29540     29541     29540     29548
     29540     29542     29548     29549     29548     29550     29548     29551
     29542     29543     29543     29545     29543     29544     29545     29546
     29545     29547     29545     29557     29557     29558     29557     29559
     29557     29560     29560     29561     29560     29562     29560     29563
     29563     29564     29563     29565     29563     29566     29566     29567
     29566     29568     29566     29569     29569     29570     29569     29571
     29569     29572     29572     29573     29572     29574     29572     29575
     29575     29576     29575     29577     29577     29578     29577     29579
     29579     29580     29579     29581     29579     29582     29582     29583
     29582     29584     29582     29585     29585     29586     29585     29587
     29585     29588     29588     29589     29588     29590     29588     29591
     29591     29592     29591     29593     29591     29594     29594     29595
     29594     29596     29594     29597     29597     29598     29597     29599
     29597     29600     29600     29601     29600     29602     29600     29603
     29551     29552     29552     29554     29552     29553     29554     29555
     29554     29556     29554     29604     29604     29605     29604     29606
     29604     29607     29607     29608     29607     29609     29607     29610
     29610     29611     29610     29612     29610     29613     29613     29614
     29613     29615     29613     29616     29616     29617     29616     29618
     29616     29619     29619     29620     29619     29621     29619     29622
     29622     29623     29622     29624     29622     29625     29625     29626
     29625     29627     29625     29628     29628     29629     29628     29630
     29628     29631     29631     29632     29631     29633     29631     29634
     29634     29635     29634     29636     29634     29637     29637     29638
     29637     29639     29637     29640     29640     29641     29640     29642
     29640     29643     29643     29644     29643     29645     29643     29646
     29647     29651     29647     29655     29647     29659     29651     29652
     29651     29653     29651     29654     29655     29656     29655     29657
     29655     29658     29659     29660     29659     29661     29659     29662
     29647     29648     29648     29649     29648     29650     29648     29663
     29663     29664     29663     29665     29663     29669     29670     29671
     29669     29666     29666     29670     29666     29667     29666     29668
     29671     29672     29671     29673     29671     29674     29674     29675
     29674     29682     29674     29676     29682     29683     29682     29684
     29682     29685     29676     29677     29677     29679     29677     29678
     29679     29680     29679     29681     29679     29691     29691     29692
     29691     29693     29691     29694     29694     29695     29694     29696
     29694     29697     29697     29698     29697     29699     29697     29700
     29700     29701     29700     29702     29700     29703     29703     29704
     29703     29705     29703     29706     29706     29707     29706     29708
     29706     29709     29709     29710     29709     29711     29711     29712
     29711     29713     29713     29714     29713     29715     29713     29716
     29716     29717     29716     29718     29716     29719     29719     29720
     29719     29721     29719     29722     29722     29723     29722     29724
     29722     29725     29725     29726     29725     29727     29725     29728
     29728     29729     29728     29730     29728     29731     29731     29732
     29731     29733     29731     29734     29734     29735     29734     29736
     29734     29737     29685     29686     29686     29688     29686     29687
     29688     29689     29688     29690     29688     29738     29738     29739
     29738     29740     29738     29741     29741     29742     29741     29743
     29741     29744     29744     29745     29744     29746     29744     29747
     29747     29748     29747     29749     29747     29750     29750     29751
     29750     29752     29750     29753     29753     29754     29753     29755
     29753     29756     29756     29757     29756     29758     29756     29759
     29759     29760     29759     29761     29759     29762     29762     29763
     29762     29764     29762     29765     29765     29766     29765     29767
     29765     29768     29768     29769     29768     29770     29768     29771
     29771     29772     29771     29773     29771     29774     29774     29775
     29774     29776     29774     29777     29777     29778     29777     29779
     29777     29780     29781     29785     29781     29789     29781     29793
     29785     29786     29785     29787     29785     29788     29789     29790
     29789     29791     29789     29792     29793     29794     29793     29795
     29793     29796     29781     29782     29782     29783     29782     29784
     29782     29797     29797     29798     29797     29799     29797     29803
     29804     29805     29803     29800     29800     29804     29800     29801
     29800     29802     29805     29806     29805     29807     29805     29808
     29808     29809     29808     29816     29808     29810     29816     29817
     29816     29818     29816     29819     29810     29811     29811     29813
     29811     29812     29813     29814     29813     29815     29813     29825
     29825     29826     29825     29827     29825     29828     29828     29829
     29828     29830     29828     29831     29831     29832     29831     29833
     29831     29834     29834     29835     29834     29836     29834     29837
     29837     29838     29837     29839     29837     29840     29840     29841
     29840     29842     29840     29843     29843     29844     29843     29845
     29845     29846     29845     29847     29847     29848     29847     29849
     29847     29850     29850     29851     29850     29852     29850     29853
     29853     29854     29853     29855     29853     29856     29856     29857
     29856     29858     29856     29859     29859     29860     29859     29861
     29859     29862     29862     29863     29862     29864     29862     29865
     29865     29866     29865     29867     29865     29868     29868     29869
     29868     29870     29868     29871     29819     29820     29820     29822
     29820     29821     29822     29823     29822     29824     29822     29872
     29872     29873     29872     29874     29872     29875     29875     29876
     29875     29877     29875     29878     29878     29879     29878     29880
     29878     29881     29881     29882     29881     29883     29881     29884
     29884     29885     29884     29886     29884     29887     29887     29888
     29887     29889     29887     29890     29890     29891     29890     29892
     29890     29893     29893     29894     29893     29895     29893     29896
     29896     29897     29896     29898     29896     29899     29899     29900
     29899     29901     29899     29902     29902     29903     29902     29904
     29902     29905     29905     29906     29905     29907     29905     29908
     29908     29909     29908     29910     29908     29911     29911     29912
     29911     29913     29911     29914     29915     29919     29915     29923
     29915     29927     29919     29920     29919     29921     29919     29922
     29923     29924     29923     29925     29923     29926     29927     29928
     29927     29929     29927     29930     29915     29916     29916     29917
     29916     29918     29916     29931     29931     29932     29931     29933
     29931     29937     29938     29939     29937     29934     29934     29938
     29934     29935     29934     29936     29939     29940     29939     29941
     29939     29942     29942     29943     29942     29950     29942     29944
     29950     29951     29950     29952     29950     29953     29944     29945
     29945     29947     29945     29946     29947     29948     29947     29949
     29947     29959     29959     29960     29959     29961     29959     29962
     29962     29963     29962     29964     29962     29965     29965     29966
     29965     29967     29965     29968     29968     29969     29968     29970
     29968     29971     29971     29972     29971     29973     29971     29974
     29974     29975     29974     29976     29974     29977     29977     29978
     29977     29979     29979     29980     29979     29981     29981     29982
     29981     29983     29981     29984     29984     29985     29984     29986
     29984     29987     29987     29988     29987     29989     29987     29990
     29990     29991     29990     29992     29990     29993     29993     29994
     29993     29995     29993     29996     29996     29997     29996     29998
     29996     29999     29999     30000     29999     30001     29999     30002
     30002     30003     30002     30004     30002     30005     29953     29954
     29954     29956     29954     29955     29956     29957     29956     29958
     29956     30006     30006     30007     30006     30008     30006     30009
     30009     30010     30009     30011     30009     30012     30012     30013
     30012     30014     30012     30015     30015     30016     30015     30017
     30015     30018     30018     30019     30018     30020     30018     30021
     30021     30022     30021     30023     30021     30024     30024     30025
     30024     30026     30024     30027     30027     30028     30027     30029
     30027     30030     30030     30031     30030     30032     30030     30033
     30033     30034     30033     30035     30033     30036     30036     30037
     30036     30038     30036     30039     30039     30040     30039     30041
     30039     30042     30042     30043     30042     30044     30042     30045
     30045     30046     30045     30047     30045     30048     30049     30053
     30049     30057     30049     30061     30053     30054     30053     30055
     30053     30056     30057     30058     30057     30059     30057     30060
     30061     30062     30061     30063     30061     30064     30049     30050
     30050     30051     30050     30052     30050     30065     30065     30066
     30065     30067     30065     30071     30072     30073     30071     30068
     30068     30072     30068     30069     30068     30070     30073     30074
     30073     30075     30073     30076     30076     30077     30076     30084
     30076     30078     30084     30085     30084     30086     30084     30087
     30078     30079     30079     30081     30079     30080     30081     30082
     30081     30083     30081     30093     30093     30094     30093     30095
     30093     30096     30096     30097     30096     30098     30096     30099
     30099     30100     30099     30101     30099     30102     30102     30103
     30102     30104     30102     30105     30105     30106     30105     30107
     30105     30108     30108     30109     30108     30110     30108     30111
     30111     30112     30111     30113     30113     30114     30113     30115
     30115     30116     30115     30117     30115     30118     30118     30119
     30118     30120     30118     30121     30121     30122     30121     30123
     30121     30124     30124     30125     30124     30126     30124     30127
     30127     30128     30127     30129     30127     30130     30130     30131
     30130     30132     30130     30133     30133     30134     30133     30135
     30133     30136     30136     30137     30136     30138     30136     30139
     30087     30088     30088     30090     30088     30089     30090     30091
     30090     30092     30090     30140     30140     30141     30140     30142
     30140     30143     30143     30144     30143     30145     30143     30146
     30146     30147     30146     30148     30146     30149     30149     30150
     30149     30151     30149     30152     30152     30153     30152     30154
     30152     30155     30155     30156     30155     30157     30155     30158
     30158     30159     30158     30160     30158     30161     30161     30162
     30161     30163     30161     30164     30164     30165     30164     30166
     30164     30167     30167     30168     30167     30169     30167     30170
     30170     30171     30170     30172     30170     30173     30173     30174
     30173     30175     30173     30176     30176     30177     30176     30178
     30176     30179     30179     30180     30179     30181     30179     30182
     30183     30187     30183     30191     30183     30195     30187     30188
     30187     30189     30187     30190     30191     30192     30191     30193
     30191     30194     30195     30196     30195     30197     30195     30198
     30183     30184     30184     30185     30184     30186     30184     30199
     30199     30200     30199     30201     30199     30205     30206     30207
     30205     30202     30202     30206     30202     30203     30202     30204
     30207     30208     30207     30209     30207     30210     30210     30211
     30210     30218     30210     30212     30218     30219     30218     30220
     30218     30221     30212     30213     30213     30215     30213     30214
     30215     30216     30215     30217     30215     30227     30227     30228
     30227     30229     30227     30230     30230     30231     30230     30232
     30230     30233     30233     30234     30233     30235     30233     30236
     30236     30237     30236     30238     30236     30239     30239     30240
     30239     30241     30239     30242     30242     30243     30242     30244
     30242     30245     30245     30246     30245     30247     30247     30248
     30247     30249     30249     30250     30249     30251     30249     30252
     30252     30253     30252     30254     30252     30255     30255     30256
     30255     30257     30255     30258     30258     30259     30258     30260
     30258     30261     30261     30262     30261     30263     30261     30264
     30264     30265     30264     30266     30264     30267     30267     30268
     30267     30269     30267     30270     30270     30271     30270     30272
     30270     30273     30221     30222     30222     30224     30222     30223
     30224     30225     30224     30226     30224     30274     30274     30275
     30274     30276     30274     30277     30277     30278     30277     30279
     30277     30280     30280     30281     30280     30282     30280     30283
     30283     30284     30283     30285     30283     30286     30286     30287
     30286     30288     30286     30289     30289     30290     30289     30291
     30289     30292     30292     30293     30292     30294     30292     30295
     30295     30296     30295     30297     30295     30298     30298     30299
     30298     30300     30298     30301     30301     30302     30301     30303
     30301     30304     30304     30305     30304     30306     30304     30307
     30307     30308     30307     30309     30307     30310     30310     30311
     30310     30312     30310     30313     30313     30314     30313     30315
     30313     30316     30317     30321     30317     30325     30317     30329
     30321     30322     30321     30323     30321     30324     30325     30326
     30325     30327     30325     30328     30329     30330     30329     30331
     30329     30332     30317     30318     30318     30319     30318     30320
     30318     30333     30333     30334     30333     30335     30333     30339
     30340     30341     30339     30336     30336     30340     30336     30337
     30336     30338     30341     30342     30341     30343     30341     30344
     30344     30345     30344     30352     30344     30346     30352     30353
     30352     30354     30352     30355     30346     30347     30347     30349
     30347     30348     30349     30350     30349     30351     30349     30361
     30361     30362     30361     30363     30361     30364     30364     30365
     30364     30366     30364     30367     30367     30368     30367     30369
     30367     30370     30370     30371     30370     30372     30370     30373
     30373     30374     30373     30375     30373     30376     30376     30377
     30376     30378     30376     30379     30379     30380     30379     30381
     30381     30382     30381     30383     30383     30384     30383     30385
     30383     30386     30386     30387     30386     30388     30386     30389
     30389     30390     30389     30391     30389     30392     30392     30393
     30392     30394     30392     30395     30395     30396     30395     30397
     30395     30398     30398     30399     30398     30400     30398     30401
     30401     30402     30401     30403     30401     30404     30404     30405
     30404     30406     30404     30407     30355     30356     30356     30358
     30356     30357     30358     30359     30358     30360     30358     30408
     30408     30409     30408     30410     30408     30411     30411     30412
     30411     30413     30411     30414     30414     30415     30414     30416
     30414     30417     30417     30418     30417     30419     30417     30420
     30420     30421     30420     30422     30420     30423     30423     30424
     30423     30425     30423     30426     30426     30427     30426     30428
     30426     30429     30429     30430     30429     30431     30429     30432
     30432     30433     30432     30434     30432     30435     30435     30436
     30435     30437     30435     30438     30438     30439     30438     30440
     30438     30441     30441     30442     30441     30443     30441     30444
     30444     30445     30444     30446     30444     30447     30447     30448
     30447     30449     30447     30450     30451     30455     30451     30459
     30451     30463     30455     30456     30455     30457     30455     30458
     30459     30460     30459     30461     30459     30462     30463     30464
     30463     30465     30463     30466     30451     30452     30452     30453
     30452     30454     30452     30467     30467     30468     30467     30469
     30467     30473     30474     30475     30473     30470     30470     30474
     30470     30471     30470     30472     30475     30476     30475     30477
     30475     30478     30478     30479     30478     30486     30478     30480
     30486     30487     30486     30488     30486     30489     30480     30481
     30481     30483     30481     30482     30483     30484     30483     30485
     30483     30495     30495     30496     30495     30497     30495     30498
     30498     30499     30498     30500     30498     30501     30501     30502
     30501     30503     30501     30504     30504     30505     30504     30506
     30504     30507     30507     30508     30507     30509     30507     30510
     30510     30511     30510     30512     30510     30513     30513     30514
     30513     30515     30515     30516     30515     30517     30517     30518
     30517     30519     30517     30520     30520     30521     30520     30522
     30520     30523     30523     30524     30523     30525     30523     30526
     30526     30527     30526     30528     30526     30529     30529     30530
     30529     30531     30529     30532     30532     30533     30532     30534
     30532     30535     30535     30536     30535     30537     30535     30538
     30538     30539     30538     30540     30538     30541     30489     30490
     30490     30492     30490     30491     30492     30493     30492     30494
     30492     30542     30542     30543     30542     30544     30542     30545
     30545     30546     30545     30547     30545     30548     30548     30549
     30548     30550     30548     30551     30551     30552     30551     30553
     30551     30554     30554     30555     30554     30556     30554     30557
     30557     30558     30557     30559     30557     30560     30560     30561
     30560     30562     30560     30563     30563     30564     30563     30565
     30563     30566     30566     30567     30566     30568     30566     30569
     30569     30570     30569     30571     30569     30572     30572     30573
     30572     30574     30572     30575     30575     30576     30575     30577
     30575     30578     30578     30579     30578     30580     30578     30581
     30581     30582     30581     30583     30581     30584     30585     30589
     30585     30593     30585     30597     30589     30590     30589     30591
     30589     30592     30593     30594     30593     30595     30593     30596
     30597     30598     30597     30599     30597     30600     30585     30586
     30586     30587     30586     30588     30586     30601     30601     30602
     30601     30603     30601     30607     30608     30609     30607     30604
     30604     30608     30604     30605     30604     30606     30609     30610
     30609     30611     30609     30612     30612     30613     30612     30620
     30612     30614     30620     30621     30620     30622     30620     30623
     30614     30615     30615     30617     30615     30616     30617     30618
     30617     30619     30617     30629     30629     30630     30629     30631
     30629     30632     30632     30633     30632     30634     30632     30635
     30635     30636     30635     30637     30635     30638     30638     30639
     30638     30640     30638     30641     30641     30642     30641     30643
     30641     30644     30644     30645     30644     30646     30644     30647
     30647     30648     30647     30649     30649     30650     30649     30651
     30651     30652     30651     30653     30651     30654     30654     30655
     30654     30656     30654     30657     30657     30658     30657     30659
     30657     30660     30660     30661     30660     30662     30660     30663
     30663     30664     30663     30665     30663     30666     30666     30667
     30666     30668     30666     30669     30669     30670     30669     30671
     30669     30672     30672     30673     30672     30674     30672     30675
     30623     30624     30624     30626     30624     30625     30626     30627
     30626     30628     30626     30676     30676     30677     30676     30678
     30676     30679     30679     30680     30679     30681     30679     30682
     30682     30683     30682     30684     30682     30685     30685     30686
     30685     30687     30685     30688     30688     30689     30688     30690
     30688     30691     30691     30692     30691     30693     30691     30694
     30694     30695     30694     30696     30694     30697     30697     30698
     30697     30699     30697     30700     30700     30701     30700     30702
     30700     30703     30703     30704     30703     30705     30703     30706
     30706     30707     30706     30708     30706     30709     30709     30710
     30709     30711     30709     30712     30712     30713     30712     30714
     30712     30715     30715     30716     30715     30717     30715     30718
     30719     30723     30719     30727     30719     30731     30723     30724
     30723     30725     30723     30726     30727     30728     30727     30729
     30727     30730     30731     30732     30731     30733     30731     30734
     30719     30720     30720     30721     30720     30722     30720     30735
     30735     30736     30735     30737     30735     30741     30742     30743
     30741     30738     30738     30742     30738     30739     30738     30740
     30743     30744     30743     30745     30743     30746     30746     30747
     30746     30754     30746     30748     30754     30755     30754     30756
     30754     30757     30748     30749     30749     30751     30749     30750
     30751     30752     30751     30753     30751     30763     30763     30764
     30763     30765     30763     30766     30766     30767     30766     30768
     30766     30769     30769     30770     30769     30771     30769     30772
     30772     30773     30772     30774     30772     30775     30775     30776
     30775     30777     30775     30778     30778     30779     30778     30780
     30778     30781     30781     30782     30781     30783     30783     30784
     30783     30785     30785     30786     30785     30787     30785     30788
     30788     30789     30788     30790     30788     30791     30791     30792
     30791     30793     30791     30794     30794     30795     30794     30796
     30794     30797     30797     30798     30797     30799     30797     30800
     30800     30801     30800     30802     30800     30803     30803     30804
     30803     30805     30803     30806     30806     30807     30806     30808
     30806     30809     30757     30758     30758     30760     30758     30759
     30760     30761     30760     30762     30760     30810     30810     30811
     30810     30812     30810     30813     30813     30814     30813     30815
     30813     30816     30816     30817     30816     30818     30816     30819
     30819     30820     30819     30821     30819     30822     30822     30823
     30822     30824     30822     30825     30825     30826     30825     30827
     30825     30828     30828     30829     30828     30830     30828     30831
     30831     30832     30831     30833     30831     30834     30834     30835
     30834     30836     30834     30837     30837     30838     30837     30839
     30837     30840     30840     30841     30840     30842     30840     30843
     30843     30844     30843     30845     30843     30846     30846     30847
     30846     30848     30846     30849     30849     30850     30849     30851
     30849     30852     30853     30857     30853     30861     30853     30865
     30857     30858     30857     30859     30857     30860     30861     30862
     30861     30863     30861     30864     30865     30866     30865     30867
     30865     30868     30853     30854     30854     30855     30854     30856
     30854     30869     30869     30870     30869     30871     30869     30875
     30876     30877     30875     30872     30872     30876     30872     30873
     30872     30874     30877     30878     30877     30879     30877     30880
     30880     30881     30880     30888     30880     30882     30888     30889
     30888     30890     30888     30891     30882     30883     30883     30885
     30883     30884     30885     30886     30885     30887     30885     30897
     30897     30898     30897     30899     30897     30900     30900     30901
     30900     30902     30900     30903     30903     30904     30903     30905
     30903     30906     30906     30907     30906     30908     30906     30909
     30909     30910     30909     30911     30909     30912     30912     30913
     30912     30914     30912     30915     30915     30916     30915     30917
     30917     30918     30917     30919     30919     30920     30919     30921
     30919     30922     30922     30923     30922     30924     30922     30925
     30925     30926     30925     30927     30925     30928     30928     30929
     30928     30930     30928     30931     30931     30932     30931     30933
     30931     30934     30934     30935     30934     30936     30934     30937
     30937     30938     30937     30939     30937     30940     30940     30941
     30940     30942     30940     30943     30891     30892     30892     30894
     30892     30893     30894     30895     30894     30896     30894     30944
     30944     30945     30944     30946     30944     30947     30947     30948
     30947     30949     30947     30950     30950     30951     30950     30952
     30950     30953     30953     30954     30953     30955     30953     30956
     30956     30957     30956     30958     30956     30959     30959     30960
     30959     30961     30959     30962     30962     30963     30962     30964
     30962     30965     30965     30966     30965     30967     30965     30968
     30968     30969     30968     30970     30968     30971     30971     30972
     30971     30973     30971     30974     30974     30975     30974     30976
     30974     30977     30977     30978     30977     30979     30977     30980
     30980     30981     30980     30982     30980     30983     30983     30984
     30983     30985     30983     30986     30987     30988     30987     30989
     30987     30990     30987     30991     30991     30992     30991     30993
     30991     30994     30994     30995     30994     30996     30994     31001
     31001     30997     30997     31000     30997     30998     30997     30999
     31002     31003     31002     31004     31002     31005     31002     31000
     31005     31006     31005     31013     31005     31007     31013     31014
     31013     31015     31013     31016     31007     31008     31008     31010
     31008     31009     31010     31011     31010     31012     31010     31022
     31022     31023     31022     31024     31022     31025     31025     31026
     31025     31027     31025     31028     31028     31029     31028     31030
     31028     31031     31031     31032     31031     31033     31031     31034
     31034     31035     31034     31036     31034     31037     31037     31038
     31037     31039     31037     31040     31040     31041     31040     31042
     31042     31043     31042     31044     31044     31045     31044     31046
     31044     31047     31047     31048     31047     31049     31047     31050
     31050     31051     31050     31052     31050     31053     31053     31054
     31053     31055     31053     31056     31056     31057     31056     31058
     31056     31059     31059     31060     31059     31061     31059     31062
     31062     31063     31062     31064     31062     31065     31065     31066
     31065     31067     31065     31068     31016     31017     31017     31019
     31017     31018     31019     31020     31019     31021     31019     31069
     31069     31070     31069     31071     31069     31072     31072     31073
     31072     31074     31072     31075     31075     31076     31075     31077
     31075     31078     31078     31079     31078     31080     31078     31081
     31081     31082     31081     31083     31081     31084     31084     31085
     31084     31086     31084     31087     31087     31088     31087     31089
     31087     31090     31090     31091     31090     31092     31090     31093
     31093     31094     31093     31095     31093     31096     31096     31097
     31096     31098     31096     31099     31099     31100     31099     31101
     31099     31102     31102     31103     31102     31104     31102     31105
     31105     31106     31105     31107     31105     31108     31108     31109
     31108     31110     31108     31111     31112     31113     31112     31114
     31112     31115     31112     31116     31116     31117     31116     31118
     31116     31119     31119     31120     31119     31121     31119     31126
     31126     31122     31122     31125     31122     31123     31122     31124
     31127     31128     31127     31129     31127     31130     31127     31125
     31130     31131     31130     31138     31130     31132     31138     31139
     31138     31140     31138     31141     31132     31133     31133     31135
     31133     31134     31135     31136     31135     31137     31135     31147
     31147     31148     31147     31149     31147     31150     31150     31151
     31150     31152     31150     31153     31153     31154     31153     31155
     31153     31156     31156     31157     31156     31158     31156     31159
     31159     31160     31159     31161     31159     31162     31162     31163
     31162     31164     31162     31165     31165     31166     31165     31167
     31167     31168     31167     31169     31169     31170     31169     31171
     31169     31172     31172     31173     31172     31174     31172     31175
     31175     31176     31175     31177     31175     31178     31178     31179
     31178     31180     31178     31181     31181     31182     31181     31183
     31181     31184     31184     31185     31184     31186     31184     31187
     31187     31188     31187     31189     31187     31190     31190     31191
     31190     31192     31190     31193     31141     31142     31142     31144
     31142     31143     31144     31145     31144     31146     31144     31194
     31194     31195     31194     31196     31194     31197     31197     31198
     31197     31199     31197     31200     31200     31201     31200     31202
     31200     31203     31203     31204     31203     31205     31203     31206
     31206     31207     31206     31208     31206     31209     31209     31210
     31209     31211     31209     31212     31212     31213     31212     31214
     31212     31215     31215     31216     31215     31217     31215     31218
     31218     31219     31218     31220     31218     31221     31221     31222
     31221     31223     31221     31224     31224     31225     31224     31226
     31224     31227     31227     31228     31227     31229     31227     31230
     31230     31231     31230     31232     31230     31233     31233     31234
     31233     31235     31233     31236     31237     31238     31237     31239
     31237     31240     31237     31241     31241     31242     31241     31243
     31241     31244     31244     31245     31244     31246     31244     31251
     31251     31247     31247     31250     31247     31248     31247     31249
     31252     31253     31252     31254     31252     31255     31252     31250
     31255     31256     31255     31263     31255     31257     31263     31264
     31263     31265     31263     31266     31257     31258     31258     31260
     31258     31259     31260     31261     31260     31262     31260     31272
     31272     31273     31272     31274     31272     31275     31275     31276
     31275     31277     31275     31278     31278     31279     31278     31280
     31278     31281     31281     31282     31281     31283     31281     31284
     31284     31285     31284     31286     31284     31287     31287     31288
     31287     31289     31287     31290     31290     31291     31290     31292
     31292     31293     31292     31294     31294     31295     31294     31296
     31294     31297     31297     31298     31297     31299     31297     31300
     31300     31301     31300     31302     31300     31303     31303     31304
     31303     31305     31303     31306     31306     31307     31306     31308
     31306     31309     31309     31310     31309     31311     31309     31312
     31312     31313     31312     31314     31312     31315     31315     31316
     31315     31317     31315     31318     31266     31267     31267     31269
     31267     31268     31269     31270     31269     31271     31269     31319
     31319     31320     31319     31321     31319     31322     31322     31323
     31322     31324     31322     31325     31325     31326     31325     31327
     31325     31328     31328     31329     31328     31330     31328     31331
     31331     31332     31331     31333     31331     31334     31334     31335
     31334     31336     31334     31337     31337     31338     31337     31339
     31337     31340     31340     31341     31340     31342     31340     31343
     31343     31344     31343     31345     31343     31346     31346     31347
     31346     31348     31346     31349     31349     31350     31349     31351
     31349     31352     31352     31353     31352     31354     31352     31355
     31355     31356     31355     31357     31355     31358     31358     31359
     31358     31360     31358     31361     31362     31366     31362     31370
     31362     31374     31366     31367     31366     31368     31366     31369
     31370     31371     31370     31372     31370     31373     31374     31375
     31374     31376     31374     31377     31362     31363     31363     31364
     31363     31365     31363     31378     31378     31379     31378     31380
     31378     31384     31385     31386     31384     31381     31381     31385
     31381     31382     31381     31383     31386     31387     31386     31388
     31386     31389     31389     31390     31389     31397     31389     31391
     31397     31398     31397     31399     31397     31400     31391     31392
     31392     31394     31392     31393     31394     31395     31394     31396
     31394     31406     31406     31407     31406     31408     31406     31409
     31409     31410     31409     31411     31409     31412     31412     31413
     31412     31414     31412     31415     31415     31416     31415     31417
     31415     31418     31418     31419     31418     31420     31418     31421
     31421     31422     31421     31423     31421     31424     31424     31425
     31424     31426     31426     31427     31426     31428     31428     31429
     31428     31430     31428     31431     31431     31432     31431     31433
     31431     31434     31434     31435     31434     31436     31434     31437
     31437     31438     31437     31439     31437     31440     31440     31441
     31440     31442     31440     31443     31443     31444     31443     31445
     31443     31446     31446     31447     31446     31448     31446     31449
     31449     31450     31449     31451     31449     31452     31400     31401
     31401     31403     31401     31402     31403     31404     31403     31405
     31403     31453     31453     31454     31453     31455     31453     31456
     31456     31457     31456     31458     31456     31459     31459     31460
     31459     31461     31459     31462     31462     31463     31462     31464
     31462     31465     31465     31466     31465     31467     31465     31468
     31468     31469     31468     31470     31468     31471     31471     31472
     31471     31473     31471     31474     31474     31475     31474     31476
     31474     31477     31477     31478     31477     31479     31477     31480
     31480     31481     31480     31482     31480     31483     31483     31484
     31483     31485     31483     31486     31486     31487     31486     31488
     31486     31489     31489     31490     31489     31491     31489     31492
     31492     31493     31492     31494     31492     31495     31496     31500
     31496     31504     31496     31508     31500     31501     31500     31502
     31500     31503     31504     31505     31504     31506     31504     31507
     31508     31509     31508     31510     31508     31511     31496     31497
     31497     31498     31497     31499     31497     31512     31512     31513
     31512     31514     31512     31518     31519     31520     31518     31515
     31515     31519     31515     31516     31515     31517     31520     31521
     31520     31522     31520     31523     31523     31524     31523     31531
     31523     31525     31531     31532     31531     31533     31531     31534
     31525     31526     31526     31528     31526     31527     31528     31529
     31528     31530     31528     31540     31540     31541     31540     31542
     31540     31543     31543     31544     31543     31545     31543     31546
     31546     31547     31546     31548     31546     31549     31549     31550
     31549     31551     31549     31552     31552     31553     31552     31554
     31552     31555     31555     31556     31555     31557     31555     31558
     31558     31559     31558     31560     31560     31561     31560     31562
     31562     31563     31562     31564     31562     31565     31565     31566
     31565     31567     31565     31568     31568     31569     31568     31570
     31568     31571     31571     31572     31571     31573     31571     31574
     31574     31575     31574     31576     31574     31577     31577     31578
     31577     31579     31577     31580     31580     31581     31580     31582
     31580     31583     31583     31584     31583     31585     31583     31586
     31534     31535     31535     31537     31535     31536     31537     31538
     31537     31539     31537     31587     31587     31588     31587     31589
     31587     31590     31590     31591     31590     31592     31590     31593
     31593     31594     31593     31595     31593     31596     31596     31597
     31596     31598     31596     31599     31599     31600     31599     31601
     31599     31602     31602     31603     31602     31604     31602     31605
     31605     31606     31605     31607     31605     31608     31608     31609
     31608     31610     31608     31611     31611     31612     31611     31613
     31611     31614     31614     31615     31614     31616     31614     31617
     31617     31618     31617     31619     31617     31620     31620     31621
     31620     31622     31620     31623     31623     31624     31623     31625
     31623     31626     31626     31627     31626     31628     31626     31629
     31630     31631     31630     31632     31630     31633     31630     31634
     31634     31635     31634     31636     31634     31637     31637     31638
     31637     31639     31637     31644     31644     31640     31640     31643
     31640     31641     31640     31642     31645     31646     31645     31647
     31645     31648     31645     31643     31648     31649     31648     31656
     31648     31650     31656     31657     31656     31658     31656     31659
     31650     31651     31651     31653     31651     31652     31653     31654
     31653     31655     31653     31665     31665     31666     31665     31667
     31665     31668     31668     31669     31668     31670     31668     31671
     31671     31672     31671     31673     31671     31674     31674     31675
     31674     31676     31674     31677     31677     31678     31677     31679
     31677     31680     31680     31681     31680     31682     31680     31683
     31683     31684     31683     31685     31685     31686     31685     31687
     31687     31688     31687     31689     31687     31690     31690     31691
     31690     31692     31690     31693     31693     31694     31693     31695
     31693     31696     31696     31697     31696     31698     31696     31699
     31699     31700     31699     31701     31699     31702     31702     31703
     31702     31704     31702     31705     31705     31706     31705     31707
     31705     31708     31708     31709     31708     31710     31708     31711
     31659     31660     31660     31662     31660     31661     31662     31663
     31662     31664     31662     31712     31712     31713     31712     31714
     31712     31715     31715     31716     31715     31717     31715     31718
     31718     31719     31718     31720     31718     31721     31721     31722
     31721     31723     31721     31724     31724     31725     31724     31726
     31724     31727     31727     31728     31727     31729     31727     31730
     31730     31731     31730     31732     31730     31733     31733     31734
     31733     31735     31733     31736     31736     31737     31736     31738
     31736     31739     31739     31740     31739     31741     31739     31742
     31742     31743     31742     31744     31742     31745     31745     31746
     31745     31747     31745     31748     31748     31749     31748     31750
     31748     31751     31751     31752     31751     31753     31751     31754
     31755     31759     31755     31763     31755     31767     31759     31760
     31759     31761     31759     31762     31763     31764     31763     31765
     31763     31766     31767     31768     31767     31769     31767     31770
     31755     31756     31756     31757     31756     31758     31756     31771
     31771     31772     31771     31773     31771     31777     31778     31779
     31777     31774     31774     31778     31774     31775     31774     31776
     31779     31780     31779     31781     31779     31782     31782     31783
     31782     31790     31782     31784     31790     31791     31790     31792
     31790     31793     31784     31785     31785     31787     31785     31786
     31787     31788     31787     31789     31787     31799     31799     31800
     31799     31801     31799     31802     31802     31803     31802     31804
     31802     31805     31805     31806     31805     31807     31805     31808
     31808     31809     31808     31810     31808     31811     31811     31812
     31811     31813     31811     31814     31814     31815     31814     31816
     31814     31817     31817     31818     31817     31819     31819     31820
     31819     31821     31821     31822     31821     31823     31821     31824
     31824     31825     31824     31826     31824     31827     31827     31828
     31827     31829     31827     31830     31830     31831     31830     31832
     31830     31833     31833     31834     31833     31835     31833     31836
     31836     31837     31836     31838     31836     31839     31839     31840
     31839     31841     31839     31842     31842     31843     31842     31844
     31842     31845     31793     31794     31794     31796     31794     31795
     31796     31797     31796     31798     31796     31846     31846     31847
     31846     31848     31846     31849     31849     31850     31849     31851
     31849     31852     31852     31853     31852     31854     31852     31855
     31855     31856     31855     31857     31855     31858     31858     31859
     31858     31860     31858     31861     31861     31862     31861     31863
     31861     31864     31864     31865     31864     31866     31864     31867
     31867     31868     31867     31869     31867     31870     31870     31871
     31870     31872     31870     31873     31873     31874     31873     31875
     31873     31876     31876     31877     31876     31878     31876     31879
     31879     31880     31879     31881     31879     31882     31882     31883
     31882     31884     31882     31885     31885     31886     31885     31887
     31885     31888     31889     31893     31889     31897     31889     31901
     31893     31894     31893     31895     31893     31896     31897     31898
     31897     31899     31897     31900     31901     31902     31901     31903
     31901     31904     31889     31890     31890     31891     31890     31892
     31890     31905     31905     31906     31905     31907     31905     31911
     31912     31913     31911     31908     31908     31912     31908     31909
     31908     31910     31913     31914     31913     31915     31913     31916
     31916     31917     31916     31924     31916     31918     31924     31925
     31924     31926     31924     31927     31918     31919     31919     31921
     31919     31920     31921     31922     31921     31923     31921     31933
     31933     31934     31933     31935     31933     31936     31936     31937
     31936     31938     31936     31939     31939     31940     31939     31941
     31939     31942     31942     31943     31942     31944     31942     31945
     31945     31946     31945     31947     31945     31948     31948     31949
     31948     31950     31948     31951     31951     31952     31951     31953
     31953     31954     31953     31955     31955     31956     31955     31957
     31955     31958     31958     31959     31958     31960     31958     31961
     31961     31962     31961     31963     31961     31964     31964     31965
     31964     31966     31964     31967     31967     31968     31967     31969
     31967     31970     31970     31971     31970     31972     31970     31973
     31973     31974     31973     31975     31973     31976     31976     31977
     31976     31978     31976     31979     31927     31928     31928     31930
     31928     31929     31930     31931     31930     31932     31930     31980
     31980     31981     31980     31982     31980     31983     31983     31984
     31983     31985     31983     31986     31986     31987     31986     31988
     31986     31989     31989     31990     31989     31991     31989     31992
     31992     31993     31992     31994     31992     31995     31995     31996
     31995     31997     31995     31998     31998     31999     31998     32000
     31998     32001     32001     32002     32001     32003     32001     32004
     32004     32005     32004     32006     32004     32007     32007     32008
     32007     32009     32007     32010     32010     32011     32010     32012
     32010     32013     32013     32014     32013     32015     32013     32016
     32016     32017     32016     32018     32016     32019     32019     32020
     32019     32021     32019     32022     32023     32024     32023     32025
     32023     32026     32023     32027     32027     32028     32027     32029
     32027     32030     32030     32031     32030     32032     32030     32037
     32037     32033     32033     32036     32033     32034     32033     32035
     32038     32039     32038     32040     32038     32041     32038     32036
     32041     32042     32041     32049     32041     32043     32049     32050
     32049     32051     32049     32052     32043     32044     32044     32046
     32044     32045     32046     32047     32046     32048     32046     32058
     32058     32059     32058     32060     32058     32061     32061     32062
     32061     32063     32061     32064     32064     32065     32064     32066
     32064     32067     32067     32068     32067     32069     32067     32070
     32070     32071     32070     32072     32070     32073     32073     32074
     32073     32075     32073     32076     32076     32077     32076     32078
     32078     32079     32078     32080     32080     32081     32080     32082
     32080     32083     32083     32084     32083     32085     32083     32086
     32086     32087     32086     32088     32086     32089     32089     32090
     32089     32091     32089     32092     32092     32093     32092     32094
     32092     32095     32095     32096     32095     32097     32095     32098
     32098     32099     32098     32100     32098     32101     32101     32102
     32101     32103     32101     32104     32052     32053     32053     32055
     32053     32054     32055     32056     32055     32057     32055     32105
     32105     32106     32105     32107     32105     32108     32108     32109
     32108     32110     32108     32111     32111     32112     32111     32113
     32111     32114     32114     32115     32114     32116     32114     32117
     32117     32118     32117     32119     32117     32120     32120     32121
     32120     32122     32120     32123     32123     32124     32123     32125
     32123     32126     32126     32127     32126     32128     32126     32129
     32129     32130     32129     32131     32129     32132     32132     32133
     32132     32134     32132     32135     32135     32136     32135     32137
     32135     32138     32138     32139     32138     32140     32138     32141
     32141     32142     32141     32143     32141     32144     32144     32145
     32144     32146     32144     32147     32148     32152     32148     32156
     32148     32160     32152     32153     32152     32154     32152     32155
     32156     32157     32156     32158     32156     32159     32160     32161
     32160     32162     32160     32163     32148     32149     32149     32150
     32149     32151     32149     32164     32164     32165     32164     32166
     32164     32170     32171     32172     32170     32167     32167     32171
     32167     32168     32167     32169     32172     32173     32172     32174
     32172     32175     32175     32176     32175     32183     32175     32177
     32183     32184     32183     32185     32183     32186     32177     32178
     32178     32180     32178     32179     32180     32181     32180     32182
     32180     32192     32192     32193     32192     32194     32192     32195
     32195     32196     32195     32197     32195     32198     32198     32199
     32198     32200     32198     32201     32201     32202     32201     32203
     32201     32204     32204     32205     32204     32206     32204     32207
     32207     32208     32207     32209     32207     32210     32210     32211
     32210     32212     32212     32213     32212     32214     32214     32215
     32214     32216     32214     32217     32217     32218     32217     32219
     32217     32220     32220     32221     32220     32222     32220     32223
     32223     32224     32223     32225     32223     32226     32226     32227
     32226     32228     32226     32229     32229     32230     32229     32231
     32229     32232     32232     32233     32232     32234     32232     32235
     32235     32236     32235     32237     32235     32238     32186     32187
     32187     32189     32187     32188     32189     32190     32189     32191
     32189     32239     32239     32240     32239     32241     32239     32242
     32242     32243     32242     32244     32242     32245     32245     32246
     32245     32247     32245     32248     32248     32249     32248     32250
     32248     32251     32251     32252     32251     32253     32251     32254
     32254     32255     32254     32256     32254     32257     32257     32258
     32257     32259     32257     32260     32260     32261     32260     32262
     32260     32263     32263     32264     32263     32265     32263     32266
     32266     32267     32266     32268     32266     32269     32269     32270
     32269     32271     32269     32272     32272     32273     32272     32274
     32272     32275     32275     32276     32275     32277     32275     32278
     32278     32279     32278     32280     32278     32281     32282     32283
     32282     32284     32282     32285     32282     32286     32286     32287
     32286     32288     32286     32289     32289     32290     32289     32291
     32289     32296     32296     32292     32292     32295     32292     32293
     32292     32294     32297     32298     32297     32299     32297     32300
     32297     32295     32300     32301     32300     32308     32300     32302
     32308     32309     32308     32310     32308     32311     32302     32303
     32303     32305     32303     32304     32305     32306     32305     32307
     32305     32317     32317     32318     32317     32319     32317     32320
     32320     32321     32320     32322     32320     32323     32323     32324
     32323     32325     32323     32326     32326     32327     32326     32328
     32326     32329     32329     32330     32329     32331     32329     32332
     32332     32333     32332     32334     32332     32335     32335     32336
     32335     32337     32337     32338     32337     32339     32339     32340
     32339     32341     32339     32342     32342     32343     32342     32344
     32342     32345     32345     32346     32345     32347     32345     32348
     32348     32349     32348     32350     32348     32351     32351     32352
     32351     32353     32351     32354     32354     32355     32354     32356
     32354     32357     32357     32358     32357     32359     32357     32360
     32360     32361     32360     32362     32360     32363     32311     32312
     32312     32314     32312     32313     32314     32315     32314     32316
     32314     32364     32364     32365     32364     32366     32364     32367
     32367     32368     32367     32369     32367     32370     32370     32371
     32370     32372     32370     32373     32373     32374     32373     32375
     32373     32376     32376     32377     32376     32378     32376     32379
     32379     32380     32379     32381     32379     32382     32382     32383
     32382     32384     32382     32385     32385     32386     32385     32387
     32385     32388     32388     32389     32388     32390     32388     32391
     32391     32392     32391     32393     32391     32394     32394     32395
     32394     32396     32394     32397     32397     32398     32397     32399
     32397     32400     32400     32401     32400     32402     32400     32403
     32403     32404     32403     32405     32403     32406     32407     32408
     32407     32409     32407     32410     32407     32411     32411     32412
     32411     32413     32411     32414     32414     32415     32414     32416
     32414     32421     32421     32417     32417     32420     32417     32418
     32417     32419     32422     32423     32422     32424     32422     32425
     32422     32420     32425     32426     32425     32433     32425     32427
     32433     32434     32433     32435     32433     32436     32427     32428
     32428     32430     32428     32429     32430     32431     32430     32432
     32430     32442     32442     32443     32442     32444     32442     32445
     32445     32446     32445     32447     32445     32448     32448     32449
     32448     32450     32448     32451     32451     32452     32451     32453
     32451     32454     32454     32455     32454     32456     32454     32457
     32457     32458     32457     32459     32457     32460     32460     32461
     32460     32462     32462     32463     32462     32464     32464     32465
     32464     32466     32464     32467     32467     32468     32467     32469
     32467     32470     32470     32471     32470     32472     32470     32473
     32473     32474     32473     32475     32473     32476     32476     32477
     32476     32478     32476     32479     32479     32480     32479     32481
     32479     32482     32482     32483     32482     32484     32482     32485
     32485     32486     32485     32487     32485     32488     32436     32437
     32437     32439     32437     32438     32439     32440     32439     32441
     32439     32489     32489     32490     32489     32491     32489     32492
     32492     32493     32492     32494     32492     32495     32495     32496
     32495     32497     32495     32498     32498     32499     32498     32500
     32498     32501     32501     32502     32501     32503     32501     32504
     32504     32505     32504     32506     32504     32507     32507     32508
     32507     32509     32507     32510     32510     32511     32510     32512
     32510     32513     32513     32514     32513     32515     32513     32516
     32516     32517     32516     32518     32516     32519     32519     32520
     32519     32521     32519     32522     32522     32523     32522     32524
     32522     32525     32525     32526     32525     32527     32525     32528
     32528     32529     32528     32530     32528     32531     32532     32533
     32532     32534     32532     32535     32532     32536     32536     32537
     32536     32538     32536     32539     32539     32540     32539     32541
     32539     32546     32546     32542     32542     32545     32542     32543
     32542     32544     32547     32548     32547     32549     32547     32550
     32547     32545     32550     32551     32550     32558     32550     32552
     32558     32559     32558     32560     32558     32561     32552     32553
     32553     32555     32553     32554     32555     32556     32555     32557
     32555     32567     32567     32568     32567     32569     32567     32570
     32570     32571     32570     32572     32570     32573     32573     32574
     32573     32575     32573     32576     32576     32577     32576     32578
     32576     32579     32579     32580     32579     32581     32579     32582
     32582     32583     32582     32584     32582     32585     32585     32586
     32585     32587     32587     32588     32587     32589     32589     32590
     32589     32591     32589     32592     32592     32593     32592     32594
     32592     32595     32595     32596     32595     32597     32595     32598
     32598     32599     32598     32600     32598     32601     32601     32602
     32601     32603     32601     32604     32604     32605     32604     32606
     32604     32607     32607     32608     32607     32609     32607     32610
     32610     32611     32610     32612     32610     32613     32561     32562
     32562     32564     32562     32563     32564     32565     32564     32566
     32564     32614     32614     32615     32614     32616     32614     32617
     32617     32618     32617     32619     32617     32620     32620     32621
     32620     32622     32620     32623     32623     32624     32623     32625
     32623     32626     32626     32627     32626     32628     32626     32629
     32629     32630     32629     32631     32629     32632     32632     32633
     32632     32634     32632     32635     32635     32636     32635     32637
     32635     32638     32638     32639     32638     32640     32638     32641
     32641     32642     32641     32643     32641     32644     32644     32645
     32644     32646     32644     32647     32647     32648     32647     32649
     32647     32650     32650     32651     32650     32652     32650     32653
     32653     32654     32653     32655     32653     32656     32657     32661
     32657     32665     32657     32669     32661     32662     32661     32663
     32661     32664     32665     32666     32665     32667     32665     32668
     32669     32670     32669     32671     32669     32672     32657     32658
     32658     32659     32658     32660     32658     32673     32673     32674
     32673     32675     32673     32679     32680     32681     32679     32676
     32676     32680     32676     32677     32676     32678     32681     32682
     32681     32683     32681     32684     32684     32685     32684     32692
     32684     32686     32692     32693     32692     32694     32692     32695
     32686     32687     32687     32689     32687     32688     32689     32690
     32689     32691     32689     32701     32701     32702     32701     32703
     32701     32704     32704     32705     32704     32706     32704     32707
     32707     32708     32707     32709     32707     32710     32710     32711
     32710     32712     32710     32713     32713     32714     32713     32715
     32713     32716     32716     32717     32716     32718     32716     32719
     32719     32720     32719     32721     32721     32722     32721     32723
     32723     32724     32723     32725     32723     32726     32726     32727
     32726     32728     32726     32729     32729     32730     32729     32731
     32729     32732     32732     32733     32732     32734     32732     32735
     32735     32736     32735     32737     32735     32738     32738     32739
     32738     32740     32738     32741     32741     32742     32741     32743
     32741     32744     32744     32745     32744     32746     32744     32747
     32695     32696     32696     32698     32696     32697     32698     32699
     32698     32700     32698     32748     32748     32749     32748     32750
     32748     32751     32751     32752     32751     32753     32751     32754
     32754     32755     32754     32756     32754     32757     32757     32758
     32757     32759     32757     32760     32760     32761     32760     32762
     32760     32763     32763     32764     32763     32765     32763     32766
     32766     32767     32766     32768     32766     32769     32769     32770
     32769     32771     32769     32772     32772     32773     32772     32774
     32772     32775     32775     32776     32775     32777     32775     32778
     32778     32779     32778     32780     32778     32781     32781     32782
     32781     32783     32781     32784     32784     32785     32784     32786
     32784     32787     32787     32788     32787     32789     32787     32790
     32791     32792     32791     32793     32791     32794     32791     32795
     32795     32796     32795     32797     32795     32798     32798     32799
     32798     32800     32798     32805     32805     32801     32801     32804
     32801     32802     32801     32803     32806     32807     32806     32808
     32806     32809     32806     32804     32809     32810     32809     32817
     32809     32811     32817     32818     32817     32819     32817     32820
     32811     32812     32812     32814     32812     32813     32814     32815
     32814     32816     32814     32826     32826     32827     32826     32828
     32826     32829     32829     32830     32829     32831     32829     32832
     32832     32833     32832     32834     32832     32835     32835     32836
     32835     32837     32835     32838     32838     32839     32838     32840
     32838     32841     32841     32842     32841     32843     32841     32844
     32844     32845     32844     32846     32846     32847     32846     32848
     32848     32849     32848     32850     32848     32851     32851     32852
     32851     32853     32851     32854     32854     32855     32854     32856
     32854     32857     32857     32858     32857     32859     32857     32860
     32860     32861     32860     32862     32860     32863     32863     32864
     32863     32865     32863     32866     32866     32867     32866     32868
     32866     32869     32869     32870     32869     32871     32869     32872
     32820     32821     32821     32823     32821     32822     32823     32824
     32823     32825     32823     32873     32873     32874     32873     32875
     32873     32876     32876     32877     32876     32878     32876     32879
     32879     32880     32879     32881     32879     32882     32882     32883
     32882     32884     32882     32885     32885     32886     32885     32887
     32885     32888     32888     32889     32888     32890     32888     32891
     32891     32892     32891     32893     32891     32894     32894     32895
     32894     32896     32894     32897     32897     32898     32897     32899
     32897     32900     32900     32901     32900     32902     32900     32903
     32903     32904     32903     32905     32903     32906     32906     32907
     32906     32908     32906     32909     32909     32910     32909     32911
     32909     32912     32912     32913     32912     32914     32912     32915
     32916     32920     32916     32924     32916     32928     32920     32921
     32920     32922     32920     32923     32924     32925     32924     32926
     32924     32927     32928     32929     32928     32930     32928     32931
     32916     32917     32917     32918     32917     32919     32917     32932
     32932     32933     32932     32934     32932     32938     32939     32940
     32938     32935     32935     32939     32935     32936     32935     32937
     32940     32941     32940     32942     32940     32943     32943     32944
     32943     32951     32943     32945     32951     32952     32951     32953
     32951     32954     32945     32946     32946     32948     32946     32947
     32948     32949     32948     32950     32948     32960     32960     32961
     32960     32962     32960     32963     32963     32964     32963     32965
     32963     32966     32966     32967     32966     32968     32966     32969
     32969     32970     32969     32971     32969     32972     32972     32973
     32972     32974     32972     32975     32975     32976     32975     32977
     32975     32978     32978     32979     32978     32980     32980     32981
     32980     32982     32982     32983     32982     32984     32982     32985
     32985     32986     32985     32987     32985     32988     32988     32989
     32988     32990     32988     32991     32991     32992     32991     32993
     32991     32994     32994     32995     32994     32996     32994     32997
     32997     32998     32997     32999     32997     33000     33000     33001
     33000     33002     33000     33003     33003     33004     33003     33005
     33003     33006     32954     32955     32955     32957     32955     32956
     32957     32958     32957     32959     32957     33007     33007     33008
     33007     33009     33007     33010     33010     33011     33010     33012
     33010     33013     33013     33014     33013     33015     33013     33016
     33016     33017     33016     33018     33016     33019     33019     33020
     33019     33021     33019     33022     33022     33023     33022     33024
     33022     33025     33025     33026     33025     33027     33025     33028
     33028     33029     33028     33030     33028     33031     33031     33032
     33031     33033     33031     33034     33034     33035     33034     33036
     33034     33037     33037     33038     33037     33039     33037     33040
     33040     33041     33040     33042     33040     33043     33043     33044
     33043     33045     33043     33046     33046     33047     33046     33048
     33046     33049     33050     33051     33050     33052     33050     33053
     33050     33054     33054     33055     33054     33056     33054     33057
     33057     33058     33057     33059     33057     33064     33064     33060
     33060     33063     33060     33061     33060     33062     33065     33066
     33065     33067     33065     33068     33065     33063     33068     33069
     33068     33076     33068     33070     33076     33077     33076     33078
     33076     33079     33070     33071     33071     33073     33071     33072
     33073     33074     33073     33075     33073     33085     33085     33086
     33085     33087     33085     33088     33088     33089     33088     33090
     33088     33091     33091     33092     33091     33093     33091     33094
     33094     33095     33094     33096     33094     33097     33097     33098
     33097     33099     33097     33100     33100     33101     33100     33102
     33100     33103     33103     33104     33103     33105     33105     33106
     33105     33107     33107     33108     33107     33109     33107     33110
     33110     33111     33110     33112     33110     33113     33113     33114
     33113     33115     33113     33116     33116     33117     33116     33118
     33116     33119     33119     33120     33119     33121     33119     33122
     33122     33123     33122     33124     33122     33125     33125     33126
     33125     33127     33125     33128     33128     33129     33128     33130
     33128     33131     33079     33080     33080     33082     33080     33081
     33082     33083     33082     33084     33082     33132     33132     33133
     33132     33134     33132     33135     33135     33136     33135     33137
     33135     33138     33138     33139     33138     33140     33138     33141
     33141     33142     33141     33143     33141     33144     33144     33145
     33144     33146     33144     33147     33147     33148     33147     33149
     33147     33150     33150     33151     33150     33152     33150     33153
     33153     33154     33153     33155     33153     33156     33156     33157
     33156     33158     33156     33159     33159     33160     33159     33161
     33159     33162     33162     33163     33162     33164     33162     33165
     33165     33166     33165     33167     33165     33168     33168     33169
     33168     33170     33168     33171     33171     33172     33171     33173
     33171     33174     33175     33179     33175     33183     33175     33187
     33179     33180     33179     33181     33179     33182     33183     33184
     33183     33185     33183     33186     33187     33188     33187     33189
     33187     33190     33175     33176     33176     33177     33176     33178
     33176     33191     33191     33192     33191     33193     33191     33197
     33198     33199     33197     33194     33194     33198     33194     33195
     33194     33196     33199     33200     33199     33201     33199     33202
     33202     33203     33202     33210     33202     33204     33210     33211
     33210     33212     33210     33213     33204     33205     33205     33207
     33205     33206     33207     33208     33207     33209     33207     33219
     33219     33220     33219     33221     33219     33222     33222     33223
     33222     33224     33222     33225     33225     33226     33225     33227
     33225     33228     33228     33229     33228     33230     33228     33231
     33231     33232     33231     33233     33231     33234     33234     33235
     33234     33236     33234     33237     33237     33238     33237     33239
     33239     33240     33239     33241     33241     33242     33241     33243
     33241     33244     33244     33245     33244     33246     33244     33247
     33247     33248     33247     33249     33247     33250     33250     33251
     33250     33252     33250     33253     33253     33254     33253     33255
     33253     33256     33256     33257     33256     33258     33256     33259
     33259     33260     33259     33261     33259     33262     33262     33263
     33262     33264     33262     33265     33213     33214     33214     33216
     33214     33215     33216     33217     33216     33218     33216     33266
     33266     33267     33266     33268     33266     33269     33269     33270
     33269     33271     33269     33272     33272     33273     33272     33274
     33272     33275     33275     33276     33275     33277     33275     33278
     33278     33279     33278     33280     33278     33281     33281     33282
     33281     33283     33281     33284     33284     33285     33284     33286
     33284     33287     33287     33288     33287     33289     33287     33290
     33290     33291     33290     33292     33290     33293     33293     33294
     33293     33295     33293     33296     33296     33297     33296     33298
     33296     33299     33299     33300     33299     33301     33299     33302
     33302     33303     33302     33304     33302     33305     33305     33306
     33305     33307     33305     33308     33309     33310     33309     33311
     33309     33312     33309     33313     33313     33314     33313     33315
     33313     33316     33316     33317     33316     33318     33316     33323
     33323     33319     33319     33322     33319     33320     33319     33321
     33324     33325     33324     33326     33324     33327     33324     33322
     33327     33328     33327     33335     33327     33329     33335     33336
     33335     33337     33335     33338     33329     33330     33330     33332
     33330     33331     33332     33333     33332     33334     33332     33344
     33344     33345     33344     33346     33344     33347     33347     33348
     33347     33349     33347     33350     33350     33351     33350     33352
     33350     33353     33353     33354     33353     33355     33353     33356
     33356     33357     33356     33358     33356     33359     33359     33360
     33359     33361     33359     33362     33362     33363     33362     33364
     33364     33365     33364     33366     33366     33367     33366     33368
     33366     33369     33369     33370     33369     33371     33369     33372
     33372     33373     33372     33374     33372     33375     33375     33376
     33375     33377     33375     33378     33378     33379     33378     33380
     33378     33381     33381     33382     33381     33383     33381     33384
     33384     33385     33384     33386     33384     33387     33387     33388
     33387     33389     33387     33390     33338     33339     33339     33341
     33339     33340     33341     33342     33341     33343     33341     33391
     33391     33392     33391     33393     33391     33394     33394     33395
     33394     33396     33394     33397     33397     33398     33397     33399
     33397     33400     33400     33401     33400     33402     33400     33403
     33403     33404     33403     33405     33403     33406     33406     33407
     33406     33408     33406     33409     33409     33410     33409     33411
     33409     33412     33412     33413     33412     33414     33412     33415
     33415     33416     33415     33417     33415     33418     33418     33419
     33418     33420     33418     33421     33421     33422     33421     33423
     33421     33424     33424     33425     33424     33426     33424     33427
     33427     33428     33427     33429     33427     33430     33430     33431
     33430     33432     33430     33433     33434     33435     33434     33436
     33434     33437     33434     33438     33438     33439     33438     33440
     33438     33441     33441     33442     33441     33443     33441     33448
     33448     33444     33444     33447     33444     33445     33444     33446
     33449     33450     33449     33451     33449     33452     33449     33447
     33452     33453     33452     33460     33452     33454     33460     33461
     33460     33462     33460     33463     33454     33455     33455     33457
     33455     33456     33457     33458     33457     33459     33457     33469
     33469     33470     33469     33471     33469     33472     33472     33473
     33472     33474     33472     33475     33475     33476     33475     33477
     33475     33478     33478     33479     33478     33480     33478     33481
     33481     33482     33481     33483     33481     33484     33484     33485
     33484     33486     33484     33487     33487     33488     33487     33489
     33489     33490     33489     33491     33491     33492     33491     33493
     33491     33494     33494     33495     33494     33496     33494     33497
     33497     33498     33497     33499     33497     33500     33500     33501
     33500     33502     33500     33503     33503     33504     33503     33505
     33503     33506     33506     33507     33506     33508     33506     33509
     33509     33510     33509     33511     33509     33512     33512     33513
     33512     33514     33512     33515     33463     33464     33464     33466
     33464     33465     33466     33467     33466     33468     33466     33516
     33516     33517     33516     33518     33516     33519     33519     33520
     33519     33521     33519     33522     33522     33523     33522     33524
     33522     33525     33525     33526     33525     33527     33525     33528
     33528     33529     33528     33530     33528     33531     33531     33532
     33531     33533     33531     33534     33534     33535     33534     33536
     33534     33537     33537     33538     33537     33539     33537     33540
     33540     33541     33540     33542     33540     33543     33543     33544
     33543     33545     33543     33546     33546     33547     33546     33548
     33546     33549     33549     33550     33549     33551     33549     33552
     33552     33553     33552     33554     33552     33555     33555     33556
     33555     33557     33555     33558     33559     33560     33559     33561
     33559     33562     33559     33563     33563     33564     33563     33565
     33563     33566     33566     33567     33566     33568     33566     33573
     33573     33569     33569     33572     33569     33570     33569     33571
     33574     33575     33574     33576     33574     33577     33574     33572
     33577     33578     33577     33585     33577     33579     33585     33586
     33585     33587     33585     33588     33579     33580     33580     33582
     33580     33581     33582     33583     33582     33584     33582     33594
     33594     33595     33594     33596     33594     33597     33597     33598
     33597     33599     33597     33600     33600     33601     33600     33602
     33600     33603     33603     33604     33603     33605     33603     33606
     33606     33607     33606     33608     33606     33609     33609     33610
     33609     33611     33609     33612     33612     33613     33612     33614
     33614     33615     33614     33616     33616     33617     33616     33618
     33616     33619     33619     33620     33619     33621     33619     33622
     33622     33623     33622     33624     33622     33625     33625     33626
     33625     33627     33625     33628     33628     33629     33628     33630
     33628     33631     33631     33632     33631     33633     33631     33634
     33634     33635     33634     33636     33634     33637     33637     33638
     33637     33639     33637     33640     33588     33589     33589     33591
     33589     33590     33591     33592     33591     33593     33591     33641
     33641     33642     33641     33643     33641     33644     33644     33645
     33644     33646     33644     33647     33647     33648     33647     33649
     33647     33650     33650     33651     33650     33652     33650     33653
     33653     33654     33653     33655     33653     33656     33656     33657
     33656     33658     33656     33659     33659     33660     33659     33661
     33659     33662     33662     33663     33662     33664     33662     33665
     33665     33666     33665     33667     33665     33668     33668     33669
     33668     33670     33668     33671     33671     33672     33671     33673
     33671     33674     33674     33675     33674     33676     33674     33677
     33677     33678     33677     33679     33677     33680     33680     33681
     33680     33682     33680     33683     33684     33688     33684     33692
     33684     33696     33688     33689     33688     33690     33688     33691
     33692     33693     33692     33694     33692     33695     33696     33697
     33696     33698     33696     33699     33684     33685     33685     33686
     33685     33687     33685     33700     33700     33701     33700     33702
     33700     33706     33707     33708     33706     33703     33703     33707
     33703     33704     33703     33705     33708     33709     33708     33710
     33708     33711     33711     33712     33711     33719     33711     33713
     33719     33720     33719     33721     33719     33722     33713     33714
     33714     33716     33714     33715     33716     33717     33716     33718
     33716     33728     33728     33729     33728     33730     33728     33731
     33731     33732     33731     33733     33731     33734     33734     33735
     33734     33736     33734     33737     33737     33738     33737     33739
     33737     33740     33740     33741     33740     33742     33740     33743
     33743     33744     33743     33745     33743     33746     33746     33747
     33746     33748     33748     33749     33748     33750     33750     33751
     33750     33752     33750     33753     33753     33754     33753     33755
     33753     33756     33756     33757     33756     33758     33756     33759
     33759     33760     33759     33761     33759     33762     33762     33763
     33762     33764     33762     33765     33765     33766     33765     33767
     33765     33768     33768     33769     33768     33770     33768     33771
     33771     33772     33771     33773     33771     33774     33722     33723
     33723     33725     33723     33724     33725     33726     33725     33727
     33725     33775     33775     33776     33775     33777     33775     33778
     33778     33779     33778     33780     33778     33781     33781     33782
     33781     33783     33781     33784     33784     33785     33784     33786
     33784     33787     33787     33788     33787     33789     33787     33790
     33790     33791     33790     33792     33790     33793     33793     33794
     33793     33795     33793     33796     33796     33797     33796     33798
     33796     33799     33799     33800     33799     33801     33799     33802
     33802     33803     33802     33804     33802     33805     33805     33806
     33805     33807     33805     33808     33808     33809     33808     33810
     33808     33811     33811     33812     33811     33813     33811     33814
     33814     33815     33814     33816     33814     33817     33818     33822
     33818     33826     33818     33830     33822     33823     33822     33824
     33822     33825     33826     33827     33826     33828     33826     33829
     33830     33831     33830     33832     33830     33833     33818     33819
     33819     33820     33819     33821     33819     33834     33834     33835
     33834     33836     33834     33840     33841     33842     33840     33837
     33837     33841     33837     33838     33837     33839     33842     33843
     33842     33844     33842     33845     33845     33846     33845     33853
     33845     33847     33853     33854     33853     33855     33853     33856
     33847     33848     33848     33850     33848     33849     33850     33851
     33850     33852     33850     33862     33862     33863     33862     33864
     33862     33865     33865     33866     33865     33867     33865     33868
     33868     33869     33868     33870     33868     33871     33871     33872
     33871     33873     33871     33874     33874     33875     33874     33876
     33874     33877     33877     33878     33877     33879     33877     33880
     33880     33881     33880     33882     33882     33883     33882     33884
     33884     33885     33884     33886     33884     33887     33887     33888
     33887     33889     33887     33890     33890     33891     33890     33892
     33890     33893     33893     33894     33893     33895     33893     33896
     33896     33897     33896     33898     33896     33899     33899     33900
     33899     33901     33899     33902     33902     33903     33902     33904
     33902     33905     33905     33906     33905     33907     33905     33908
     33856     33857     33857     33859     33857     33858     33859     33860
     33859     33861     33859     33909     33909     33910     33909     33911
     33909     33912     33912     33913     33912     33914     33912     33915
     33915     33916     33915     33917     33915     33918     33918     33919
     33918     33920     33918     33921     33921     33922     33921     33923
     33921     33924     33924     33925     33924     33926     33924     33927
     33927     33928     33927     33929     33927     33930     33930     33931
     33930     33932     33930     33933     33933     33934     33933     33935
     33933     33936     33936     33937     33936     33938     33936     33939
     33939     33940     33939     33941     33939     33942     33942     33943
     33942     33944     33942     33945     33945     33946     33945     33947
     33945     33948     33948     33949     33948     33950     33948     33951
     33952     33953     33952     33954     33952     33955     33952     33956
     33956     33957     33956     33958     33956     33959     33959     33960
     33959     33961     33959     33966     33966     33962     33962     33965
     33962     33963     33962     33964     33967     33968     33967     33969
     33967     33970     33967     33965     33970     33971     33970     33978
     33970     33972     33978     33979     33978     33980     33978     33981
     33972     33973     33973     33975     33973     33974     33975     33976
     33975     33977     33975     33987     33987     33988     33987     33989
     33987     33990     33990     33991     33990     33992     33990     33993
     33993     33994     33993     33995     33993     33996     33996     33997
     33996     33998     33996     33999     33999     34000     33999     34001
     33999     34002     34002     34003     34002     34004     34002     34005
     34005     34006     34005     34007     34007     34008     34007     34009
     34009     34010     34009     34011     34009     34012     34012     34013
     34012     34014     34012     34015     34015     34016     34015     34017
     34015     34018     34018     34019     34018     34020     34018     34021
     34021     34022     34021     34023     34021     34024     34024     34025
     34024     34026     34024     34027     34027     34028     34027     34029
     34027     34030     34030     34031     34030     34032     34030     34033
     33981     33982     33982     33984     33982     33983     33984     33985
     33984     33986     33984     34034     34034     34035     34034     34036
     34034     34037     34037     34038     34037     34039     34037     34040
     34040     34041     34040     34042     34040     34043     34043     34044
     34043     34045     34043     34046     34046     34047     34046     34048
     34046     34049     34049     34050     34049     34051     34049     34052
     34052     34053     34052     34054     34052     34055     34055     34056
     34055     34057     34055     34058     34058     34059     34058     34060
     34058     34061     34061     34062     34061     34063     34061     34064
     34064     34065     34064     34066     34064     34067     34067     34068
     34067     34069     34067     34070     34070     34071     34070     34072
     34070     34073     34073     34074     34073     34075     34073     34076
     34077     34078     34077     34079     34077     34080     34077     34081
     34081     34082     34081     34083     34081     34084     34084     34085
     34084     34086     34084     34091     34091     34087     34087     34090
     34087     34088     34087     34089     34092     34093     34092     34094
     34092     34095     34092     34090     34095     34096     34095     34103
     34095     34097     34103     34104     34103     34105     34103     34106
     34097     34098     34098     34100     34098     34099     34100     34101
     34100     34102     34100     34112     34112     34113     34112     34114
     34112     34115     34115     34116     34115     34117     34115     34118
     34118     34119     34118     34120     34118     34121     34121     34122
     34121     34123     34121     34124     34124     34125     34124     34126
     34124     34127     34127     34128     34127     34129     34127     34130
     34130     34131     34130     34132     34132     34133     34132     34134
     34134     34135     34134     34136     34134     34137     34137     34138
     34137     34139     34137     34140     34140     34141     34140     34142
     34140     34143     34143     34144     34143     34145     34143     34146
     34146     34147     34146     34148     34146     34149     34149     34150
     34149     34151     34149     34152     34152     34153     34152     34154
     34152     34155     34155     34156     34155     34157     34155     34158
     34106     34107     34107     34109     34107     34108     34109     34110
     34109     34111     34109     34159     34159     34160     34159     34161
     34159     34162     34162     34163     34162     34164     34162     34165
     34165     34166     34165     34167     34165     34168     34168     34169
     34168     34170     34168     34171     34171     34172     34171     34173
     34171     34174     34174     34175     34174     34176     34174     34177
     34177     34178     34177     34179     34177     34180     34180     34181
     34180     34182     34180     34183     34183     34184     34183     34185
     34183     34186     34186     34187     34186     34188     34186     34189
     34189     34190     34189     34191     34189     34192     34192     34193
     34192     34194     34192     34195     34195     34196     34195     34197
     34195     34198     34198     34199     34198     34200     34198     34201
     34202     34206     34202     34210     34202     34214     34206     34207
     34206     34208     34206     34209     34210     34211     34210     34212
     34210     34213     34214     34215     34214     34216     34214     34217
     34202     34203     34203     34204     34203     34205     34203     34218
     34218     34219     34218     34220     34218     34224     34225     34226
     34224     34221     34221     34225     34221     34222     34221     34223
     34226     34227     34226     34228     34226     34229     34229     34230
     34229     34237     34229     34231     34237     34238     34237     34239
     34237     34240     34231     34232     34232     34234     34232     34233
     34234     34235     34234     34236     34234     34246     34246     34247
     34246     34248     34246     34249     34249     34250     34249     34251
     34249     34252     34252     34253     34252     34254     34252     34255
     34255     34256     34255     34257     34255     34258     34258     34259
     34258     34260     34258     34261     34261     34262     34261     34263
     34261     34264     34264     34265     34264     34266     34266     34267
     34266     34268     34268     34269     34268     34270     34268     34271
     34271     34272     34271     34273     34271     34274     34274     34275
     34274     34276     34274     34277     34277     34278     34277     34279
     34277     34280     34280     34281     34280     34282     34280     34283
     34283     34284     34283     34285     34283     34286     34286     34287
     34286     34288     34286     34289     34289     34290     34289     34291
     34289     34292     34240     34241     34241     34243     34241     34242
     34243     34244     34243     34245     34243     34293     34293     34294
     34293     34295     34293     34296     34296     34297     34296     34298
     34296     34299     34299     34300     34299     34301     34299     34302
     34302     34303     34302     34304     34302     34305     34305     34306
     34305     34307     34305     34308     34308     34309     34308     34310
     34308     34311     34311     34312     34311     34313     34311     34314
     34314     34315     34314     34316     34314     34317     34317     34318
     34317     34319     34317     34320     34320     34321     34320     34322
     34320     34323     34323     34324     34323     34325     34323     34326
     34326     34327     34326     34328     34326     34329     34329     34330
     34329     34331     34329     34332     34332     34333     34332     34334
     34332     34335     34336     34337     34336     34338     34336     34339
     34336     34340     34340     34341     34340     34342     34340     34343
     34343     34344     34343     34345     34343     34350     34350     34346
     34346     34349     34346     34347     34346     34348     34351     34352
     34351     34353     34351     34354     34351     34349     34354     34355
     34354     34362     34354     34356     34362     34363     34362     34364
     34362     34365     34356     34357     34357     34359     34357     34358
     34359     34360     34359     34361     34359     34371     34371     34372
     34371     34373     34371     34374     34374     34375     34374     34376
     34374     34377     34377     34378     34377     34379     34377     34380
     34380     34381     34380     34382     34380     34383     34383     34384
     34383     34385     34383     34386     34386     34387     34386     34388
     34386     34389     34389     34390     34389     34391     34391     34392
     34391     34393     34393     34394     34393     34395     34393     34396
     34396     34397     34396     34398     34396     34399     34399     34400
     34399     34401     34399     34402     34402     34403     34402     34404
     34402     34405     34405     34406     34405     34407     34405     34408
     34408     34409     34408     34410     34408     34411     34411     34412
     34411     34413     34411     34414     34414     34415     34414     34416
     34414     34417     34365     34366     34366     34368     34366     34367
     34368     34369     34368     34370     34368     34418     34418     34419
     34418     34420     34418     34421     34421     34422     34421     34423
     34421     34424     34424     34425     34424     34426     34424     34427
     34427     34428     34427     34429     34427     34430     34430     34431
     34430     34432     34430     34433     34433     34434     34433     34435
     34433     34436     34436     34437     34436     34438     34436     34439
     34439     34440     34439     34441     34439     34442     34442     34443
     34442     34444     34442     34445     34445     34446     34445     34447
     34445     34448     34448     34449     34448     34450     34448     34451
     34451     34452     34451     34453     34451     34454     34454     34455
     34454     34456     34454     34457     34457     34458     34457     34459
     34457     34460     34461     34465     34461     34469     34461     34473
     34465     34466     34465     34467     34465     34468     34469     34470
     34469     34471     34469     34472     34473     34474     34473     34475
     34473     34476     34461     34462     34462     34463     34462     34464
     34462     34477     34477     34478     34477     34479     34477     34483
     34484     34485     34483     34480     34480     34484     34480     34481
     34480     34482     34485     34486     34485     34487     34485     34488
     34488     34489     34488     34496     34488     34490     34496     34497
     34496     34498     34496     34499     34490     34491     34491     34493
     34491     34492     34493     34494     34493     34495     34493     34505
     34505     34506     34505     34507     34505     34508     34508     34509
     34508     34510     34508     34511     34511     34512     34511     34513
     34511     34514     34514     34515     34514     34516     34514     34517
     34517     34518     34517     34519     34517     34520     34520     34521
     34520     34522     34520     34523     34523     34524     34523     34525
     34525     34526     34525     34527     34527     34528     34527     34529
     34527     34530     34530     34531     34530     34532     34530     34533
     34533     34534     34533     34535     34533     34536     34536     34537
     34536     34538     34536     34539     34539     34540     34539     34541
     34539     34542     34542     34543     34542     34544     34542     34545
     34545     34546     34545     34547     34545     34548     34548     34549
     34548     34550     34548     34551     34499     34500     34500     34502
     34500     34501     34502     34503     34502     34504     34502     34552
     34552     34553     34552     34554     34552     34555     34555     34556
     34555     34557     34555     34558     34558     34559     34558     34560
     34558     34561     34561     34562     34561     34563     34561     34564
     34564     34565     34564     34566     34564     34567     34567     34568
     34567     34569     34567     34570     34570     34571     34570     34572
     34570     34573     34573     34574     34573     34575     34573     34576
     34576     34577     34576     34578     34576     34579     34579     34580
     34579     34581     34579     34582     34582     34583     34582     34584
     34582     34585     34585     34586     34585     34587     34585     34588
     34588     34589     34588     34590     34588     34591     34591     34592
     34591     34593     34591     34594     34595     34599     34595     34603
     34595     34607     34599     34600     34599     34601     34599     34602
     34603     34604     34603     34605     34603     34606     34607     34608
     34607     34609     34607     34610     34595     34596     34596     34597
     34596     34598     34596     34611     34611     34612     34611     34613
     34611     34617     34618     34619     34617     34614     34614     34618
     34614     34615     34614     34616     34619     34620     34619     34621
     34619     34622     34622     34623     34622     34630     34622     34624
     34630     34631     34630     34632     34630     34633     34624     34625
     34625     34627     34625     34626     34627     34628     34627     34629
     34627     34639     34639     34640     34639     34641     34639     34642
     34642     34643     34642     34644     34642     34645     34645     34646
     34645     34647     34645     34648     34648     34649     34648     34650
     34648     34651     34651     34652     34651     34653     34651     34654
     34654     34655     34654     34656     34654     34657     34657     34658
     34657     34659     34659     34660     34659     34661     34661     34662
     34661     34663     34661     34664     34664     34665     34664     34666
     34664     34667     34667     34668     34667     34669     34667     34670
     34670     34671     34670     34672     34670     34673     34673     34674
     34673     34675     34673     34676     34676     34677     34676     34678
     34676     34679     34679     34680     34679     34681     34679     34682
     34682     34683     34682     34684     34682     34685     34633     34634
     34634     34636     34634     34635     34636     34637     34636     34638
     34636     34686     34686     34687     34686     34688     34686     34689
     34689     34690     34689     34691     34689     34692     34692     34693
     34692     34694     34692     34695     34695     34696     34695     34697
     34695     34698     34698     34699     34698     34700     34698     34701
     34701     34702     34701     34703     34701     34704     34704     34705
     34704     34706     34704     34707     34707     34708     34707     34709
     34707     34710     34710     34711     34710     34712     34710     34713
     34713     34714     34713     34715     34713     34716     34716     34717
     34716     34718     34716     34719     34719     34720     34719     34721
     34719     34722     34722     34723     34722     34724     34722     34725
     34725     34726     34725     34727     34725     34728     34729     34733
     34729     34737     34729     34741     34733     34734     34733     34735
     34733     34736     34737     34738     34737     34739     34737     34740
     34741     34742     34741     34743     34741     34744     34729     34730
     34730     34731     34730     34732     34730     34745     34745     34746
     34745     34747     34745     34751     34752     34753     34751     34748
     34748     34752     34748     34749     34748     34750     34753     34754
     34753     34755     34753     34756     34756     34757     34756     34764
     34756     34758     34764     34765     34764     34766     34764     34767
     34758     34759     34759     34761     34759     34760     34761     34762
     34761     34763     34761     34773     34773     34774     34773     34775
     34773     34776     34776     34777     34776     34778     34776     34779
     34779     34780     34779     34781     34779     34782     34782     34783
     34782     34784     34782     34785     34785     34786     34785     34787
     34785     34788     34788     34789     34788     34790     34788     34791
     34791     34792     34791     34793     34793     34794     34793     34795
     34795     34796     34795     34797     34795     34798     34798     34799
     34798     34800     34798     34801     34801     34802     34801     34803
     34801     34804     34804     34805     34804     34806     34804     34807
     34807     34808     34807     34809     34807     34810     34810     34811
     34810     34812     34810     34813     34813     34814     34813     34815
     34813     34816     34816     34817     34816     34818     34816     34819
     34767     34768     34768     34770     34768     34769     34770     34771
     34770     34772     34770     34820     34820     34821     34820     34822
     34820     34823     34823     34824     34823     34825     34823     34826
     34826     34827     34826     34828     34826     34829     34829     34830
     34829     34831     34829     34832     34832     34833     34832     34834
     34832     34835     34835     34836     34835     34837     34835     34838
     34838     34839     34838     34840     34838     34841     34841     34842
     34841     34843     34841     34844     34844     34845     34844     34846
     34844     34847     34847     34848     34847     34849     34847     34850
     34850     34851     34850     34852     34850     34853     34853     34854
     34853     34855     34853     34856     34856     34857     34856     34858
     34856     34859     34859     34860     34859     34861     34859     34862
     34863     34867     34863     34871     34863     34875     34867     34868
     34867     34869     34867     34870     34871     34872     34871     34873
     34871     34874     34875     34876     34875     34877     34875     34878
     34863     34864     34864     34865     34864     34866     34864     34879
     34879     34880     34879     34881     34879     34885     34886     34887
     34885     34882     34882     34886     34882     34883     34882     34884
     34887     34888     34887     34889     34887     34890     34890     34891
     34890     34898     34890     34892     34898     34899     34898     34900
     34898     34901     34892     34893     34893     34895     34893     34894
     34895     34896     34895     34897     34895     34907     34907     34908
     34907     34909     34907     34910     34910     34911     34910     34912
     34910     34913     34913     34914     34913     34915     34913     34916
     34916     34917     34916     34918     34916     34919     34919     34920
     34919     34921     34919     34922     34922     34923     34922     34924
     34922     34925     34925     34926     34925     34927     34927     34928
     34927     34929     34929     34930     34929     34931     34929     34932
     34932     34933     34932     34934     34932     34935     34935     34936
     34935     34937     34935     34938     34938     34939     34938     34940
     34938     34941     34941     34942     34941     34943     34941     34944
     34944     34945     34944     34946     34944     34947     34947     34948
     34947     34949     34947     34950     34950     34951     34950     34952
     34950     34953     34901     34902     34902     34904     34902     34903
     34904     34905     34904     34906     34904     34954     34954     34955
     34954     34956     34954     34957     34957     34958     34957     34959
     34957     34960     34960     34961     34960     34962     34960     34963
     34963     34964     34963     34965     34963     34966     34966     34967
     34966     34968     34966     34969     34969     34970     34969     34971
     34969     34972     34972     34973     34972     34974     34972     34975
     34975     34976     34975     34977     34975     34978     34978     34979
     34978     34980     34978     34981     34981     34982     34981     34983
     34981     34984     34984     34985     34984     34986     34984     34987
     34987     34988     34987     34989     34987     34990     34990     34991
     34990     34992     34990     34993     34993     34994     34993     34995
     34993     34996     34997     34998     34997     34999     34997     35000
     34997     35001     35001     35002     35001     35003     35001     35004
     35004     35005     35004     35006     35004     35011     35011     35007
     35007     35010     35007     35008     35007     35009     35012     35013
     35012     35014     35012     35015     35012     35010     35015     35016
     35015     35023     35015     35017     35023     35024     35023     35025
     35023     35026     35017     35018     35018     35020     35018     35019
     35020     35021     35020     35022     35020     35032     35032     35033
     35032     35034     35032     35035     35035     35036     35035     35037
     35035     35038     35038     35039     35038     35040     35038     35041
     35041     35042     35041     35043     35041     35044     35044     35045
     35044     35046     35044     35047     35047     35048     35047     35049
     35047     35050     35050     35051     35050     35052     35052     35053
     35052     35054     35054     35055     35054     35056     35054     35057
     35057     35058     35057     35059     35057     35060     35060     35061
     35060     35062     35060     35063     35063     35064     35063     35065
     35063     35066     35066     35067     35066     35068     35066     35069
     35069     35070     35069     35071     35069     35072     35072     35073
     35072     35074     35072     35075     35075     35076     35075     35077
     35075     35078     35026     35027     35027     35029     35027     35028
     35029     35030     35029     35031     35029     35079     35079     35080
     35079     35081     35079     35082     35082     35083     35082     35084
     35082     35085     35085     35086     35085     35087     35085     35088
     35088     35089     35088     35090     35088     35091     35091     35092
     35091     35093     35091     35094     35094     35095     35094     35096
     35094     35097     35097     35098     35097     35099     35097     35100
     35100     35101     35100     35102     35100     35103     35103     35104
     35103     35105     35103     35106     35106     35107     35106     35108
     35106     35109     35109     35110     35109     35111     35109     35112
     35112     35113     35112     35114     35112     35115     35115     35116
     35115     35117     35115     35118     35118     35119     35118     35120
     35118     35121     35122     35123     35122     35124     35122     35125
     35122     35126     35126     35127     35126     35128     35126     35129
     35129     35130     35129     35131     35129     35136     35136     35132
     35132     35135     35132     35133     35132     35134     35137     35138
     35137     35139     35137     35140     35137     35135     35140     35141
     35140     35148     35140     35142     35148     35149     35148     35150
     35148     35151     35142     35143     35143     35145     35143     35144
     35145     35146     35145     35147     35145     35157     35157     35158
     35157     35159     35157     35160     35160     35161     35160     35162
     35160     35163     35163     35164     35163     35165     35163     35166
     35166     35167     35166     35168     35166     35169     35169     35170
     35169     35171     35169     35172     35172     35173     35172     35174
     35172     35175     35175     35176     35175     35177     35177     35178
     35177     35179     35179     35180     35179     35181     35179     35182
     35182     35183     35182     35184     35182     35185     35185     35186
     35185     35187     35185     35188     35188     35189     35188     35190
     35188     35191     35191     35192     35191     35193     35191     35194
     35194     35195     35194     35196     35194     35197     35197     35198
     35197     35199     35197     35200     35200     35201     35200     35202
     35200     35203     35151     35152     35152     35154     35152     35153
     35154     35155     35154     35156     35154     35204     35204     35205
     35204     35206     35204     35207     35207     35208     35207     35209
     35207     35210     35210     35211     35210     35212     35210     35213
     35213     35214     35213     35215     35213     35216     35216     35217
     35216     35218     35216     35219     35219     35220     35219     35221
     35219     35222     35222     35223     35222     35224     35222     35225
     35225     35226     35225     35227     35225     35228     35228     35229
     35228     35230     35228     35231     35231     35232     35231     35233
     35231     35234     35234     35235     35234     35236     35234     35237
     35237     35238     35237     35239     35237     35240     35240     35241
     35240     35242     35240     35243     35243     35244     35243     35245
     35243     35246     35247     35248     35247     35249     35247     35250
     35247     35251     35251     35252     35251     35253     35251     35254
     35254     35255     35254     35256     35254     35261     35261     35257
     35257     35260     35257     35258     35257     35259     35262     35263
     35262     35264     35262     35265     35262     35260     35265     35266
     35265     35273     35265     35267     35273     35274     35273     35275
     35273     35276     35267     35268     35268     35270     35268     35269
     35270     35271     35270     35272     35270     35282     35282     35283
     35282     35284     35282     35285     35285     35286     35285     35287
     35285     35288     35288     35289     35288     35290     35288     35291
     35291     35292     35291     35293     35291     35294     35294     35295
     35294     35296     35294     35297     35297     35298     35297     35299
     35297     35300     35300     35301     35300     35302     35302     35303
     35302     35304     35304     35305     35304     35306     35304     35307
     35307     35308     35307     35309     35307     35310     35310     35311
     35310     35312     35310     35313     35313     35314     35313     35315
     35313     35316     35316     35317     35316     35318     35316     35319
     35319     35320     35319     35321     35319     35322     35322     35323
     35322     35324     35322     35325     35325     35326     35325     35327
     35325     35328     35276     35277     35277     35279     35277     35278
     35279     35280     35279     35281     35279     35329     35329     35330
     35329     35331     35329     35332     35332     35333     35332     35334
     35332     35335     35335     35336     35335     35337     35335     35338
     35338     35339     35338     35340     35338     35341     35341     35342
     35341     35343     35341     35344     35344     35345     35344     35346
     35344     35347     35347     35348     35347     35349     35347     35350
     35350     35351     35350     35352     35350     35353     35353     35354
     35353     35355     35353     35356     35356     35357     35356     35358
     35356     35359     35359     35360     35359     35361     35359     35362
     35362     35363     35362     35364     35362     35365     35365     35366
     35365     35367     35365     35368     35368     35369     35368     35370
     35368     35371     35372     35373     35372     35374     35372     35375
     35372     35376     35376     35377     35376     35378     35376     35379
     35379     35380     35379     35381     35379     35386     35386     35382
     35382     35385     35382     35383     35382     35384     35387     35388
     35387     35389     35387     35390     35387     35385     35390     35391
     35390     35398     35390     35392     35398     35399     35398     35400
     35398     35401     35392     35393     35393     35395     35393     35394
     35395     35396     35395     35397     35395     35407     35407     35408
     35407     35409     35407     35410     35410     35411     35410     35412
     35410     35413     35413     35414     35413     35415     35413     35416
     35416     35417     35416     35418     35416     35419     35419     35420
     35419     35421     35419     35422     35422     35423     35422     35424
     35422     35425     35425     35426     35425     35427     35427     35428
     35427     35429     35429     35430     35429     35431     35429     35432
     35432     35433     35432     35434     35432     35435     35435     35436
     35435     35437     35435     35438     35438     35439     35438     35440
     35438     35441     35441     35442     35441     35443     35441     35444
     35444     35445     35444     35446     35444     35447     35447     35448
     35447     35449     35447     35450     35450     35451     35450     35452
     35450     35453     35401     35402     35402     35404     35402     35403
     35404     35405     35404     35406     35404     35454     35454     35455
     35454     35456     35454     35457     35457     35458     35457     35459
     35457     35460     35460     35461     35460     35462     35460     35463
     35463     35464     35463     35465     35463     35466     35466     35467
     35466     35468     35466     35469     35469     35470     35469     35471
     35469     35472     35472     35473     35472     35474     35472     35475
     35475     35476     35475     35477     35475     35478     35478     35479
     35478     35480     35478     35481     35481     35482     35481     35483
     35481     35484     35484     35485     35484     35486     35484     35487
     35487     35488     35487     35489     35487     35490     35490     35491
     35490     35492     35490     35493     35493     35494     35493     35495
     35493     35496     35497     35501     35497     35505     35497     35509
     35501     35502     35501     35503     35501     35504     35505     35506
     35505     35507     35505     35508     35509     35510     35509     35511
     35509     35512     35497     35498     35498     35499     35498     35500
     35498     35513     35513     35514     35513     35515     35513     35519
     35520     35521     35519     35516     35516     35520     35516     35517
     35516     35518     35521     35522     35521     35523     35521     35524
     35524     35525     35524     35532     35524     35526     35532     35533
     35532     35534     35532     35535     35526     35527     35527     35529
     35527     35528     35529     35530     35529     35531     35529     35541
     35541     35542     35541     35543     35541     35544     35544     35545
     35544     35546     35544     35547     35547     35548     35547     35549
     35547     35550     35550     35551     35550     35552     35550     35553
     35553     35554     35553     35555     35553     35556     35556     35557
     35556     35558     35556     35559     35559     35560     35559     35561
     35561     35562     35561     35563     35563     35564     35563     35565
     35563     35566     35566     35567     35566     35568     35566     35569
     35569     35570     35569     35571     35569     35572     35572     35573
     35572     35574     35572     35575     35575     35576     35575     35577
     35575     35578     35578     35579     35578     35580     35578     35581
     35581     35582     35581     35583     35581     35584     35584     35585
     35584     35586     35584     35587     35535     35536     35536     35538
     35536     35537     35538     35539     35538     35540     35538     35588
     35588     35589     35588     35590     35588     35591     35591     35592
     35591     35593     35591     35594     35594     35595     35594     35596
     35594     35597     35597     35598     35597     35599     35597     35600
     35600     35601     35600     35602     35600     35603     35603     35604
     35603     35605     35603     35606     35606     35607     35606     35608
     35606     35609     35609     35610     35609     35611     35609     35612
     35612     35613     35612     35614     35612     35615     35615     35616
     35615     35617     35615     35618     35618     35619     35618     35620
     35618     35621     35621     35622     35621     35623     35621     35624
     35624     35625     35624     35626     35624     35627     35627     35628
     35627     35629     35627     35630     35631     35632     35631     35633
     35631     35634     35631     35635     35635     35636     35635     35637
     35635     35638     35638     35639     35638     35640     35638     35645
     35645     35641     35641     35644     35641     35642     35641     35643
     35646     35647     35646     35648     35646     35649     35646     35644
     35649     35650     35649     35657     35649     35651     35657     35658
     35657     35659     35657     35660     35651     35652     35652     35654
     35652     35653     35654     35655     35654     35656     35654     35666
     35666     35667     35666     35668     35666     35669     35669     35670
     35669     35671     35669     35672     35672     35673     35672     35674
     35672     35675     35675     35676     35675     35677     35675     35678
     35678     35679     35678     35680     35678     35681     35681     35682
     35681     35683     35681     35684     35684     35685     35684     35686
     35686     35687     35686     35688     35688     35689     35688     35690
     35688     35691     35691     35692     35691     35693     35691     35694
     35694     35695     35694     35696     35694     35697     35697     35698
     35697     35699     35697     35700     35700     35701     35700     35702
     35700     35703     35703     35704     35703     35705     35703     35706
     35706     35707     35706     35708     35706     35709     35709     35710
     35709     35711     35709     35712     35660     35661     35661     35663
     35661     35662     35663     35664     35663     35665     35663     35713
     35713     35714     35713     35715     35713     35716     35716     35717
     35716     35718     35716     35719     35719     35720     35719     35721
     35719     35722     35722     35723     35722     35724     35722     35725
     35725     35726     35725     35727     35725     35728     35728     35729
     35728     35730     35728     35731     35731     35732     35731     35733
     35731     35734     35734     35735     35734     35736     35734     35737
     35737     35738     35737     35739     35737     35740     35740     35741
     35740     35742     35740     35743     35743     35744     35743     35745
     35743     35746     35746     35747     35746     35748     35746     35749
     35749     35750     35749     35751     35749     35752     35752     35753
     35752     35754     35752     35755     35756     35760     35756     35764
     35756     35768     35760     35761     35760     35762     35760     35763
     35764     35765     35764     35766     35764     35767     35768     35769
     35768     35770     35768     35771     35756     35757     35757     35758
     35757     35759     35757     35772     35772     35773     35772     35774
     35772     35778     35779     35780     35778     35775     35775     35779
     35775     35776     35775     35777     35780     35781     35780     35782
     35780     35783     35783     35784     35783     35791     35783     35785
     35791     35792     35791     35793     35791     35794     35785     35786
     35786     35788     35786     35787     35788     35789     35788     35790
     35788     35800     35800     35801     35800     35802     35800     35803
     35803     35804     35803     35805     35803     35806     35806     35807
     35806     35808     35806     35809     35809     35810     35809     35811
     35809     35812     35812     35813     35812     35814     35812     35815
     35815     35816     35815     35817     35815     35818     35818     35819
     35818     35820     35820     35821     35820     35822     35822     35823
     35822     35824     35822     35825     35825     35826     35825     35827
     35825     35828     35828     35829     35828     35830     35828     35831
     35831     35832     35831     35833     35831     35834     35834     35835
     35834     35836     35834     35837     35837     35838     35837     35839
     35837     35840     35840     35841     35840     35842     35840     35843
     35843     35844     35843     35845     35843     35846     35794     35795
     35795     35797     35795     35796     35797     35798     35797     35799
     35797     35847     35847     35848     35847     35849     35847     35850
     35850     35851     35850     35852     35850     35853     35853     35854
     35853     35855     35853     35856     35856     35857     35856     35858
     35856     35859     35859     35860     35859     35861     35859     35862
     35862     35863     35862     35864     35862     35865     35865     35866
     35865     35867     35865     35868     35868     35869     35868     35870
     35868     35871     35871     35872     35871     35873     35871     35874
     35874     35875     35874     35876     35874     35877     35877     35878
     35877     35879     35877     35880     35880     35881     35880     35882
     35880     35883     35883     35884     35883     35885     35883     35886
     35886     35887     35886     35888     35886     35889     35890     35891
     35890     35892     35890     35893     35890     35894     35894     35895
     35894     35896     35894     35897     35897     35898     35897     35899
     35897     35904     35904     35900     35900     35903     35900     35901
     35900     35902     35905     35906     35905     35907     35905     35908
     35905     35903     35908     35909     35908     35916     35908     35910
     35916     35917     35916     35918     35916     35919     35910     35911
     35911     35913     35911     35912     35913     35914     35913     35915
     35913     35925     35925     35926     35925     35927     35925     35928
     35928     35929     35928     35930     35928     35931     35931     35932
     35931     35933     35931     35934     35934     35935     35934     35936
     35934     35937     35937     35938     35937     35939     35937     35940
     35940     35941     35940     35942     35940     35943     35943     35944
     35943     35945     35945     35946     35945     35947     35947     35948
     35947     35949     35947     35950     35950     35951     35950     35952
     35950     35953     35953     35954     35953     35955     35953     35956
     35956     35957     35956     35958     35956     35959     35959     35960
     35959     35961     35959     35962     35962     35963     35962     35964
     35962     35965     35965     35966     35965     35967     35965     35968
     35968     35969     35968     35970     35968     35971     35919     35920
     35920     35922     35920     35921     35922     35923     35922     35924
     35922     35972     35972     35973     35972     35974     35972     35975
     35975     35976     35975     35977     35975     35978     35978     35979
     35978     35980     35978     35981     35981     35982     35981     35983
     35981     35984     35984     35985     35984     35986     35984     35987
     35987     35988     35987     35989     35987     35990     35990     35991
     35990     35992     35990     35993     35993     35994     35993     35995
     35993     35996     35996     35997     35996     35998     35996     35999
     35999     36000     35999     36001     35999     36002     36002     36003
     36002     36004     36002     36005     36005     36006     36005     36007
     36005     36008     36008     36009     36008     36010     36008     36011
     36011     36012     36011     36013     36011     36014     36015     36016
     36015     36017     36015     36018     36015     36019     36019     36020
     36019     36021     36019     36022     36022     36023     36022     36024
     36022     36029     36029     36025     36025     36028     36025     36026
     36025     36027     36030     36031     36030     36032     36030     36033
     36030     36028     36033     36034     36033     36041     36033     36035
     36041     36042     36041     36043     36041     36044     36035     36036
     36036     36038     36036     36037     36038     36039     36038     36040
     36038     36050     36050     36051     36050     36052     36050     36053
     36053     36054     36053     36055     36053     36056     36056     36057
     36056     36058     36056     36059     36059     36060     36059     36061
     36059     36062     36062     36063     36062     36064     36062     36065
     36065     36066     36065     36067     36065     36068     36068     36069
     36068     36070     36070     36071     36070     36072     36072     36073
     36072     36074     36072     36075     36075     36076     36075     36077
     36075     36078     36078     36079     36078     36080     36078     36081
     36081     36082     36081     36083     36081     36084     36084     36085
     36084     36086     36084     36087     36087     36088     36087     36089
     36087     36090     36090     36091     36090     36092     36090     36093
     36093     36094     36093     36095     36093     36096     36044     36045
     36045     36047     36045     36046     36047     36048     36047     36049
     36047     36097     36097     36098     36097     36099     36097     36100
     36100     36101     36100     36102     36100     36103     36103     36104
     36103     36105     36103     36106     36106     36107     36106     36108
     36106     36109     36109     36110     36109     36111     36109     36112
     36112     36113     36112     36114     36112     36115     36115     36116
     36115     36117     36115     36118     36118     36119     36118     36120
     36118     36121     36121     36122     36121     36123     36121     36124
     36124     36125     36124     36126     36124     36127     36127     36128
     36127     36129     36127     36130     36130     36131     36130     36132
     36130     36133     36133     36134     36133     36135     36133     36136
     36136     36137     36136     36138     36136     36139     36140     36141
     36140     36142     36140     36143     36140     36144     36144     36145
     36144     36146     36144     36147     36147     36148     36147     36149
     36147     36154     36154     36150     36150     36153     36150     36151
     36150     36152     36155     36156     36155     36157     36155     36158
     36155     36153     36158     36159     36158     36166     36158     36160
     36166     36167     36166     36168     36166     36169     36160     36161
     36161     36163     36161     36162     36163     36164     36163     36165
     36163     36175     36175     36176     36175     36177     36175     36178
     36178     36179     36178     36180     36178     36181     36181     36182
     36181     36183     36181     36184     36184     36185     36184     36186
     36184     36187     36187     36188     36187     36189     36187     36190
     36190     36191     36190     36192     36190     36193     36193     36194
     36193     36195     36195     36196     36195     36197     36197     36198
     36197     36199     36197     36200     36200     36201     36200     36202
     36200     36203     36203     36204     36203     36205     36203     36206
     36206     36207     36206     36208     36206     36209     36209     36210
     36209     36211     36209     36212     36212     36213     36212     36214
     36212     36215     36215     36216     36215     36217     36215     36218
     36218     36219     36218     36220     36218     36221     36169     36170
     36170     36172     36170     36171     36172     36173     36172     36174
     36172     36222     36222     36223     36222     36224     36222     36225
     36225     36226     36225     36227     36225     36228     36228     36229
     36228     36230     36228     36231     36231     36232     36231     36233
     36231     36234     36234     36235     36234     36236     36234     36237
     36237     36238     36237     36239     36237     36240     36240     36241
     36240     36242     36240     36243     36243     36244     36243     36245
     36243     36246     36246     36247     36246     36248     36246     36249
     36249     36250     36249     36251     36249     36252     36252     36253
     36252     36254     36252     36255     36255     36256     36255     36257
     36255     36258     36258     36259     36258     36260     36258     36261
     36261     36262     36261     36263     36261     36264     36265     36266
     36265     36267     36265     36268     36265     36269     36269     36270
     36269     36271     36269     36272     36272     36273     36272     36274
     36272     36279     36279     36275     36275     36278     36275     36276
     36275     36277     36280     36281     36280     36282     36280     36283
     36280     36278     36283     36284     36283     36291     36283     36285
     36291     36292     36291     36293     36291     36294     36285     36286
     36286     36288     36286     36287     36288     36289     36288     36290
     36288     36300     36300     36301     36300     36302     36300     36303
     36303     36304     36303     36305     36303     36306     36306     36307
     36306     36308     36306     36309     36309     36310     36309     36311
     36309     36312     36312     36313     36312     36314     36312     36315
     36315     36316     36315     36317     36315     36318     36318     36319
     36318     36320     36320     36321     36320     36322     36322     36323
     36322     36324     36322     36325     36325     36326     36325     36327
     36325     36328     36328     36329     36328     36330     36328     36331
     36331     36332     36331     36333     36331     36334     36334     36335
     36334     36336     36334     36337     36337     36338     36337     36339
     36337     36340     36340     36341     36340     36342     36340     36343
     36343     36344     36343     36345     36343     36346     36294     36295
     36295     36297     36295     36296     36297     36298     36297     36299
     36297     36347     36347     36348     36347     36349     36347     36350
     36350     36351     36350     36352     36350     36353     36353     36354
     36353     36355     36353     36356     36356     36357     36356     36358
     36356     36359     36359     36360     36359     36361     36359     36362
     36362     36363     36362     36364     36362     36365     36365     36366
     36365     36367     36365     36368     36368     36369     36368     36370
     36368     36371     36371     36372     36371     36373     36371     36374
     36374     36375     36374     36376     36374     36377     36377     36378
     36377     36379     36377     36380     36380     36381     36380     36382
     36380     36383     36383     36384     36383     36385     36383     36386
     36386     36387     36386     36388     36386     36389     36390     36391
     36390     36392     36390     36393     36390     36394     36394     36395
     36394     36396     36394     36397     36397     36398     36397     36399
     36397     36404     36404     36400     36400     36403     36400     36401
     36400     36402     36405     36406     36405     36407     36405     36408
     36405     36403     36408     36409     36408     36416     36408     36410
     36416     36417     36416     36418     36416     36419     36410     36411
     36411     36413     36411     36412     36413     36414     36413     36415
     36413     36425     36425     36426     36425     36427     36425     36428
     36428     36429     36428     36430     36428     36431     36431     36432
     36431     36433     36431     36434     36434     36435     36434     36436
     36434     36437     36437     36438     36437     36439     36437     36440
     36440     36441     36440     36442     36440     36443     36443     36444
     36443     36445     36445     36446     36445     36447     36447     36448
     36447     36449     36447     36450     36450     36451     36450     36452
     36450     36453     36453     36454     36453     36455     36453     36456
     36456     36457     36456     36458     36456     36459     36459     36460
     36459     36461     36459     36462     36462     36463     36462     36464
     36462     36465     36465     36466     36465     36467     36465     36468
     36468     36469     36468     36470     36468     36471     36419     36420
     36420     36422     36420     36421     36422     36423     36422     36424
     36422     36472     36472     36473     36472     36474     36472     36475
     36475     36476     36475     36477     36475     36478     36478     36479
     36478     36480     36478     36481     36481     36482     36481     36483
     36481     36484     36484     36485     36484     36486     36484     36487
     36487     36488     36487     36489     36487     36490     36490     36491
     36490     36492     36490     36493     36493     36494     36493     36495
     36493     36496     36496     36497     36496     36498     36496     36499
     36499     36500     36499     36501     36499     36502     36502     36503
     36502     36504     36502     36505     36505     36506     36505     36507
     36505     36508     36508     36509     36508     36510     36508     36511
     36511     36512     36511     36513     36511     36514     36515     36519
     36515     36523     36515     36527     36519     36520     36519     36521
     36519     36522     36523     36524     36523     36525     36523     36526
     36527     36528     36527     36529     36527     36530     36515     36516
     36516     36517     36516     36518     36516     36531     36531     36532
     36531     36533     36531     36537     36538     36539     36537     36534
     36534     36538     36534     36535     36534     36536     36539     36540
     36539     36541     36539     36542     36542     36543     36542     36550
     36542     36544     36550     36551     36550     36552     36550     36553
     36544     36545     36545     36547     36545     36546     36547     36548
     36547     36549     36547     36559     36559     36560     36559     36561
     36559     36562     36562     36563     36562     36564     36562     36565
     36565     36566     36565     36567     36565     36568     36568     36569
     36568     36570     36568     36571     36571     36572     36571     36573
     36571     36574     36574     36575     36574     36576     36574     36577
     36577     36578     36577     36579     36579     36580     36579     36581
     36581     36582     36581     36583     36581     36584     36584     36585
     36584     36586     36584     36587     36587     36588     36587     36589
     36587     36590     36590     36591     36590     36592     36590     36593
     36593     36594     36593     36595     36593     36596     36596     36597
     36596     36598     36596     36599     36599     36600     36599     36601
     36599     36602     36602     36603     36602     36604     36602     36605
     36553     36554     36554     36556     36554     36555     36556     36557
     36556     36558     36556     36606     36606     36607     36606     36608
     36606     36609     36609     36610     36609     36611     36609     36612
     36612     36613     36612     36614     36612     36615     36615     36616
     36615     36617     36615     36618     36618     36619     36618     36620
     36618     36621     36621     36622     36621     36623     36621     36624
     36624     36625     36624     36626     36624     36627     36627     36628
     36627     36629     36627     36630     36630     36631     36630     36632
     36630     36633     36633     36634     36633     36635     36633     36636
     36636     36637     36636     36638     36636     36639     36639     36640
     36639     36641     36639     36642     36642     36643     36642     36644
     36642     36645     36645     36646     36645     36647     36645     36648
     36649     36650     36649     36651     36649     36652     36649     36653
     36653     36654     36653     36655     36653     36656     36656     36657
     36656     36658     36656     36663     36663     36659     36659     36662
     36659     36660     36659     36661     36664     36665     36664     36666
     36664     36667     36664     36662     36667     36668     36667     36675
     36667     36669     36675     36676     36675     36677     36675     36678
     36669     36670     36670     36672     36670     36671     36672     36673
     36672     36674     36672     36684     36684     36685     36684     36686
     36684     36687     36687     36688     36687     36689     36687     36690
     36690     36691     36690     36692     36690     36693     36693     36694
     36693     36695     36693     36696     36696     36697     36696     36698
     36696     36699     36699     36700     36699     36701     36699     36702
     36702     36703     36702     36704     36704     36705     36704     36706
     36706     36707     36706     36708     36706     36709     36709     36710
     36709     36711     36709     36712     36712     36713     36712     36714
     36712     36715     36715     36716     36715     36717     36715     36718
     36718     36719     36718     36720     36718     36721     36721     36722
     36721     36723     36721     36724     36724     36725     36724     36726
     36724     36727     36727     36728     36727     36729     36727     36730
     36678     36679     36679     36681     36679     36680     36681     36682
     36681     36683     36681     36731     36731     36732     36731     36733
     36731     36734     36734     36735     36734     36736     36734     36737
     36737     36738     36737     36739     36737     36740     36740     36741
     36740     36742     36740     36743     36743     36744     36743     36745
     36743     36746     36746     36747     36746     36748     36746     36749
     36749     36750     36749     36751     36749     36752     36752     36753
     36752     36754     36752     36755     36755     36756     36755     36757
     36755     36758     36758     36759     36758     36760     36758     36761
     36761     36762     36761     36763     36761     36764     36764     36765
     36764     36766     36764     36767     36767     36768     36767     36769
     36767     36770     36770     36771     36770     36772     36770     36773
     36774     36775     36774     36776     36774     36777     36774     36778
     36778     36779     36778     36780     36778     36781     36781     36782
     36781     36783     36781     36788     36788     36784     36784     36787
     36784     36785     36784     36786     36789     36790     36789     36791
     36789     36792     36789     36787     36792     36793     36792     36800
     36792     36794     36800     36801     36800     36802     36800     36803
     36794     36795     36795     36797     36795     36796     36797     36798
     36797     36799     36797     36809     36809     36810     36809     36811
     36809     36812     36812     36813     36812     36814     36812     36815
     36815     36816     36815     36817     36815     36818     36818     36819
     36818     36820     36818     36821     36821     36822     36821     36823
     36821     36824     36824     36825     36824     36826     36824     36827
     36827     36828     36827     36829     36829     36830     36829     36831
     36831     36832     36831     36833     36831     36834     36834     36835
     36834     36836     36834     36837     36837     36838     36837     36839
     36837     36840     36840     36841     36840     36842     36840     36843
     36843     36844     36843     36845     36843     36846     36846     36847
     36846     36848     36846     36849     36849     36850     36849     36851
     36849     36852     36852     36853     36852     36854     36852     36855
     36803     36804     36804     36806     36804     36805     36806     36807
     36806     36808     36806     36856     36856     36857     36856     36858
     36856     36859     36859     36860     36859     36861     36859     36862
     36862     36863     36862     36864     36862     36865     36865     36866
     36865     36867     36865     36868     36868     36869     36868     36870
     36868     36871     36871     36872     36871     36873     36871     36874
     36874     36875     36874     36876     36874     36877     36877     36878
     36877     36879     36877     36880     36880     36881     36880     36882
     36880     36883     36883     36884     36883     36885     36883     36886
     36886     36887     36886     36888     36886     36889     36889     36890
     36889     36891     36889     36892     36892     36893     36892     36894
     36892     36895     36895     36896     36895     36897     36895     36898
     36899     36900     36899     36901     36899     36902     36899     36903
     36903     36904     36903     36905     36903     36906     36906     36907
     36906     36908     36906     36913     36913     36909     36909     36912
     36909     36910     36909     36911     36914     36915     36914     36916
     36914     36917     36914     36912     36917     36918     36917     36925
     36917     36919     36925     36926     36925     36927     36925     36928
     36919     36920     36920     36922     36920     36921     36922     36923
     36922     36924     36922     36934     36934     36935     36934     36936
     36934     36937     36937     36938     36937     36939     36937     36940
     36940     36941     36940     36942     36940     36943     36943     36944
     36943     36945     36943     36946     36946     36947     36946     36948
     36946     36949     36949     36950     36949     36951     36949     36952
     36952     36953     36952     36954     36954     36955     36954     36956
     36956     36957     36956     36958     36956     36959     36959     36960
     36959     36961     36959     36962     36962     36963     36962     36964
     36962     36965     36965     36966     36965     36967     36965     36968
     36968     36969     36968     36970     36968     36971     36971     36972
     36971     36973     36971     36974     36974     36975     36974     36976
     36974     36977     36977     36978     36977     36979     36977     36980
     36928     36929     36929     36931     36929     36930     36931     36932
     36931     36933     36931     36981     36981     36982     36981     36983
     36981     36984     36984     36985     36984     36986     36984     36987
     36987     36988     36987     36989     36987     36990     36990     36991
     36990     36992     36990     36993     36993     36994     36993     36995
     36993     36996     36996     36997     36996     36998     36996     36999
     36999     37000     36999     37001     36999     37002     37002     37003
     37002     37004     37002     37005     37005     37006     37005     37007
     37005     37008     37008     37009     37008     37010     37008     37011
     37011     37012     37011     37013     37011     37014     37014     37015
     37014     37016     37014     37017     37017     37018     37017     37019
     37017     37020     37020     37021     37020     37022     37020     37023
     37024     37025     37024     37026     37024     37027     37024     37028
     37028     37029     37028     37030     37028     37031     37031     37032
     37031     37033     37031     37038     37038     37034     37034     37037
     37034     37035     37034     37036     37039     37040     37039     37041
     37039     37042     37039     37037     37042     37043     37042     37050
     37042     37044     37050     37051     37050     37052     37050     37053
     37044     37045     37045     37047     37045     37046     37047     37048
     37047     37049     37047     37059     37059     37060     37059     37061
     37059     37062     37062     37063     37062     37064     37062     37065
     37065     37066     37065     37067     37065     37068     37068     37069
     37068     37070     37068     37071     37071     37072     37071     37073
     37071     37074     37074     37075     37074     37076     37074     37077
     37077     37078     37077     37079     37079     37080     37079     37081
     37081     37082     37081     37083     37081     37084     37084     37085
     37084     37086     37084     37087     37087     37088     37087     37089
     37087     37090     37090     37091     37090     37092     37090     37093
     37093     37094     37093     37095     37093     37096     37096     37097
     37096     37098     37096     37099     37099     37100     37099     37101
     37099     37102     37102     37103     37102     37104     37102     37105
     37053     37054     37054     37056     37054     37055     37056     37057
     37056     37058     37056     37106     37106     37107     37106     37108
     37106     37109     37109     37110     37109     37111     37109     37112
     37112     37113     37112     37114     37112     37115     37115     37116
     37115     37117     37115     37118     37118     37119     37118     37120
     37118     37121     37121     37122     37121     37123     37121     37124
     37124     37125     37124     37126     37124     37127     37127     37128
     37127     37129     37127     37130     37130     37131     37130     37132
     37130     37133     37133     37134     37133     37135     37133     37136
     37136     37137     37136     37138     37136     37139     37139     37140
     37139     37141     37139     37142     37142     37143     37142     37144
     37142     37145     37145     37146     37145     37147     37145     37148
     37149     37153     37149     37157     37149     37161     37153     37154
     37153     37155     37153     37156     37157     37158     37157     37159
     37157     37160     37161     37162     37161     37163     37161     37164
     37149     37150     37150     37151     37150     37152     37150     37165
     37165     37166     37165     37167     37165     37171     37172     37173
     37171     37168     37168     37172     37168     37169     37168     37170
     37173     37174     37173     37175     37173     37176     37176     37177
     37176     37184     37176     37178     37184     37185     37184     37186
     37184     37187     37178     37179     37179     37181     37179     37180
     37181     37182     37181     37183     37181     37193     37193     37194
     37193     37195     37193     37196     37196     37197     37196     37198
     37196     37199     37199     37200     37199     37201     37199     37202
     37202     37203     37202     37204     37202     37205     37205     37206
     37205     37207     37205     37208     37208     37209     37208     37210
     37208     37211     37211     37212     37211     37213     37213     37214
     37213     37215     37215     37216     37215     37217     37215     37218
     37218     37219     37218     37220     37218     37221     37221     37222
     37221     37223     37221     37224     37224     37225     37224     37226
     37224     37227     37227     37228     37227     37229     37227     37230
     37230     37231     37230     37232     37230     37233     37233     37234
     37233     37235     37233     37236     37236     37237     37236     37238
     37236     37239     37187     37188     37188     37190     37188     37189
     37190     37191     37190     37192     37190     37240     37240     37241
     37240     37242     37240     37243     37243     37244     37243     37245
     37243     37246     37246     37247     37246     37248     37246     37249
     37249     37250     37249     37251     37249     37252     37252     37253
     37252     37254     37252     37255     37255     37256     37255     37257
     37255     37258     37258     37259     37258     37260     37258     37261
     37261     37262     37261     37263     37261     37264     37264     37265
     37264     37266     37264     37267     37267     37268     37267     37269
     37267     37270     37270     37271     37270     37272     37270     37273
     37273     37274     37273     37275     37273     37276     37276     37277
     37276     37278     37276     37279     37279     37280     37279     37281
     37279     37282     37283     37284     37283     37285     37283     37286
     37283     37287     37287     37288     37287     37289     37287     37290
     37290     37291     37290     37292     37290     37297     37297     37293
     37293     37296     37293     37294     37293     37295     37298     37299
     37298     37300     37298     37301     37298     37296     37301     37302
     37301     37309     37301     37303     37309     37310     37309     37311
     37309     37312     37303     37304     37304     37306     37304     37305
     37306     37307     37306     37308     37306     37318     37318     37319
     37318     37320     37318     37321     37321     37322     37321     37323
     37321     37324     37324     37325     37324     37326     37324     37327
     37327     37328     37327     37329     37327     37330     37330     37331
     37330     37332     37330     37333     37333     37334     37333     37335
     37333     37336     37336     37337     37336     37338     37338     37339
     37338     37340     37340     37341     37340     37342     37340     37343
     37343     37344     37343     37345     37343     37346     37346     37347
     37346     37348     37346     37349     37349     37350     37349     37351
     37349     37352     37352     37353     37352     37354     37352     37355
     37355     37356     37355     37357     37355     37358     37358     37359
     37358     37360     37358     37361     37361     37362     37361     37363
     37361     37364     37312     37313     37313     37315     37313     37314
     37315     37316     37315     37317     37315     37365     37365     37366
     37365     37367     37365     37368     37368     37369     37368     37370
     37368     37371     37371     37372     37371     37373     37371     37374
     37374     37375     37374     37376     37374     37377     37377     37378
     37377     37379     37377     37380     37380     37381     37380     37382
     37380     37383     37383     37384     37383     37385     37383     37386
     37386     37387     37386     37388     37386     37389     37389     37390
     37389     37391     37389     37392     37392     37393     37392     37394
     37392     37395     37395     37396     37395     37397     37395     37398
     37398     37399     37398     37400     37398     37401     37401     37402
     37401     37403     37401     37404     37404     37405     37404     37406
     37404     37407     37408     37412     37408     37416     37408     37420
     37412     37413     37412     37414     37412     37415     37416     37417
     37416     37418     37416     37419     37420     37421     37420     37422
     37420     37423     37408     37409     37409     37410     37409     37411
     37409     37424     37424     37425     37424     37426     37424     37430
     37431     37432     37430     37427     37427     37431     37427     37428
     37427     37429     37432     37433     37432     37434     37432     37435
     37435     37436     37435     37443     37435     37437     37443     37444
     37443     37445     37443     37446     37437     37438     37438     37440
     37438     37439     37440     37441     37440     37442     37440     37452
     37452     37453     37452     37454     37452     37455     37455     37456
     37455     37457     37455     37458     37458     37459     37458     37460
     37458     37461     37461     37462     37461     37463     37461     37464
     37464     37465     37464     37466     37464     37467     37467     37468
     37467     37469     37467     37470     37470     37471     37470     37472
     37472     37473     37472     37474     37474     37475     37474     37476
     37474     37477     37477     37478     37477     37479     37477     37480
     37480     37481     37480     37482     37480     37483     37483     37484
     37483     37485     37483     37486     37486     37487     37486     37488
     37486     37489     37489     37490     37489     37491     37489     37492
     37492     37493     37492     37494     37492     37495     37495     37496
     37495     37497     37495     37498     37446     37447     37447     37449
     37447     37448     37449     37450     37449     37451     37449     37499
     37499     37500     37499     37501     37499     37502     37502     37503
     37502     37504     37502     37505     37505     37506     37505     37507
     37505     37508     37508     37509     37508     37510     37508     37511
     37511     37512     37511     37513     37511     37514     37514     37515
     37514     37516     37514     37517     37517     37518     37517     37519
     37517     37520     37520     37521     37520     37522     37520     37523
     37523     37524     37523     37525     37523     37526     37526     37527
     37526     37528     37526     37529     37529     37530     37529     37531
     37529     37532     37532     37533     37532     37534     37532     37535
     37535     37536     37535     37537     37535     37538     37538     37539
     37538     37540     37538     37541     37542     37546     37542     37550
     37542     37554     37546     37547     37546     37548     37546     37549
     37550     37551     37550     37552     37550     37553     37554     37555
     37554     37556     37554     37557     37542     37543     37543     37544
     37543     37545     37543     37558     37558     37559     37558     37560
     37558     37564     37565     37566     37564     37561     37561     37565
     37561     37562     37561     37563     37566     37567     37566     37568
     37566     37569     37569     37570     37569     37577     37569     37571
     37577     37578     37577     37579     37577     37580     37571     37572
     37572     37574     37572     37573     37574     37575     37574     37576
     37574     37586     37586     37587     37586     37588     37586     37589
     37589     37590     37589     37591     37589     37592     37592     37593
     37592     37594     37592     37595     37595     37596     37595     37597
     37595     37598     37598     37599     37598     37600     37598     37601
     37601     37602     37601     37603     37601     37604     37604     37605
     37604     37606     37606     37607     37606     37608     37608     37609
     37608     37610     37608     37611     37611     37612     37611     37613
     37611     37614     37614     37615     37614     37616     37614     37617
     37617     37618     37617     37619     37617     37620     37620     37621
     37620     37622     37620     37623     37623     37624     37623     37625
     37623     37626     37626     37627     37626     37628     37626     37629
     37629     37630     37629     37631     37629     37632     37580     37581
     37581     37583     37581     37582     37583     37584     37583     37585
     37583     37633     37633     37634     37633     37635     37633     37636
     37636     37637     37636     37638     37636     37639     37639     37640
     37639     37641     37639     37642     37642     37643     37642     37644
     37642     37645     37645     37646     37645     37647     37645     37648
     37648     37649     37648     37650     37648     37651     37651     37652
     37651     37653     37651     37654     37654     37655     37654     37656
     37654     37657     37657     37658     37657     37659     37657     37660
     37660     37661     37660     37662     37660     37663     37663     37664
     37663     37665     37663     37666     37666     37667     37666     37668
     37666     37669     37669     37670     37669     37671     37669     37672
     37672     37673     37672     37674     37672     37675     37676     37680
     37676     37684     37676     37688     37680     37681     37680     37682
     37680     37683     37684     37685     37684     37686     37684     37687
     37688     37689     37688     37690     37688     37691     37676     37677
     37677     37678     37677     37679     37677     37692     37692     37693
     37692     37694     37692     37698     37699     37700     37698     37695
     37695     37699     37695     37696     37695     37697     37700     37701
     37700     37702     37700     37703     37703     37704     37703     37711
     37703     37705     37711     37712     37711     37713     37711     37714
     37705     37706     37706     37708     37706     37707     37708     37709
     37708     37710     37708     37720     37720     37721     37720     37722
     37720     37723     37723     37724     37723     37725     37723     37726
     37726     37727     37726     37728     37726     37729     37729     37730
     37729     37731     37729     37732     37732     37733     37732     37734
     37732     37735     37735     37736     37735     37737     37735     37738
     37738     37739     37738     37740     37740     37741     37740     37742
     37742     37743     37742     37744     37742     37745     37745     37746
     37745     37747     37745     37748     37748     37749     37748     37750
     37748     37751     37751     37752     37751     37753     37751     37754
     37754     37755     37754     37756     37754     37757     37757     37758
     37757     37759     37757     37760     37760     37761     37760     37762
     37760     37763     37763     37764     37763     37765     37763     37766
     37714     37715     37715     37717     37715     37716     37717     37718
     37717     37719     37717     37767     37767     37768     37767     37769
     37767     37770     37770     37771     37770     37772     37770     37773
     37773     37774     37773     37775     37773     37776     37776     37777
     37776     37778     37776     37779     37779     37780     37779     37781
     37779     37782     37782     37783     37782     37784     37782     37785
     37785     37786     37785     37787     37785     37788     37788     37789
     37788     37790     37788     37791     37791     37792     37791     37793
     37791     37794     37794     37795     37794     37796     37794     37797
     37797     37798     37797     37799     37797     37800     37800     37801
     37800     37802     37800     37803     37803     37804     37803     37805
     37803     37806     37806     37807     37806     37808     37806     37809
     37810     37814     37810     37818     37810     37822     37814     37815
     37814     37816     37814     37817     37818     37819     37818     37820
     37818     37821     37822     37823     37822     37824     37822     37825
     37810     37811     37811     37812     37811     37813     37811     37826
     37826     37827     37826     37828     37826     37832     37833     37834
     37832     37829     37829     37833     37829     37830     37829     37831
     37834     37835     37834     37836     37834     37837     37837     37838
     37837     37845     37837     37839     37845     37846     37845     37847
     37845     37848     37839     37840     37840     37842     37840     37841
     37842     37843     37842     37844     37842     37854     37854     37855
     37854     37856     37854     37857     37857     37858     37857     37859
     37857     37860     37860     37861     37860     37862     37860     37863
     37863     37864     37863     37865     37863     37866     37866     37867
     37866     37868     37866     37869     37869     37870     37869     37871
     37869     37872     37872     37873     37872     37874     37874     37875
     37874     37876     37876     37877     37876     37878     37876     37879
     37879     37880     37879     37881     37879     37882     37882     37883
     37882     37884     37882     37885     37885     37886     37885     37887
     37885     37888     37888     37889     37888     37890     37888     37891
     37891     37892     37891     37893     37891     37894     37894     37895
     37894     37896     37894     37897     37897     37898     37897     37899
     37897     37900     37848     37849     37849     37851     37849     37850
     37851     37852     37851     37853     37851     37901     37901     37902
     37901     37903     37901     37904     37904     37905     37904     37906
     37904     37907     37907     37908     37907     37909     37907     37910
     37910     37911     37910     37912     37910     37913     37913     37914
     37913     37915     37913     37916     37916     37917     37916     37918
     37916     37919     37919     37920     37919     37921     37919     37922
     37922     37923     37922     37924     37922     37925     37925     37926
     37925     37927     37925     37928     37928     37929     37928     37930
     37928     37931     37931     37932     37931     37933     37931     37934
     37934     37935     37934     37936     37934     37937     37937     37938
     37937     37939     37937     37940     37940     37941     37940     37942
     37940     37943     37944     37948     37944     37952     37944     37956
     37948     37949     37948     37950     37948     37951     37952     37953
     37952     37954     37952     37955     37956     37957     37956     37958
     37956     37959     37944     37945     37945     37946     37945     37947
     37945     37960     37960     37961     37960     37962     37960     37966
     37967     37968     37966     37963     37963     37967     37963     37964
     37963     37965     37968     37969     37968     37970     37968     37971
     37971     37972     37971     37979     37971     37973     37979     37980
     37979     37981     37979     37982     37973     37974     37974     37976
     37974     37975     37976     37977     37976     37978     37976     37988
     37988     37989     37988     37990     37988     37991     37991     37992
     37991     37993     37991     37994     37994     37995     37994     37996
     37994     37997     37997     37998     37997     37999     37997     38000
     38000     38001     38000     38002     38000     38003     38003     38004
     38003     38005     38003     38006     38006     38007     38006     38008
     38008     38009     38008     38010     38010     38011     38010     38012
     38010     38013     38013     38014     38013     38015     38013     38016
     38016     38017     38016     38018     38016     38019     38019     38020
     38019     38021     38019     38022     38022     38023     38022     38024
     38022     38025     38025     38026     38025     38027     38025     38028
     38028     38029     38028     38030     38028     38031     38031     38032
     38031     38033     38031     38034     37982     37983     37983     37985
     37983     37984     37985     37986     37985     37987     37985     38035
     38035     38036     38035     38037     38035     38038     38038     38039
     38038     38040     38038     38041     38041     38042     38041     38043
     38041     38044     38044     38045     38044     38046     38044     38047
     38047     38048     38047     38049     38047     38050     38050     38051
     38050     38052     38050     38053     38053     38054     38053     38055
     38053     38056     38056     38057     38056     38058     38056     38059
     38059     38060     38059     38061     38059     38062     38062     38063
     38062     38064     38062     38065     38065     38066     38065     38067
     38065     38068     38068     38069     38068     38070     38068     38071
     38071     38072     38071     38073     38071     38074     38074     38075
     38074     38076     38074     38077     38078     38079     38078     38080
     38078     38081     38078     38082     38082     38083     38082     38084
     38082     38085     38085     38086     38085     38087     38085     38092
     38092     38088     38088     38091     38088     38089     38088     38090
     38093     38094     38093     38095     38093     38096     38093     38091
     38096     38097     38096     38104     38096     38098     38104     38105
     38104     38106     38104     38107     38098     38099     38099     38101
     38099     38100     38101     38102     38101     38103     38101     38113
     38113     38114     38113     38115     38113     38116     38116     38117
     38116     38118     38116     38119     38119     38120     38119     38121
     38119     38122     38122     38123     38122     38124     38122     38125
     38125     38126     38125     38127     38125     38128     38128     38129
     38128     38130     38128     38131     38131     38132     38131     38133
     38133     38134     38133     38135     38135     38136     38135     38137
     38135     38138     38138     38139     38138     38140     38138     38141
     38141     38142     38141     38143     38141     38144     38144     38145
     38144     38146     38144     38147     38147     38148     38147     38149
     38147     38150     38150     38151     38150     38152     38150     38153
     38153     38154     38153     38155     38153     38156     38156     38157
     38156     38158     38156     38159     38107     38108     38108     38110
     38108     38109     38110     38111     38110     38112     38110     38160
     38160     38161     38160     38162     38160     38163     38163     38164
     38163     38165     38163     38166     38166     38167     38166     38168
     38166     38169     38169     38170     38169     38171     38169     38172
     38172     38173     38172     38174     38172     38175     38175     38176
     38175     38177     38175     38178     38178     38179     38178     38180
     38178     38181     38181     38182     38181     38183     38181     38184
     38184     38185     38184     38186     38184     38187     38187     38188
     38187     38189     38187     38190     38190     38191     38190     38192
     38190     38193     38193     38194     38193     38195     38193     38196
     38196     38197     38196     38198     38196     38199     38199     38200
     38199     38201     38199     38202     38203     38204     38203     38205
     38203     38206     38203     38207     38207     38208     38207     38209
     38207     38210     38210     38211     38210     38212     38210     38217
     38217     38213     38213     38216     38213     38214     38213     38215
     38218     38219     38218     38220     38218     38221     38218     38216
     38221     38222     38221     38229     38221     38223     38229     38230
     38229     38231     38229     38232     38223     38224     38224     38226
     38224     38225     38226     38227     38226     38228     38226     38238
     38238     38239     38238     38240     38238     38241     38241     38242
     38241     38243     38241     38244     38244     38245     38244     38246
     38244     38247     38247     38248     38247     38249     38247     38250
     38250     38251     38250     38252     38250     38253     38253     38254
     38253     38255     38253     38256     38256     38257     38256     38258
     38258     38259     38258     38260     38260     38261     38260     38262
     38260     38263     38263     38264     38263     38265     38263     38266
     38266     38267     38266     38268     38266     38269     38269     38270
     38269     38271     38269     38272     38272     38273     38272     38274
     38272     38275     38275     38276     38275     38277     38275     38278
     38278     38279     38278     38280     38278     38281     38281     38282
     38281     38283     38281     38284     38232     38233     38233     38235
     38233     38234     38235     38236     38235     38237     38235     38285
     38285     38286     38285     38287     38285     38288     38288     38289
     38288     38290     38288     38291     38291     38292     38291     38293
     38291     38294     38294     38295     38294     38296     38294     38297
     38297     38298     38297     38299     38297     38300     38300     38301
     38300     38302     38300     38303     38303     38304     38303     38305
     38303     38306     38306     38307     38306     38308     38306     38309
     38309     38310     38309     38311     38309     38312     38312     38313
     38312     38314     38312     38315     38315     38316     38315     38317
     38315     38318     38318     38319     38318     38320     38318     38321
     38321     38322     38321     38323     38321     38324     38324     38325
     38324     38326     38324     38327     38328     38332     38328     38336
     38328     38340     38332     38333     38332     38334     38332     38335
     38336     38337     38336     38338     38336     38339     38340     38341
     38340     38342     38340     38343     38328     38329     38329     38330
     38329     38331     38329     38344     38344     38345     38344     38346
     38344     38350     38351     38352     38350     38347     38347     38351
     38347     38348     38347     38349     38352     38353     38352     38354
     38352     38355     38355     38356     38355     38363     38355     38357
     38363     38364     38363     38365     38363     38366     38357     38358
     38358     38360     38358     38359     38360     38361     38360     38362
     38360     38372     38372     38373     38372     38374     38372     38375
     38375     38376     38375     38377     38375     38378     38378     38379
     38378     38380     38378     38381     38381     38382     38381     38383
     38381     38384     38384     38385     38384     38386     38384     38387
     38387     38388     38387     38389     38387     38390     38390     38391
     38390     38392     38392     38393     38392     38394     38394     38395
     38394     38396     38394     38397     38397     38398     38397     38399
     38397     38400     38400     38401     38400     38402     38400     38403
     38403     38404     38403     38405     38403     38406     38406     38407
     38406     38408     38406     38409     38409     38410     38409     38411
     38409     38412     38412     38413     38412     38414     38412     38415
     38415     38416     38415     38417     38415     38418     38366     38367
     38367     38369     38367     38368     38369     38370     38369     38371
     38369     38419     38419     38420     38419     38421     38419     38422
     38422     38423     38422     38424     38422     38425     38425     38426
     38425     38427     38425     38428     38428     38429     38428     38430
     38428     38431     38431     38432     38431     38433     38431     38434
     38434     38435     38434     38436     38434     38437     38437     38438
     38437     38439     38437     38440     38440     38441     38440     38442
     38440     38443     38443     38444     38443     38445     38443     38446
     38446     38447     38446     38448     38446     38449     38449     38450
     38449     38451     38449     38452     38452     38453     38452     38454
     38452     38455     38455     38456     38455     38457     38455     38458
     38458     38459     38458     38460     38458     38461     38462     38466
     38462     38470     38462     38474     38466     38467     38466     38468
     38466     38469     38470     38471     38470     38472     38470     38473
     38474     38475     38474     38476     38474     38477     38462     38463
     38463     38464     38463     38465     38463     38478     38478     38479
     38478     38480     38478     38484     38485     38486     38484     38481
     38481     38485     38481     38482     38481     38483     38486     38487
     38486     38488     38486     38489     38489     38490     38489     38497
     38489     38491     38497     38498     38497     38499     38497     38500
     38491     38492     38492     38494     38492     38493     38494     38495
     38494     38496     38494     38506     38506     38507     38506     38508
     38506     38509     38509     38510     38509     38511     38509     38512
     38512     38513     38512     38514     38512     38515     38515     38516
     38515     38517     38515     38518     38518     38519     38518     38520
     38518     38521     38521     38522     38521     38523     38521     38524
     38524     38525     38524     38526     38526     38527     38526     38528
     38528     38529     38528     38530     38528     38531     38531     38532
     38531     38533     38531     38534     38534     38535     38534     38536
     38534     38537     38537     38538     38537     38539     38537     38540
     38540     38541     38540     38542     38540     38543     38543     38544
     38543     38545     38543     38546     38546     38547     38546     38548
     38546     38549     38549     38550     38549     38551     38549     38552
     38500     38501     38501     38503     38501     38502     38503     38504
     38503     38505     38503     38553     38553     38554     38553     38555
     38553     38556     38556     38557     38556     38558     38556     38559
     38559     38560     38559     38561     38559     38562     38562     38563
     38562     38564     38562     38565     38565     38566     38565     38567
     38565     38568     38568     38569     38568     38570     38568     38571
     38571     38572     38571     38573     38571     38574     38574     38575
     38574     38576     38574     38577     38577     38578     38577     38579
     38577     38580     38580     38581     38580     38582     38580     38583
     38583     38584     38583     38585     38583     38586     38586     38587
     38586     38588     38586     38589     38589     38590     38589     38591
     38589     38592     38592     38593     38592     38594     38592     38595
     38596     38600     38596     38604     38596     38608     38600     38601
     38600     38602     38600     38603     38604     38605     38604     38606
     38604     38607     38608     38609     38608     38610     38608     38611
     38596     38597     38597     38598     38597     38599     38597     38612
     38612     38613     38612     38614     38612     38618     38619     38620
     38618     38615     38615     38619     38615     38616     38615     38617
     38620     38621     38620     38622     38620     38623     38623     38624
     38623     38631     38623     38625     38631     38632     38631     38633
     38631     38634     38625     38626     38626     38628     38626     38627
     38628     38629     38628     38630     38628     38640     38640     38641
     38640     38642     38640     38643     38643     38644     38643     38645
     38643     38646     38646     38647     38646     38648     38646     38649
     38649     38650     38649     38651     38649     38652     38652     38653
     38652     38654     38652     38655     38655     38656     38655     38657
     38655     38658     38658     38659     38658     38660     38660     38661
     38660     38662     38662     38663     38662     38664     38662     38665
     38665     38666     38665     38667     38665     38668     38668     38669
     38668     38670     38668     38671     38671     38672     38671     38673
     38671     38674     38674     38675     38674     38676     38674     38677
     38677     38678     38677     38679     38677     38680     38680     38681
     38680     38682     38680     38683     38683     38684     38683     38685
     38683     38686     38634     38635     38635     38637     38635     38636
     38637     38638     38637     38639     38637     38687     38687     38688
     38687     38689     38687     38690     38690     38691     38690     38692
     38690     38693     38693     38694     38693     38695     38693     38696
     38696     38697     38696     38698     38696     38699     38699     38700
     38699     38701     38699     38702     38702     38703     38702     38704
     38702     38705     38705     38706     38705     38707     38705     38708
     38708     38709     38708     38710     38708     38711     38711     38712
     38711     38713     38711     38714     38714     38715     38714     38716
     38714     38717     38717     38718     38717     38719     38717     38720
     38720     38721     38720     38722     38720     38723     38723     38724
     38723     38725     38723     38726     38726     38727     38726     38728
     38726     38729     38730     38734     38730     38738     38730     38742
     38734     38735     38734     38736     38734     38737     38738     38739
     38738     38740     38738     38741     38742     38743     38742     38744
     38742     38745     38730     38731     38731     38732     38731     38733
     38731     38746     38746     38747     38746     38748     38746     38752
     38753     38754     38752     38749     38749     38753     38749     38750
     38749     38751     38754     38755     38754     38756     38754     38757
     38757     38758     38757     38765     38757     38759     38765     38766
     38765     38767     38765     38768     38759     38760     38760     38762
     38760     38761     38762     38763     38762     38764     38762     38774
     38774     38775     38774     38776     38774     38777     38777     38778
     38777     38779     38777     38780     38780     38781     38780     38782
     38780     38783     38783     38784     38783     38785     38783     38786
     38786     38787     38786     38788     38786     38789     38789     38790
     38789     38791     38789     38792     38792     38793     38792     38794
     38794     38795     38794     38796     38796     38797     38796     38798
     38796     38799     38799     38800     38799     38801     38799     38802
     38802     38803     38802     38804     38802     38805     38805     38806
     38805     38807     38805     38808     38808     38809     38808     38810
     38808     38811     38811     38812     38811     38813     38811     38814
     38814     38815     38814     38816     38814     38817     38817     38818
     38817     38819     38817     38820     38768     38769     38769     38771
     38769     38770     38771     38772     38771     38773     38771     38821
     38821     38822     38821     38823     38821     38824     38824     38825
     38824     38826     38824     38827     38827     38828     38827     38829
     38827     38830     38830     38831     38830     38832     38830     38833
     38833     38834     38833     38835     38833     38836     38836     38837
     38836     38838     38836     38839     38839     38840     38839     38841
     38839     38842     38842     38843     38842     38844     38842     38845
     38845     38846     38845     38847     38845     38848     38848     38849
     38848     38850     38848     38851     38851     38852     38851     38853
     38851     38854     38854     38855     38854     38856     38854     38857
     38857     38858     38857     38859     38857     38860     38860     38861
     38860     38862     38860     38863     38864     38865     38864     38866
     38864     38867     38864     38868     38868     38869     38868     38870
     38868     38871     38871     38872     38871     38873     38871     38878
     38878     38874     38874     38877     38874     38875     38874     38876
     38879     38880     38879     38881     38879     38882     38879     38877
     38882     38883     38882     38890     38882     38884     38890     38891
     38890     38892     38890     38893     38884     38885     38885     38887
     38885     38886     38887     38888     38887     38889     38887     38899
     38899     38900     38899     38901     38899     38902     38902     38903
     38902     38904     38902     38905     38905     38906     38905     38907
     38905     38908     38908     38909     38908     38910     38908     38911
     38911     38912     38911     38913     38911     38914     38914     38915
     38914     38916     38914     38917     38917     38918     38917     38919
     38919     38920     38919     38921     38921     38922     38921     38923
     38921     38924     38924     38925     38924     38926     38924     38927
     38927     38928     38927     38929     38927     38930     38930     38931
     38930     38932     38930     38933     38933     38934     38933     38935
     38933     38936     38936     38937     38936     38938     38936     38939
     38939     38940     38939     38941     38939     38942     38942     38943
     38942     38944     38942     38945     38893     38894     38894     38896
     38894     38895     38896     38897     38896     38898     38896     38946
     38946     38947     38946     38948     38946     38949     38949     38950
     38949     38951     38949     38952     38952     38953     38952     38954
     38952     38955     38955     38956     38955     38957     38955     38958
     38958     38959     38958     38960     38958     38961     38961     38962
     38961     38963     38961     38964     38964     38965     38964     38966
     38964     38967     38967     38968     38967     38969     38967     38970
     38970     38971     38970     38972     38970     38973     38973     38974
     38973     38975     38973     38976     38976     38977     38976     38978
     38976     38979     38979     38980     38979     38981     38979     38982
     38982     38983     38982     38984     38982     38985     38985     38986
     38985     38987     38985     38988     38989     38993     38989     38997
     38989     39001     38993     38994     38993     38995     38993     38996
     38997     38998     38997     38999     38997     39000     39001     39002
     39001     39003     39001     39004     38989     38990     38990     38991
     38990     38992     38990     39005     39005     39006     39005     39007
     39005     39011     39012     39013     39011     39008     39008     39012
     39008     39009     39008     39010     39013     39014     39013     39015
     39013     39016     39016     39017     39016     39024     39016     39018
     39024     39025     39024     39026     39024     39027     39018     39019
     39019     39021     39019     39020     39021     39022     39021     39023
     39021     39033     39033     39034     39033     39035     39033     39036
     39036     39037     39036     39038     39036     39039     39039     39040
     39039     39041     39039     39042     39042     39043     39042     39044
     39042     39045     39045     39046     39045     39047     39045     39048
     39048     39049     39048     39050     39048     39051     39051     39052
     39051     39053     39053     39054     39053     39055     39055     39056
     39055     39057     39055     39058     39058     39059     39058     39060
     39058     39061     39061     39062     39061     39063     39061     39064
     39064     39065     39064     39066     39064     39067     39067     39068
     39067     39069     39067     39070     39070     39071     39070     39072
     39070     39073     39073     39074     39073     39075     39073     39076
     39076     39077     39076     39078     39076     39079     39027     39028
     39028     39030     39028     39029     39030     39031     39030     39032
     39030     39080     39080     39081     39080     39082     39080     39083
     39083     39084     39083     39085     39083     39086     39086     39087
     39086     39088     39086     39089     39089     39090     39089     39091
     39089     39092     39092     39093     39092     39094     39092     39095
     39095     39096     39095     39097     39095     39098     39098     39099
     39098     39100     39098     39101     39101     39102     39101     39103
     39101     39104     39104     39105     39104     39106     39104     39107
     39107     39108     39107     39109     39107     39110     39110     39111
     39110     39112     39110     39113     39113     39114     39113     39115
     39113     39116     39116     39117     39116     39118     39116     39119
     39119     39120     39119     39121     39119     39122     39123     39124
     39123     39125     39123     39126     39123     39127     39127     39128
     39127     39129     39127     39130     39130     39131     39130     39132
     39130     39137     39137     39133     39133     39136     39133     39134
     39133     39135     39138     39139     39138     39140     39138     39141
     39138     39136     39141     39142     39141     39149     39141     39143
     39149     39150     39149     39151     39149     39152     39143     39144
     39144     39146     39144     39145     39146     39147     39146     39148
     39146     39158     39158     39159     39158     39160     39158     39161
     39161     39162     39161     39163     39161     39164     39164     39165
     39164     39166     39164     39167     39167     39168     39167     39169
     39167     39170     39170     39171     39170     39172     39170     39173
     39173     39174     39173     39175     39173     39176     39176     39177
     39176     39178     39178     39179     39178     39180     39180     39181
     39180     39182     39180     39183     39183     39184     39183     39185
     39183     39186     39186     39187     39186     39188     39186     39189
     39189     39190     39189     39191     39189     39192     39192     39193
     39192     39194     39192     39195     39195     39196     39195     39197
     39195     39198     39198     39199     39198     39200     39198     39201
     39201     39202     39201     39203     39201     39204     39152     39153
     39153     39155     39153     39154     39155     39156     39155     39157
     39155     39205     39205     39206     39205     39207     39205     39208
     39208     39209     39208     39210     39208     39211     39211     39212
     39211     39213     39211     39214     39214     39215     39214     39216
     39214     39217     39217     39218     39217     39219     39217     39220
     39220     39221     39220     39222     39220     39223     39223     39224
     39223     39225     39223     39226     39226     39227     39226     39228
     39226     39229     39229     39230     39229     39231     39229     39232
     39232     39233     39232     39234     39232     39235     39235     39236
     39235     39237     39235     39238     39238     39239     39238     39240
     39238     39241     39241     39242     39241     39243     39241     39244
     39244     39245     39244     39246     39244     39247     39248     39249
     39248     39250     39248     39251     39248     39252     39252     39253
     39252     39254     39252     39255     39255     39256     39255     39257
     39255     39262     39262     39258     39258     39261     39258     39259
     39258     39260     39263     39264     39263     39265     39263     39266
     39263     39261     39266     39267     39266     39274     39266     39268
     39274     39275     39274     39276     39274     39277     39268     39269
     39269     39271     39269     39270     39271     39272     39271     39273
     39271     39283     39283     39284     39283     39285     39283     39286
     39286     39287     39286     39288     39286     39289     39289     39290
     39289     39291     39289     39292     39292     39293     39292     39294
     39292     39295     39295     39296     39295     39297     39295     39298
     39298     39299     39298     39300     39298     39301     39301     39302
     39301     39303     39303     39304     39303     39305     39305     39306
     39305     39307     39305     39308     39308     39309     39308     39310
     39308     39311     39311     39312     39311     39313     39311     39314
     39314     39315     39314     39316     39314     39317     39317     39318
     39317     39319     39317     39320     39320     39321     39320     39322
     39320     39323     39323     39324     39323     39325     39323     39326
     39326     39327     39326     39328     39326     39329     39277     39278
     39278     39280     39278     39279     39280     39281     39280     39282
     39280     39330     39330     39331     39330     39332     39330     39333
     39333     39334     39333     39335     39333     39336     39336     39337
     39336     39338     39336     39339     39339     39340     39339     39341
     39339     39342     39342     39343     39342     39344     39342     39345
     39345     39346     39345     39347     39345     39348     39348     39349
     39348     39350     39348     39351     39351     39352     39351     39353
     39351     39354     39354     39355     39354     39356     39354     39357
     39357     39358     39357     39359     39357     39360     39360     39361
     39360     39362     39360     39363     39363     39364     39363     39365
     39363     39366     39366     39367     39366     39368     39366     39369
     39369     39370     39369     39371     39369     39372     39373     39374
     39373     39375     39373     39376     39373     39377     39377     39378
     39377     39379     39377     39380     39380     39381     39380     39382
     39380     39387     39387     39383     39383     39386     39383     39384
     39383     39385     39388     39389     39388     39390     39388     39391
     39388     39386     39391     39392     39391     39399     39391     39393
     39399     39400     39399     39401     39399     39402     39393     39394
     39394     39396     39394     39395     39396     39397     39396     39398
     39396     39408     39408     39409     39408     39410     39408     39411
     39411     39412     39411     39413     39411     39414     39414     39415
     39414     39416     39414     39417     39417     39418     39417     39419
     39417     39420     39420     39421     39420     39422     39420     39423
     39423     39424     39423     39425     39423     39426     39426     39427
     39426     39428     39428     39429     39428     39430     39430     39431
     39430     39432     39430     39433     39433     39434     39433     39435
     39433     39436     39436     39437     39436     39438     39436     39439
     39439     39440     39439     39441     39439     39442     39442     39443
     39442     39444     39442     39445     39445     39446     39445     39447
     39445     39448     39448     39449     39448     39450     39448     39451
     39451     39452     39451     39453     39451     39454     39402     39403
     39403     39405     39403     39404     39405     39406     39405     39407
     39405     39455     39455     39456     39455     39457     39455     39458
     39458     39459     39458     39460     39458     39461     39461     39462
     39461     39463     39461     39464     39464     39465     39464     39466
     39464     39467     39467     39468     39467     39469     39467     39470
     39470     39471     39470     39472     39470     39473     39473     39474
     39473     39475     39473     39476     39476     39477     39476     39478
     39476     39479     39479     39480     39479     39481     39479     39482
     39482     39483     39482     39484     39482     39485     39485     39486
     39485     39487     39485     39488     39488     39489     39488     39490
     39488     39491     39491     39492     39491     39493     39491     39494
     39494     39495     39494     39496     39494     39497     39498     39499
     39498     39500     39498     39501     39498     39502     39502     39503
     39502     39504     39502     39505     39505     39506     39505     39507
     39505     39512     39512     39508     39508     39511     39508     39509
     39508     39510     39513     39514     39513     39515     39513     39516
     39513     39511     39516     39517     39516     39524     39516     39518
     39524     39525     39524     39526     39524     39527     39518     39519
     39519     39521     39519     39520     39521     39522     39521     39523
     39521     39533     39533     39534     39533     39535     39533     39536
     39536     39537     39536     39538     39536     39539     39539     39540
     39539     39541     39539     39542     39542     39543     39542     39544
     39542     39545     39545     39546     39545     39547     39545     39548
     39548     39549     39548     39550     39548     39551     39551     39552
     39551     39553     39553     39554     39553     39555     39555     39556
     39555     39557     39555     39558     39558     39559     39558     39560
     39558     39561     39561     39562     39561     39563     39561     39564
     39564     39565     39564     39566     39564     39567     39567     39568
     39567     39569     39567     39570     39570     39571     39570     39572
     39570     39573     39573     39574     39573     39575     39573     39576
     39576     39577     39576     39578     39576     39579     39527     39528
     39528     39530     39528     39529     39530     39531     39530     39532
     39530     39580     39580     39581     39580     39582     39580     39583
     39583     39584     39583     39585     39583     39586     39586     39587
     39586     39588     39586     39589     39589     39590     39589     39591
     39589     39592     39592     39593     39592     39594     39592     39595
     39595     39596     39595     39597     39595     39598     39598     39599
     39598     39600     39598     39601     39601     39602     39601     39603
     39601     39604     39604     39605     39604     39606     39604     39607
     39607     39608     39607     39609     39607     39610     39610     39611
     39610     39612     39610     39613     39613     39614     39613     39615
     39613     39616     39616     39617     39616     39618     39616     39619
     39619     39620     39619     39621     39619     39622     39623     39627
     39623     39631     39623     39635     39627     39628     39627     39629
     39627     39630     39631     39632     39631     39633     39631     39634
     39635     39636     39635     39637     39635     39638     39623     39624
     39624     39625     39624     39626     39624     39639     39639     39640
     39639     39641     39639     39645     39646     39647     39645     39642
     39642     39646     39642     39643     39642     39644     39647     39648
     39647     39649     39647     39650     39650     39651     39650     39658
     39650     39652     39658     39659     39658     39660     39658     39661
     39652     39653     39653     39655     39653     39654     39655     39656
     39655     39657     39655     39667     39667     39668     39667     39669
     39667     39670     39670     39671     39670     39672     39670     39673
     39673     39674     39673     39675     39673     39676     39676     39677
     39676     39678     39676     39679     39679     39680     39679     39681
     39679     39682     39682     39683     39682     39684     39682     39685
     39685     39686     39685     39687     39687     39688     39687     39689
     39689     39690     39689     39691     39689     39692     39692     39693
     39692     39694     39692     39695     39695     39696     39695     39697
     39695     39698     39698     39699     39698     39700     39698     39701
     39701     39702     39701     39703     39701     39704     39704     39705
     39704     39706     39704     39707     39707     39708     39707     39709
     39707     39710     39710     39711     39710     39712     39710     39713
     39661     39662     39662     39664     39662     39663     39664     39665
     39664     39666     39664     39714     39714     39715     39714     39716
     39714     39717     39717     39718     39717     39719     39717     39720
     39720     39721     39720     39722     39720     39723     39723     39724
     39723     39725     39723     39726     39726     39727     39726     39728
     39726     39729     39729     39730     39729     39731     39729     39732
     39732     39733     39732     39734     39732     39735     39735     39736
     39735     39737     39735     39738     39738     39739     39738     39740
     39738     39741     39741     39742     39741     39743     39741     39744
     39744     39745     39744     39746     39744     39747     39747     39748
     39747     39749     39747     39750     39750     39751     39750     39752
     39750     39753     39753     39754     39753     39755     39753     39756
     39757     39761     39757     39765     39757     39769     39761     39762
     39761     39763     39761     39764     39765     39766     39765     39767
     39765     39768     39769     39770     39769     39771     39769     39772
     39757     39758     39758     39759     39758     39760     39758     39773
     39773     39774     39773     39775     39773     39779     39780     39781
     39779     39776     39776     39780     39776     39777     39776     39778
     39781     39782     39781     39783     39781     39784     39784     39785
     39784     39792     39784     39786     39792     39793     39792     39794
     39792     39795     39786     39787     39787     39789     39787     39788
     39789     39790     39789     39791     39789     39801     39801     39802
     39801     39803     39801     39804     39804     39805     39804     39806
     39804     39807     39807     39808     39807     39809     39807     39810
     39810     39811     39810     39812     39810     39813     39813     39814
     39813     39815     39813     39816     39816     39817     39816     39818
     39816     39819     39819     39820     39819     39821     39821     39822
     39821     39823     39823     39824     39823     39825     39823     39826
     39826     39827     39826     39828     39826     39829     39829     39830
     39829     39831     39829     39832     39832     39833     39832     39834
     39832     39835     39835     39836     39835     39837     39835     39838
     39838     39839     39838     39840     39838     39841     39841     39842
     39841     39843     39841     39844     39844     39845     39844     39846
     39844     39847     39795     39796     39796     39798     39796     39797
     39798     39799     39798     39800     39798     39848     39848     39849
     39848     39850     39848     39851     39851     39852     39851     39853
     39851     39854     39854     39855     39854     39856     39854     39857
     39857     39858     39857     39859     39857     39860     39860     39861
     39860     39862     39860     39863     39863     39864     39863     39865
     39863     39866     39866     39867     39866     39868     39866     39869
     39869     39870     39869     39871     39869     39872     39872     39873
     39872     39874     39872     39875     39875     39876     39875     39877
     39875     39878     39878     39879     39878     39880     39878     39881
     39881     39882     39881     39883     39881     39884     39884     39885
     39884     39886     39884     39887     39887     39888     39887     39889
     39887     39890     39891     39895     39891     39899     39891     39903
     39895     39896     39895     39897     39895     39898     39899     39900
     39899     39901     39899     39902     39903     39904     39903     39905
     39903     39906     39891     39892     39892     39893     39892     39894
     39892     39907     39907     39908     39907     39909     39907     39913
     39914     39915     39913     39910     39910     39914     39910     39911
     39910     39912     39915     39916     39915     39917     39915     39918
     39918     39919     39918     39926     39918     39920     39926     39927
     39926     39928     39926     39929     39920     39921     39921     39923
     39921     39922     39923     39924     39923     39925     39923     39935
     39935     39936     39935     39937     39935     39938     39938     39939
     39938     39940     39938     39941     39941     39942     39941     39943
     39941     39944     39944     39945     39944     39946     39944     39947
     39947     39948     39947     39949     39947     39950     39950     39951
     39950     39952     39950     39953     39953     39954     39953     39955
     39955     39956     39955     39957     39957     39958     39957     39959
     39957     39960     39960     39961     39960     39962     39960     39963
     39963     39964     39963     39965     39963     39966     39966     39967
     39966     39968     39966     39969     39969     39970     39969     39971
     39969     39972     39972     39973     39972     39974     39972     39975
     39975     39976     39975     39977     39975     39978     39978     39979
     39978     39980     39978     39981     39929     39930     39930     39932
     39930     39931     39932     39933     39932     39934     39932     39982
     39982     39983     39982     39984     39982     39985     39985     39986
     39985     39987     39985     39988     39988     39989     39988     39990
     39988     39991     39991     39992     39991     39993     39991     39994
     39994     39995     39994     39996     39994     39997     39997     39998
     39997     39999     39997     40000     40000     40001     40000     40002
     40000     40003     40003     40004     40003     40005     40003     40006
     40006     40007     40006     40008     40006     40009     40009     40010
     40009     40011     40009     40012     40012     40013     40012     40014
     40012     40015     40015     40016     40015     40017     40015     40018
     40018     40019     40018     40020     40018     40021     40021     40022
     40021     40023     40021     40024     40025     40029     40025     40033
     40025     40037     40029     40030     40029     40031     40029     40032
     40033     40034     40033     40035     40033     40036     40037     40038
     40037     40039     40037     40040     40025     40026     40026     40027
     40026     40028     40026     40041     40041     40042     40041     40043
     40041     40047     40048     40049     40047     40044     40044     40048
     40044     40045     40044     40046     40049     40050     40049     40051
     40049     40052     40052     40053     40052     40060     40052     40054
     40060     40061     40060     40062     40060     40063     40054     40055
     40055     40057     40055     40056     40057     40058     40057     40059
     40057     40069     40069     40070     40069     40071     40069     40072
     40072     40073     40072     40074     40072     40075     40075     40076
     40075     40077     40075     40078     40078     40079     40078     40080
     40078     40081     40081     40082     40081     40083     40081     40084
     40084     40085     40084     40086     40084     40087     40087     40088
     40087     40089     40089     40090     40089     40091     40091     40092
     40091     40093     40091     40094     40094     40095     40094     40096
     40094     40097     40097     40098     40097     40099     40097     40100
     40100     40101     40100     40102     40100     40103     40103     40104
     40103     40105     40103     40106     40106     40107     40106     40108
     40106     40109     40109     40110     40109     40111     40109     40112
     40112     40113     40112     40114     40112     40115     40063     40064
     40064     40066     40064     40065     40066     40067     40066     40068
     40066     40116     40116     40117     40116     40118     40116     40119
     40119     40120     40119     40121     40119     40122     40122     40123
     40122     40124     40122     40125     40125     40126     40125     40127
     40125     40128     40128     40129     40128     40130     40128     40131
     40131     40132     40131     40133     40131     40134     40134     40135
     40134     40136     40134     40137     40137     40138     40137     40139
     40137     40140     40140     40141     40140     40142     40140     40143
     40143     40144     40143     40145     40143     40146     40146     40147
     40146     40148     40146     40149     40149     40150     40149     40151
     40149     40152     40152     40153     40152     40154     40152     40155
     40155     40156     40155     40157     40155     40158     40159     40160
     40159     40161     40159     40162     40159     40163     40163     40164
     40163     40165     40163     40166     40166     40167     40166     40168
     40166     40173     40173     40169     40169     40172     40169     40170
     40169     40171     40174     40175     40174     40176     40174     40177
     40174     40172     40177     40178     40177     40185     40177     40179
     40185     40186     40185     40187     40185     40188     40179     40180
     40180     40182     40180     40181     40182     40183     40182     40184
     40182     40194     40194     40195     40194     40196     40194     40197
     40197     40198     40197     40199     40197     40200     40200     40201
     40200     40202     40200     40203     40203     40204     40203     40205
     40203     40206     40206     40207     40206     40208     40206     40209
     40209     40210     40209     40211     40209     40212     40212     40213
     40212     40214     40214     40215     40214     40216     40216     40217
     40216     40218     40216     40219     40219     40220     40219     40221
     40219     40222     40222     40223     40222     40224     40222     40225
     40225     40226     40225     40227     40225     40228     40228     40229
     40228     40230     40228     40231     40231     40232     40231     40233
     40231     40234     40234     40235     40234     40236     40234     40237
     40237     40238     40237     40239     40237     40240     40188     40189
     40189     40191     40189     40190     40191     40192     40191     40193
     40191     40241     40241     40242     40241     40243     40241     40244
     40244     40245     40244     40246     40244     40247     40247     40248
     40247     40249     40247     40250     40250     40251     40250     40252
     40250     40253     40253     40254     40253     40255     40253     40256
     40256     40257     40256     40258     40256     40259     40259     40260
     40259     40261     40259     40262     40262     40263     40262     40264
     40262     40265     40265     40266     40265     40267     40265     40268
     40268     40269     40268     40270     40268     40271     40271     40272
     40271     40273     40271     40274     40274     40275     40274     40276
     40274     40277     40277     40278     40277     40279     40277     40280
     40280     40281     40280     40282     40280     40283     40284     40285
     40284     40286     40284     40287     40284     40288     40288     40289
     40288     40290     40288     40291     40291     40292     40291     40293
     40291     40298     40298     40294     40294     40297     40294     40295
     40294     40296     40299     40300     40299     40301     40299     40302
     40299     40297     40302     40303     40302     40310     40302     40304
     40310     40311     40310     40312     40310     40313     40304     40305
     40305     40307     40305     40306     40307     40308     40307     40309
     40307     40319     40319     40320     40319     40321     40319     40322
     40322     40323     40322     40324     40322     40325     40325     40326
     40325     40327     40325     40328     40328     40329     40328     40330
     40328     40331     40331     40332     40331     40333     40331     40334
     40334     40335     40334     40336     40334     40337     40337     40338
     40337     40339     40339     40340     40339     40341     40341     40342
     40341     40343     40341     40344     40344     40345     40344     40346
     40344     40347     40347     40348     40347     40349     40347     40350
     40350     40351     40350     40352     40350     40353     40353     40354
     40353     40355     40353     40356     40356     40357     40356     40358
     40356     40359     40359     40360     40359     40361     40359     40362
     40362     40363     40362     40364     40362     40365     40313     40314
     40314     40316     40314     40315     40316     40317     40316     40318
     40316     40366     40366     40367     40366     40368     40366     40369
     40369     40370     40369     40371     40369     40372     40372     40373
     40372     40374     40372     40375     40375     40376     40375     40377
     40375     40378     40378     40379     40378     40380     40378     40381
     40381     40382     40381     40383     40381     40384     40384     40385
     40384     40386     40384     40387     40387     40388     40387     40389
     40387     40390     40390     40391     40390     40392     40390     40393
     40393     40394     40393     40395     40393     40396     40396     40397
     40396     40398     40396     40399     40399     40400     40399     40401
     40399     40402     40402     40403     40402     40404     40402     40405
     40405     40406     40405     40407     40405     40408     40409     40413
     40409     40417     40409     40421     40413     40414     40413     40415
     40413     40416     40417     40418     40417     40419     40417     40420
     40421     40422     40421     40423     40421     40424     40409     40410
     40410     40411     40410     40412     40410     40425     40425     40426
     40425     40427     40425     40431     40432     40433     40431     40428
     40428     40432     40428     40429     40428     40430     40433     40434
     40433     40435     40433     40436     40436     40437     40436     40444
     40436     40438     40444     40445     40444     40446     40444     40447
     40438     40439     40439     40441     40439     40440     40441     40442
     40441     40443     40441     40453     40453     40454     40453     40455
     40453     40456     40456     40457     40456     40458     40456     40459
     40459     40460     40459     40461     40459     40462     40462     40463
     40462     40464     40462     40465     40465     40466     40465     40467
     40465     40468     40468     40469     40468     40470     40468     40471
     40471     40472     40471     40473     40473     40474     40473     40475
     40475     40476     40475     40477     40475     40478     40478     40479
     40478     40480     40478     40481     40481     40482     40481     40483
     40481     40484     40484     40485     40484     40486     40484     40487
     40487     40488     40487     40489     40487     40490     40490     40491
     40490     40492     40490     40493     40493     40494     40493     40495
     40493     40496     40496     40497     40496     40498     40496     40499
     40447     40448     40448     40450     40448     40449     40450     40451
     40450     40452     40450     40500     40500     40501     40500     40502
     40500     40503     40503     40504     40503     40505     40503     40506
     40506     40507     40506     40508     40506     40509     40509     40510
     40509     40511     40509     40512     40512     40513     40512     40514
     40512     40515     40515     40516     40515     40517     40515     40518
     40518     40519     40518     40520     40518     40521     40521     40522
     40521     40523     40521     40524     40524     40525     40524     40526
     40524     40527     40527     40528     40527     40529     40527     40530
     40530     40531     40530     40532     40530     40533     40533     40534
     40533     40535     40533     40536     40536     40537     40536     40538
     40536     40539     40539     40540     40539     40541     40539     40542
     40543     40544     40543     40545     40543     40546     40543     40547
     40547     40548     40547     40549     40547     40550     40550     40551
     40550     40552     40550     40557     40557     40553     40553     40556
     40553     40554     40553     40555     40558     40559     40558     40560
     40558     40561     40558     40556     40561     40562     40561     40569
     40561     40563     40569     40570     40569     40571     40569     40572
     40563     40564     40564     40566     40564     40565     40566     40567
     40566     40568     40566     40578     40578     40579     40578     40580
     40578     40581     40581     40582     40581     40583     40581     40584
     40584     40585     40584     40586     40584     40587     40587     40588
     40587     40589     40587     40590     40590     40591     40590     40592
     40590     40593     40593     40594     40593     40595     40593     40596
     40596     40597     40596     40598     40598     40599     40598     40600
     40600     40601     40600     40602     40600     40603     40603     40604
     40603     40605     40603     40606     40606     40607     40606     40608
     40606     40609     40609     40610     40609     40611     40609     40612
     40612     40613     40612     40614     40612     40615     40615     40616
     40615     40617     40615     40618     40618     40619     40618     40620
     40618     40621     40621     40622     40621     40623     40621     40624
     40572     40573     40573     40575     40573     40574     40575     40576
     40575     40577     40575     40625     40625     40626     40625     40627
     40625     40628     40628     40629     40628     40630     40628     40631
     40631     40632     40631     40633     40631     40634     40634     40635
     40634     40636     40634     40637     40637     40638     40637     40639
     40637     40640     40640     40641     40640     40642     40640     40643
     40643     40644     40643     40645     40643     40646     40646     40647
     40646     40648     40646     40649     40649     40650     40649     40651
     40649     40652     40652     40653     40652     40654     40652     40655
     40655     40656     40655     40657     40655     40658     40658     40659
     40658     40660     40658     40661     40661     40662     40661     40663
     40661     40664     40664     40665     40664     40666     40664     40667
     40668     40669     40668     40670     40668     40671     40668     40672
     40672     40673     40672     40674     40672     40675     40675     40676
     40675     40677     40675     40682     40682     40678     40678     40681
     40678     40679     40678     40680     40683     40684     40683     40685
     40683     40686     40683     40681     40686     40687     40686     40694
     40686     40688     40694     40695     40694     40696     40694     40697
     40688     40689     40689     40691     40689     40690     40691     40692
     40691     40693     40691     40703     40703     40704     40703     40705
     40703     40706     40706     40707     40706     40708     40706     40709
     40709     40710     40709     40711     40709     40712     40712     40713
     40712     40714     40712     40715     40715     40716     40715     40717
     40715     40718     40718     40719     40718     40720     40718     40721
     40721     40722     40721     40723     40723     40724     40723     40725
     40725     40726     40725     40727     40725     40728     40728     40729
     40728     40730     40728     40731     40731     40732     40731     40733
     40731     40734     40734     40735     40734     40736     40734     40737
     40737     40738     40737     40739     40737     40740     40740     40741
     40740     40742     40740     40743     40743     40744     40743     40745
     40743     40746     40746     40747     40746     40748     40746     40749
     40697     40698     40698     40700     40698     40699     40700     40701
     40700     40702     40700     40750     40750     40751     40750     40752
     40750     40753     40753     40754     40753     40755     40753     40756
     40756     40757     40756     40758     40756     40759     40759     40760
     40759     40761     40759     40762     40762     40763     40762     40764
     40762     40765     40765     40766     40765     40767     40765     40768
     40768     40769     40768     40770     40768     40771     40771     40772
     40771     40773     40771     40774     40774     40775     40774     40776
     40774     40777     40777     40778     40777     40779     40777     40780
     40780     40781     40780     40782     40780     40783     40783     40784
     40783     40785     40783     40786     40786     40787     40786     40788
     40786     40789     40789     40790     40789     40791     40789     40792
     40793     40797     40793     40801     40793     40805     40797     40798
     40797     40799     40797     40800     40801     40802     40801     40803
     40801     40804     40805     40806     40805     40807     40805     40808
     40793     40794     40794     40795     40794     40796     40794     40809
     40809     40810     40809     40811     40809     40815     40816     40817
     40815     40812     40812     40816     40812     40813     40812     40814
     40817     40818     40817     40819     40817     40820     40820     40821
     40820     40828     40820     40822     40828     40829     40828     40830
     40828     40831     40822     40823     40823     40825     40823     40824
     40825     40826     40825     40827     40825     40837     40837     40838
     40837     40839     40837     40840     40840     40841     40840     40842
     40840     40843     40843     40844     40843     40845     40843     40846
     40846     40847     40846     40848     40846     40849     40849     40850
     40849     40851     40849     40852     40852     40853     40852     40854
     40852     40855     40855     40856     40855     40857     40857     40858
     40857     40859     40859     40860     40859     40861     40859     40862
     40862     40863     40862     40864     40862     40865     40865     40866
     40865     40867     40865     40868     40868     40869     40868     40870
     40868     40871     40871     40872     40871     40873     40871     40874
     40874     40875     40874     40876     40874     40877     40877     40878
     40877     40879     40877     40880     40880     40881     40880     40882
     40880     40883     40831     40832     40832     40834     40832     40833
     40834     40835     40834     40836     40834     40884     40884     40885
     40884     40886     40884     40887     40887     40888     40887     40889
     40887     40890     40890     40891     40890     40892     40890     40893
     40893     40894     40893     40895     40893     40896     40896     40897
     40896     40898     40896     40899     40899     40900     40899     40901
     40899     40902     40902     40903     40902     40904     40902     40905
     40905     40906     40905     40907     40905     40908     40908     40909
     40908     40910     40908     40911     40911     40912     40911     40913
     40911     40914     40914     40915     40914     40916     40914     40917
     40917     40918     40917     40919     40917     40920     40920     40921
     40920     40922     40920     40923     40923     40924     40923     40925
     40923     40926     40927     40931     40927     40935     40927     40939
     40931     40932     40931     40933     40931     40934     40935     40936
     40935     40937     40935     40938     40939     40940     40939     40941
     40939     40942     40927     40928     40928     40929     40928     40930
     40928     40943     40943     40944     40943     40945     40943     40949
     40950     40951     40949     40946     40946     40950     40946     40947
     40946     40948     40951     40952     40951     40953     40951     40954
     40954     40955     40954     40962     40954     40956     40962     40963
     40962     40964     40962     40965     40956     40957     40957     40959
     40957     40958     40959     40960     40959     40961     40959     40971
     40971     40972     40971     40973     40971     40974     40974     40975
     40974     40976     40974     40977     40977     40978     40977     40979
     40977     40980     40980     40981     40980     40982     40980     40983
     40983     40984     40983     40985     40983     40986     40986     40987
     40986     40988     40986     40989     40989     40990     40989     40991
     40991     40992     40991     40993     40993     40994     40993     40995
     40993     40996     40996     40997     40996     40998     40996     40999
     40999     41000     40999     41001     40999     41002     41002     41003
     41002     41004     41002     41005     41005     41006     41005     41007
     41005     41008     41008     41009     41008     41010     41008     41011
     41011     41012     41011     41013     41011     41014     41014     41015
     41014     41016     41014     41017     40965     40966     40966     40968
     40966     40967     40968     40969     40968     40970     40968     41018
     41018     41019     41018     41020     41018     41021     41021     41022
     41021     41023     41021     41024     41024     41025     41024     41026
     41024     41027     41027     41028     41027     41029     41027     41030
     41030     41031     41030     41032     41030     41033     41033     41034
     41033     41035     41033     41036     41036     41037     41036     41038
     41036     41039     41039     41040     41039     41041     41039     41042
     41042     41043     41042     41044     41042     41045     41045     41046
     41045     41047     41045     41048     41048     41049     41048     41050
     41048     41051     41051     41052     41051     41053     41051     41054
     41054     41055     41054     41056     41054     41057     41057     41058
     41057     41059     41057     41060     41061     41062     41061     41063
     41061     41064     41061     41065     41065     41066     41065     41067
     41065     41068     41068     41069     41068     41070     41068     41075
     41075     41071     41071     41074     41071     41072     41071     41073
     41076     41077     41076     41078     41076     41079     41076     41074
     41079     41080     41079     41087     41079     41081     41087     41088
     41087     41089     41087     41090     41081     41082     41082     41084
     41082     41083     41084     41085     41084     41086     41084     41096
     41096     41097     41096     41098     41096     41099     41099     41100
     41099     41101     41099     41102     41102     41103     41102     41104
     41102     41105     41105     41106     41105     41107     41105     41108
     41108     41109     41108     41110     41108     41111     41111     41112
     41111     41113     41111     41114     41114     41115     41114     41116
     41116     41117     41116     41118     41118     41119     41118     41120
     41118     41121     41121     41122     41121     41123     41121     41124
     41124     41125     41124     41126     41124     41127     41127     41128
     41127     41129     41127     41130     41130     41131     41130     41132
     41130     41133     41133     41134     41133     41135     41133     41136
     41136     41137     41136     41138     41136     41139     41139     41140
     41139     41141     41139     41142     41090     41091     41091     41093
     41091     41092     41093     41094     41093     41095     41093     41143
     41143     41144     41143     41145     41143     41146     41146     41147
     41146     41148     41146     41149     41149     41150     41149     41151
     41149     41152     41152     41153     41152     41154     41152     41155
     41155     41156     41155     41157     41155     41158     41158     41159
     41158     41160     41158     41161     41161     41162     41161     41163
     41161     41164     41164     41165     41164     41166     41164     41167
     41167     41168     41167     41169     41167     41170     41170     41171
     41170     41172     41170     41173     41173     41174     41173     41175
     41173     41176     41176     41177     41176     41178     41176     41179
     41179     41180     41179     41181     41179     41182     41182     41183
     41182     41184     41182     41185     41186     41190     41186     41194
     41186     41198     41190     41191     41190     41192     41190     41193
     41194     41195     41194     41196     41194     41197     41198     41199
     41198     41200     41198     41201     41186     41187     41187     41188
     41187     41189     41187     41202     41202     41203     41202     41204
     41202     41208     41209     41210     41208     41205     41205     41209
     41205     41206     41205     41207     41210     41211     41210     41212
     41210     41213     41213     41214     41213     41221     41213     41215
     41221     41222     41221     41223     41221     41224     41215     41216
     41216     41218     41216     41217     41218     41219     41218     41220
     41218     41230     41230     41231     41230     41232     41230     41233
     41233     41234     41233     41235     41233     41236     41236     41237
     41236     41238     41236     41239     41239     41240     41239     41241
     41239     41242     41242     41243     41242     41244     41242     41245
     41245     41246     41245     41247     41245     41248     41248     41249
     41248     41250     41250     41251     41250     41252     41252     41253
     41252     41254     41252     41255     41255     41256     41255     41257
     41255     41258     41258     41259     41258     41260     41258     41261
     41261     41262     41261     41263     41261     41264     41264     41265
     41264     41266     41264     41267     41267     41268     41267     41269
     41267     41270     41270     41271     41270     41272     41270     41273
     41273     41274     41273     41275     41273     41276     41224     41225
     41225     41227     41225     41226     41227     41228     41227     41229
     41227     41277     41277     41278     41277     41279     41277     41280
     41280     41281     41280     41282     41280     41283     41283     41284
     41283     41285     41283     41286     41286     41287     41286     41288
     41286     41289     41289     41290     41289     41291     41289     41292
     41292     41293     41292     41294     41292     41295     41295     41296
     41295     41297     41295     41298     41298     41299     41298     41300
     41298     41301     41301     41302     41301     41303     41301     41304
     41304     41305     41304     41306     41304     41307     41307     41308
     41307     41309     41307     41310     41310     41311     41310     41312
     41310     41313     41313     41314     41313     41315     41313     41316
     41316     41317     41316     41318     41316     41319     41320     41324
     41320     41328     41320     41332     41324     41325     41324     41326
     41324     41327     41328     41329     41328     41330     41328     41331
     41332     41333     41332     41334     41332     41335     41320     41321
     41321     41322     41321     41323     41321     41336     41336     41337
     41336     41338     41336     41342     41343     41344     41342     41339
     41339     41343     41339     41340     41339     41341     41344     41345
     41344     41346     41344     41347     41347     41348     41347     41355
     41347     41349     41355     41356     41355     41357     41355     41358
     41349     41350     41350     41352     41350     41351     41352     41353
     41352     41354     41352     41364     41364     41365     41364     41366
     41364     41367     41367     41368     41367     41369     41367     41370
     41370     41371     41370     41372     41370     41373     41373     41374
     41373     41375     41373     41376     41376     41377     41376     41378
     41376     41379     41379     41380     41379     41381     41379     41382
     41382     41383     41382     41384     41384     41385     41384     41386
     41386     41387     41386     41388     41386     41389     41389     41390
     41389     41391     41389     41392     41392     41393     41392     41394
     41392     41395     41395     41396     41395     41397     41395     41398
     41398     41399     41398     41400     41398     41401     41401     41402
     41401     41403     41401     41404     41404     41405     41404     41406
     41404     41407     41407     41408     41407     41409     41407     41410
     41358     41359     41359     41361     41359     41360     41361     41362
     41361     41363     41361     41411     41411     41412     41411     41413
     41411     41414     41414     41415     41414     41416     41414     41417
     41417     41418     41417     41419     41417     41420     41420     41421
     41420     41422     41420     41423     41423     41424     41423     41425
     41423     41426     41426     41427     41426     41428     41426     41429
     41429     41430     41429     41431     41429     41432     41432     41433
     41432     41434     41432     41435     41435     41436     41435     41437
     41435     41438     41438     41439     41438     41440     41438     41441
     41441     41442     41441     41443     41441     41444     41444     41445
     41444     41446     41444     41447     41447     41448     41447     41449
     41447     41450     41450     41451     41450     41452     41450     41453
     41454     41455     41454     41456     41454     41457     41454     41458
     41458     41459     41458     41460     41458     41461     41461     41462
     41461     41463     41461     41468     41468     41464     41464     41467
     41464     41465     41464     41466     41469     41470     41469     41471
     41469     41472     41469     41467     41472     41473     41472     41480
     41472     41474     41480     41481     41480     41482     41480     41483
     41474     41475     41475     41477     41475     41476     41477     41478
     41477     41479     41477     41489     41489     41490     41489     41491
     41489     41492     41492     41493     41492     41494     41492     41495
     41495     41496     41495     41497     41495     41498     41498     41499
     41498     41500     41498     41501     41501     41502     41501     41503
     41501     41504     41504     41505     41504     41506     41504     41507
     41507     41508     41507     41509     41509     41510     41509     41511
     41511     41512     41511     41513     41511     41514     41514     41515
     41514     41516     41514     41517     41517     41518     41517     41519
     41517     41520     41520     41521     41520     41522     41520     41523
     41523     41524     41523     41525     41523     41526     41526     41527
     41526     41528     41526     41529     41529     41530     41529     41531
     41529     41532     41532     41533     41532     41534     41532     41535
     41483     41484     41484     41486     41484     41485     41486     41487
     41486     41488     41486     41536     41536     41537     41536     41538
     41536     41539     41539     41540     41539     41541     41539     41542
     41542     41543     41542     41544     41542     41545     41545     41546
     41545     41547     41545     41548     41548     41549     41548     41550
     41548     41551     41551     41552     41551     41553     41551     41554
     41554     41555     41554     41556     41554     41557     41557     41558
     41557     41559     41557     41560     41560     41561     41560     41562
     41560     41563     41563     41564     41563     41565     41563     41566
     41566     41567     41566     41568     41566     41569     41569     41570
     41569     41571     41569     41572     41572     41573     41572     41574
     41572     41575     41575     41576     41575     41577     41575     41578
     41579     41580     41579     41581     41579     41582     41579     41583
     41583     41584     41583     41585     41583     41586     41586     41587
     41586     41588     41586     41593     41593     41589     41589     41592
     41589     41590     41589     41591     41594     41595     41594     41596
     41594     41597     41594     41592     41597     41598     41597     41605
     41597     41599     41605     41606     41605     41607     41605     41608
     41599     41600     41600     41602     41600     41601     41602     41603
     41602     41604     41602     41614     41614     41615     41614     41616
     41614     41617     41617     41618     41617     41619     41617     41620
     41620     41621     41620     41622     41620     41623     41623     41624
     41623     41625     41623     41626     41626     41627     41626     41628
     41626     41629     41629     41630     41629     41631     41629     41632
     41632     41633     41632     41634     41634     41635     41634     41636
     41636     41637     41636     41638     41636     41639     41639     41640
     41639     41641     41639     41642     41642     41643     41642     41644
     41642     41645     41645     41646     41645     41647     41645     41648
     41648     41649     41648     41650     41648     41651     41651     41652
     41651     41653     41651     41654     41654     41655     41654     41656
     41654     41657     41657     41658     41657     41659     41657     41660
     41608     41609     41609     41611     41609     41610     41611     41612
     41611     41613     41611     41661     41661     41662     41661     41663
     41661     41664     41664     41665     41664     41666     41664     41667
     41667     41668     41667     41669     41667     41670     41670     41671
     41670     41672     41670     41673     41673     41674     41673     41675
     41673     41676     41676     41677     41676     41678     41676     41679
     41679     41680     41679     41681     41679     41682     41682     41683
     41682     41684     41682     41685     41685     41686     41685     41687
     41685     41688     41688     41689     41688     41690     41688     41691
     41691     41692     41691     41693     41691     41694     41694     41695
     41694     41696     41694     41697     41697     41698     41697     41699
     41697     41700     41700     41701     41700     41702     41700     41703
     41704     41708     41704     41712     41704     41716     41708     41709
     41708     41710     41708     41711     41712     41713     41712     41714
     41712     41715     41716     41717     41716     41718     41716     41719
     41704     41705     41705     41706     41705     41707     41705     41720
     41720     41721     41720     41722     41720     41726     41727     41728
     41726     41723     41723     41727     41723     41724     41723     41725
     41728     41729     41728     41730     41728     41731     41731     41732
     41731     41739     41731     41733     41739     41740     41739     41741
     41739     41742     41733     41734     41734     41736     41734     41735
     41736     41737     41736     41738     41736     41748     41748     41749
     41748     41750     41748     41751     41751     41752     41751     41753
     41751     41754     41754     41755     41754     41756     41754     41757
     41757     41758     41757     41759     41757     41760     41760     41761
     41760     41762     41760     41763     41763     41764     41763     41765
     41763     41766     41766     41767     41766     41768     41768     41769
     41768     41770     41770     41771     41770     41772     41770     41773
     41773     41774     41773     41775     41773     41776     41776     41777
     41776     41778     41776     41779     41779     41780     41779     41781
     41779     41782     41782     41783     41782     41784     41782     41785
     41785     41786     41785     41787     41785     41788     41788     41789
     41788     41790     41788     41791     41791     41792     41791     41793
     41791     41794     41742     41743     41743     41745     41743     41744
     41745     41746     41745     41747     41745     41795     41795     41796
     41795     41797     41795     41798     41798     41799     41798     41800
     41798     41801     41801     41802     41801     41803     41801     41804
     41804     41805     41804     41806     41804     41807     41807     41808
     41807     41809     41807     41810     41810     41811     41810     41812
     41810     41813     41813     41814     41813     41815     41813     41816
     41816     41817     41816     41818     41816     41819     41819     41820
     41819     41821     41819     41822     41822     41823     41822     41824
     41822     41825     41825     41826     41825     41827     41825     41828
     41828     41829     41828     41830     41828     41831     41831     41832
     41831     41833     41831     41834     41834     41835     41834     41836
     41834     41837     41838     41839     41838     41840     41838     41841
     41838     41842     41842     41843     41842     41844     41842     41845
     41845     41846     41845     41847     41845     41852     41852     41848
     41848     41851     41848     41849     41848     41850     41853     41854
     41853     41855     41853     41856     41853     41851     41856     41857
     41856     41864     41856     41858     41864     41865     41864     41866
     41864     41867     41858     41859     41859     41861     41859     41860
     41861     41862     41861     41863     41861     41873     41873     41874
     41873     41875     41873     41876     41876     41877     41876     41878
     41876     41879     41879     41880     41879     41881     41879     41882
     41882     41883     41882     41884     41882     41885     41885     41886
     41885     41887     41885     41888     41888     41889     41888     41890
     41888     41891     41891     41892     41891     41893     41893     41894
     41893     41895     41895     41896     41895     41897     41895     41898
     41898     41899     41898     41900     41898     41901     41901     41902
     41901     41903     41901     41904     41904     41905     41904     41906
     41904     41907     41907     41908     41907     41909     41907     41910
     41910     41911     41910     41912     41910     41913     41913     41914
     41913     41915     41913     41916     41916     41917     41916     41918
     41916     41919     41867     41868     41868     41870     41868     41869
     41870     41871     41870     41872     41870     41920     41920     41921
     41920     41922     41920     41923     41923     41924     41923     41925
     41923     41926     41926     41927     41926     41928     41926     41929
     41929     41930     41929     41931     41929     41932     41932     41933
     41932     41934     41932     41935     41935     41936     41935     41937
     41935     41938     41938     41939     41938     41940     41938     41941
     41941     41942     41941     41943     41941     41944     41944     41945
     41944     41946     41944     41947     41947     41948     41947     41949
     41947     41950     41950     41951     41950     41952     41950     41953
     41953     41954     41953     41955     41953     41956     41956     41957
     41956     41958     41956     41959     41959     41960     41959     41961
     41959     41962     41963     41967     41963     41971     41963     41975
     41967     41968     41967     41969     41967     41970     41971     41972
     41971     41973     41971     41974     41975     41976     41975     41977
     41975     41978     41963     41964     41964     41965     41964     41966
     41964     41979     41979     41980     41979     41981     41979     41985
     41986     41987     41985     41982     41982     41986     41982     41983
     41982     41984     41987     41988     41987     41989     41987     41990
     41990     41991     41990     41998     41990     41992     41998     41999
     41998     42000     41998     42001     41992     41993     41993     41995
     41993     41994     41995     41996     41995     41997     41995     42007
     42007     42008     42007     42009     42007     42010     42010     42011
     42010     42012     42010     42013     42013     42014     42013     42015
     42013     42016     42016     42017     42016     42018     42016     42019
     42019     42020     42019     42021     42019     42022     42022     42023
     42022     42024     42022     42025     42025     42026     42025     42027
     42027     42028     42027     42029     42029     42030     42029     42031
     42029     42032     42032     42033     42032     42034     42032     42035
     42035     42036     42035     42037     42035     42038     42038     42039
     42038     42040     42038     42041     42041     42042     42041     42043
     42041     42044     42044     42045     42044     42046     42044     42047
     42047     42048     42047     42049     42047     42050     42050     42051
     42050     42052     42050     42053     42001     42002     42002     42004
     42002     42003     42004     42005     42004     42006     42004     42054
     42054     42055     42054     42056     42054     42057     42057     42058
     42057     42059     42057     42060     42060     42061     42060     42062
     42060     42063     42063     42064     42063     42065     42063     42066
     42066     42067     42066     42068     42066     42069     42069     42070
     42069     42071     42069     42072     42072     42073     42072     42074
     42072     42075     42075     42076     42075     42077     42075     42078
     42078     42079     42078     42080     42078     42081     42081     42082
     42081     42083     42081     42084     42084     42085     42084     42086
     42084     42087     42087     42088     42087     42089     42087     42090
     42090     42091     42090     42092     42090     42093     42093     42094
     42093     42095     42093     42096     42097     42098     42097     42099
     42097     42100     42097     42101     42101     42102     42101     42103
     42101     42104     42104     42105     42104     42106     42104     42111
     42111     42107     42107     42110     42107     42108     42107     42109
     42112     42113     42112     42114     42112     42115     42112     42110
     42115     42116     42115     42123     42115     42117     42123     42124
     42123     42125     42123     42126     42117     42118     42118     42120
     42118     42119     42120     42121     42120     42122     42120     42132
     42132     42133     42132     42134     42132     42135     42135     42136
     42135     42137     42135     42138     42138     42139     42138     42140
     42138     42141     42141     42142     42141     42143     42141     42144
     42144     42145     42144     42146     42144     42147     42147     42148
     42147     42149     42147     42150     42150     42151     42150     42152
     42152     42153     42152     42154     42154     42155     42154     42156
     42154     42157     42157     42158     42157     42159     42157     42160
     42160     42161     42160     42162     42160     42163     42163     42164
     42163     42165     42163     42166     42166     42167     42166     42168
     42166     42169     42169     42170     42169     42171     42169     42172
     42172     42173     42172     42174     42172     42175     42175     42176
     42175     42177     42175     42178     42126     42127     42127     42129
     42127     42128     42129     42130     42129     42131     42129     42179
     42179     42180     42179     42181     42179     42182     42182     42183
     42182     42184     42182     42185     42185     42186     42185     42187
     42185     42188     42188     42189     42188     42190     42188     42191
     42191     42192     42191     42193     42191     42194     42194     42195
     42194     42196     42194     42197     42197     42198     42197     42199
     42197     42200     42200     42201     42200     42202     42200     42203
     42203     42204     42203     42205     42203     42206     42206     42207
     42206     42208     42206     42209     42209     42210     42209     42211
     42209     42212     42212     42213     42212     42214     42212     42215
     42215     42216     42215     42217     42215     42218     42218     42219
     42218     42220     42218     42221     42222     42223     42222     42224
     42222     42225     42222     42226     42226     42227     42226     42228
     42226     42229     42229     42230     42229     42231     42229     42236
     42236     42232     42232     42235     42232     42233     42232     42234
     42237     42238     42237     42239     42237     42240     42237     42235
     42240     42241     42240     42248     42240     42242     42248     42249
     42248     42250     42248     42251     42242     42243     42243     42245
     42243     42244     42245     42246     42245     42247     42245     42257
     42257     42258     42257     42259     42257     42260     42260     42261
     42260     42262     42260     42263     42263     42264     42263     42265
     42263     42266     42266     42267     42266     42268     42266     42269
     42269     42270     42269     42271     42269     42272     42272     42273
     42272     42274     42272     42275     42275     42276     42275     42277
     42277     42278     42277     42279     42279     42280     42279     42281
     42279     42282     42282     42283     42282     42284     42282     42285
     42285     42286     42285     42287     42285     42288     42288     42289
     42288     42290     42288     42291     42291     42292     42291     42293
     42291     42294     42294     42295     42294     42296     42294     42297
     42297     42298     42297     42299     42297     42300     42300     42301
     42300     42302     42300     42303     42251     42252     42252     42254
     42252     42253     42254     42255     42254     42256     42254     42304
     42304     42305     42304     42306     42304     42307     42307     42308
     42307     42309     42307     42310     42310     42311     42310     42312
     42310     42313     42313     42314     42313     42315     42313     42316
     42316     42317     42316     42318     42316     42319     42319     42320
     42319     42321     42319     42322     42322     42323     42322     42324
     42322     42325     42325     42326     42325     42327     42325     42328
     42328     42329     42328     42330     42328     42331     42331     42332
     42331     42333     42331     42334     42334     42335     42334     42336
     42334     42337     42337     42338     42337     42339     42337     42340
     42340     42341     42340     42342     42340     42343     42343     42344
     42343     42345     42343     42346     42347     42348     42347     42349
     42347     42350     42347     42351     42351     42352     42351     42353
     42351     42354     42354     42355     42354     42356     42354     42361
     42361     42357     42357     42360     42357     42358     42357     42359
     42362     42363     42362     42364     42362     42365     42362     42360
     42365     42366     42365     42373     42365     42367     42373     42374
     42373     42375     42373     42376     42367     42368     42368     42370
     42368     42369     42370     42371     42370     42372     42370     42382
     42382     42383     42382     42384     42382     42385     42385     42386
     42385     42387     42385     42388     42388     42389     42388     42390
     42388     42391     42391     42392     42391     42393     42391     42394
     42394     42395     42394     42396     42394     42397     42397     42398
     42397     42399     42397     42400     42400     42401     42400     42402
     42402     42403     42402     42404     42404     42405     42404     42406
     42404     42407     42407     42408     42407     42409     42407     42410
     42410     42411     42410     42412     42410     42413     42413     42414
     42413     42415     42413     42416     42416     42417     42416     42418
     42416     42419     42419     42420     42419     42421     42419     42422
     42422     42423     42422     42424     42422     42425     42425     42426
     42425     42427     42425     42428     42376     42377     42377     42379
     42377     42378     42379     42380     42379     42381     42379     42429
     42429     42430     42429     42431     42429     42432     42432     42433
     42432     42434     42432     42435     42435     42436     42435     42437
     42435     42438     42438     42439     42438     42440     42438     42441
     42441     42442     42441     42443     42441     42444     42444     42445
     42444     42446     42444     42447     42447     42448     42447     42449
     42447     42450     42450     42451     42450     42452     42450     42453
     42453     42454     42453     42455     42453     42456     42456     42457
     42456     42458     42456     42459     42459     42460     42459     42461
     42459     42462     42462     42463     42462     42464     42462     42465
     42465     42466     42465     42467     42465     42468     42468     42469
     42468     42470     42468     42471     42472     42473     42472     42474
     42472     42475     42472     42476     42476     42477     42476     42478
     42476     42479     42479     42480     42479     42481     42479     42486
     42486     42482     42482     42485     42482     42483     42482     42484
     42487     42488     42487     42489     42487     42490     42487     42485
     42490     42491     42490     42498     42490     42492     42498     42499
     42498     42500     42498     42501     42492     42493     42493     42495
     42493     42494     42495     42496     42495     42497     42495     42507
     42507     42508     42507     42509     42507     42510     42510     42511
     42510     42512     42510     42513     42513     42514     42513     42515
     42513     42516     42516     42517     42516     42518     42516     42519
     42519     42520     42519     42521     42519     42522     42522     42523
     42522     42524     42522     42525     42525     42526     42525     42527
     42527     42528     42527     42529     42529     42530     42529     42531
     42529     42532     42532     42533     42532     42534     42532     42535
     42535     42536     42535     42537     42535     42538     42538     42539
     42538     42540     42538     42541     42541     42542     42541     42543
     42541     42544     42544     42545     42544     42546     42544     42547
     42547     42548     42547     42549     42547     42550     42550     42551
     42550     42552     42550     42553     42501     42502     42502     42504
     42502     42503     42504     42505     42504     42506     42504     42554
     42554     42555     42554     42556     42554     42557     42557     42558
     42557     42559     42557     42560     42560     42561     42560     42562
     42560     42563     42563     42564     42563     42565     42563     42566
     42566     42567     42566     42568     42566     42569     42569     42570
     42569     42571     42569     42572     42572     42573     42572     42574
     42572     42575     42575     42576     42575     42577     42575     42578
     42578     42579     42578     42580     42578     42581     42581     42582
     42581     42583     42581     42584     42584     42585     42584     42586
     42584     42587     42587     42588     42587     42589     42587     42590
     42590     42591     42590     42592     42590     42593     42593     42594
     42593     42595     42593     42596     42597     42598     42597     42599
     42597     42600     42597     42601     42601     42602     42601     42603
     42601     42604     42604     42605     42604     42606     42604     42611
     42611     42607     42607     42610     42607     42608     42607     42609
     42612     42613     42612     42614     42612     42615     42612     42610
     42615     42616     42615     42623     42615     42617     42623     42624
     42623     42625     42623     42626     42617     42618     42618     42620
     42618     42619     42620     42621     42620     42622     42620     42632
     42632     42633     42632     42634     42632     42635     42635     42636
     42635     42637     42635     42638     42638     42639     42638     42640
     42638     42641     42641     42642     42641     42643     42641     42644
     42644     42645     42644     42646     42644     42647     42647     42648
     42647     42649     42647     42650     42650     42651     42650     42652
     42652     42653     42652     42654     42654     42655     42654     42656
     42654     42657     42657     42658     42657     42659     42657     42660
     42660     42661     42660     42662     42660     42663     42663     42664
     42663     42665     42663     42666     42666     42667     42666     42668
     42666     42669     42669     42670     42669     42671     42669     42672
     42672     42673     42672     42674     42672     42675     42675     42676
     42675     42677     42675     42678     42626     42627     42627     42629
     42627     42628     42629     42630     42629     42631     42629     42679
     42679     42680     42679     42681     42679     42682     42682     42683
     42682     42684     42682     42685     42685     42686     42685     42687
     42685     42688     42688     42689     42688     42690     42688     42691
     42691     42692     42691     42693     42691     42694     42694     42695
     42694     42696     42694     42697     42697     42698     42697     42699
     42697     42700     42700     42701     42700     42702     42700     42703
     42703     42704     42703     42705     42703     42706     42706     42707
     42706     42708     42706     42709     42709     42710     42709     42711
     42709     42712     42712     42713     42712     42714     42712     42715
     42715     42716     42715     42717     42715     42718     42718     42719
     42718     42720     42718     42721     42722     42723     42722     42724
     42722     42725     42722     42726     42726     42727     42726     42728
     42726     42729     42729     42730     42729     42731     42729     42736
     42736     42732     42732     42735     42732     42733     42732     42734
     42737     42738     42737     42739     42737     42740     42737     42735
     42740     42741     42740     42748     42740     42742     42748     42749
     42748     42750     42748     42751     42742     42743     42743     42745
     42743     42744     42745     42746     42745     42747     42745     42757
     42757     42758     42757     42759     42757     42760     42760     42761
     42760     42762     42760     42763     42763     42764     42763     42765
     42763     42766     42766     42767     42766     42768     42766     42769
     42769     42770     42769     42771     42769     42772     42772     42773
     42772     42774     42772     42775     42775     42776     42775     42777
     42777     42778     42777     42779     42779     42780     42779     42781
     42779     42782     42782     42783     42782     42784     42782     42785
     42785     42786     42785     42787     42785     42788     42788     42789
     42788     42790     42788     42791     42791     42792     42791     42793
     42791     42794     42794     42795     42794     42796     42794     42797
     42797     42798     42797     42799     42797     42800     42800     42801
     42800     42802     42800     42803     42751     42752     42752     42754
     42752     42753     42754     42755     42754     42756     42754     42804
     42804     42805     42804     42806     42804     42807     42807     42808
     42807     42809     42807     42810     42810     42811     42810     42812
     42810     42813     42813     42814     42813     42815     42813     42816
     42816     42817     42816     42818     42816     42819     42819     42820
     42819     42821     42819     42822     42822     42823     42822     42824
     42822     42825     42825     42826     42825     42827     42825     42828
     42828     42829     42828     42830     42828     42831     42831     42832
     42831     42833     42831     42834     42834     42835     42834     42836
     42834     42837     42837     42838     42837     42839     42837     42840
     42840     42841     42840     42842     42840     42843     42843     42844
     42843     42845     42843     42846

     82800 !NTHETA: angles
         1         3         4         1         5         6         1         5         7
         1         5         8         1        47        44         1        47        48
         1        47        49         2         1         3         2         1         5
         2         1        47         3         1         5         3         1        47
         5         1        47         5         8         9         5         8        39
         6         5         7         6         5         8         7         5         8
         8         9        10         8         9        11         8        39        37
         8        39        40         8        39        44         9         8        39
         9        11        12         9        11        13         9        11        14
        10         9        11        11        14        15        11        14        16
        11        14        37        12        11        13        12        11        14
        13        11        14        14        16        17        14        16        18
        14        16        26        14        37        34        14        37        38
        14        37        39        15        14        16        15        14        37
        16        14        37        16        18        19        16        18        20
        16        18        21        16        26        24        16        26        27
        16        26        31        17        16        18        17        16        26
        18        16        26        18        21        22        18        21        23
        18        21        24        19        18        20        19        18        21
        20        18        21        21        24        25        21        24        26
        21        24        50        22        21        23        22        21        24
        23        21        24        24        26        27        24        26        31
        24        50        51        24        50        52        24        50        56
        25        24        26        25        24        50        26        24        50
        26        27        28        26        27        29        26        27        30
        26        31        32        26        31        33        26        31        34
        27        26        31        28        27        29        28        27        30
        29        27        30        31        34        35        31        34        36
        31        34        37        32        31        33        32        31        34
        33        31        34        34        37        38        34        37        39
        35        34        36        35        34        37        36        34        37
        37        39        40        37        39        44        38        37        39
        39        40        41        39        40        42        39        40        43
        39        44        45        39        44        46        39        44        47
        40        39        44        41        40        42        41        40        43
        42        40        43        44        47        48        44        47        49
        45        44        46        45        44        47        46        44        47
        48        47        49        50        52        53        50        52        54
        50        52        55        50        56        57        50        56        58
        50        56        59        51        50        52        51        50        56
        52        50        56        53        52        54        53        52        55
        54        52        55        56        59        60        56        59        61
        56        59        62        57        56        58        57        56        59
        58        56        59        59        62        63        59        62        64
        59        62        65        60        59        61        60        59        62
        61        59        62        62        65        66        62        65        67
        62        65        71        63        62        64        63        62        65
        64        62        65        65        67        68        65        67        69
        65        67        70        65        71        72        65        71        73
        65        71        74        66        65        67        66        65        71
        67        65        71        68        67        69        68        67        70
        69        67        70        72        71        73        72        71        74
        73        71        74        75        77        78        75        79        80
        75        79        81        75        79        82        75       121       118
        75       121       122        75       121       123        76        75        77
        76        75        79        76        75       121        77        75        79
        77        75       121        79        75       121        79        82        83
        79        82       113        80        79        81        80        79        82
        81        79        82        82        83        84        82        83        85
        82       113       111        82       113       114        82       113       118
        83        82       113        83        85        86        83        85        87
        83        85        88        84        83        85        85        88        89
        85        88        90        85        88       111        86        85        87
        86        85        88        87        85        88        88        90        91
        88        90        92        88        90       100        88       111       108
        88       111       112        88       111       113        89        88        90
        89        88       111        90        88       111        90        92        93
        90        92        94        90        92        95        90       100        98
        90       100       101        90       100       105        91        90        92
        91        90       100        92        90       100        92        95        96
        92        95        97        92        95        98        93        92        94
        93        92        95        94        92        95        95        98        99
        95        98       100        95        98       124        96        95        97
        96        95        98        97        95        98        98       100       101
        98       100       105        98       124       125        98       124       126
        98       124       130        99        98       100        99        98       124
       100        98       124       100       101       102       100       101       103
       100       101       104       100       105       106       100       105       107
       100       105       108       101       100       105       102       101       103
       102       101       104       103       101       104       105       108       109
       105       108       110       105       108       111       106       105       107
       106       105       108       107       105       108       108       111       112
       108       111       113       109       108       110       109       108       111
       110       108       111       111       113       114       111       113       118
       112       111       113       113       114       115       113       114       116
       113       114       117       113       118       119       113       118       120
       113       118       121       114       113       118       115       114       116
       115       114       117       116       114       117       118       121       122
       118       121       123       119       118       120       119       118       121
       120       118       121       122       121       123       124       126       127
       124       126       128       124       126       129       124       130       131
       124       130       132       124       130       133       125       124       126
       125       124       130       126       124       130       127       126       128
       127       126       129       128       126       129       130       133       134
       130       133       135       130       133       136       131       130       132
       131       130       133       132       130       133       133       136       137
       133       136       138       133       136       139       134       133       135
       134       133       136       135       133       136       136       139       140
       136       139       141       136       139       145       137       136       138
       137       136       139       138       136       139       139       141       142
       139       141       143       139       141       144       139       145       146
       139       145       147       139       145       148       140       139       141
       140       139       145       141       139       145       142       141       143
       142       141       144       143       141       144       146       145       147
       146       145       148       147       145       148       149       151       152
       149       153       154       149       153       155       149       153       156
       149       195       192       149       195       196       149       195       197
       150       149       151       150       149       153       150       149       195
       151       149       153       151       149       195       153       149       195
       153       156       157       153       156       187       154       153       155
       154       153       156       155       153       156       156       157       158
       156       157       159       156       187       185       156       187       188
       156       187       192       157       156       187       157       159       160
       157       159       161       157       159       162       158       157       159
       159       162       163       159       162       164       159       162       185
       160       159       161       160       159       162       161       159       162
       162       164       165       162       164       166       162       164       174
       162       185       182       162       185       186       162       185       187
       163       162       164       163       162       185       164       162       185
       164       166       167       164       166       168       164       166       169
       164       174       172       164       174       175       164       174       179
       165       164       166       165       164       174       166       164       174
       166       169       170       166       169       171       166       169       172
       167       166       168       167       166       169       168       166       169
       169       172       173       169       172       174       169       172       198
       170       169       171       170       169       172       171       169       172
       172       174       175       172       174       179       172       198       199
       172       198       200       172       198       204       173       172       174
       173       172       198       174       172       198       174       175       176
       174       175       177       174       175       178       174       179       180
       174       179       181       174       179       182       175       174       179
       176       175       177       176       175       178       177       175       178
       179       182       183       179       182       184       179       182       185
       180       179       181       180       179       182       181       179       182
       182       185       186       182       185       187       183       182       184
       183       182       185       184       182       185       185       187       188
       185       187       192       186       185       187       187       188       189
       187       188       190       187       188       191       187       192       193
       187       192       194       187       192       195       188       187       192
       189       188       190       189       188       191       190       188       191
       192       195       196       192       195       197       193       192       194
       193       192       195       194       192       195       196       195       197
       198       200       201       198       200       202       198       200       203
       198       204       205       198       204       206       198       204       207
       199       198       200       199       198       204       200       198       204
       201       200       202       201       200       203       202       200       203
       204       207       208       204       207       209       204       207       210
       205       204       206       205       204       207       206       204       207
       207       210       211       207       210       212       207       210       213
       208       207       209       208       207       210       209       207       210
       210       213       214       210       213       215       210       213       219
       211       210       212       211       210       213       212       210       213
       213       215       216       213       215       217       213       215       218
       213       219       220       213       219       221       213       219       222
       214       213       215       214       213       219       215       213       219
       216       215       217       216       215       218       217       215       218
       220       219       221       220       219       222       221       219       222
       223       225       226       223       227       228       223       227       229
       223       227       230       223       269       266       223       269       270
       223       269       271       224       223       225       224       223       227
       224       223       269       225       223       227       225       223       269
       227       223       269       227       230       231       227       230       261
       228       227       229       228       227       230       229       227       230
       230       231       232       230       231       233       230       261       259
       230       261       262       230       261       266       231       230       261
       231       233       234       231       233       235       231       233       236
       232       231       233       233       236       237       233       236       238
       233       236       259       234       233       235       234       233       236
       235       233       236       236       238       239       236       238       240
       236       238       248       236       259       256       236       259       260
       236       259       261       237       236       238       237       236       259
       238       236       259       238       240       241       238       240       242
       238       240       243       238       248       246       238       248       249
       238       248       253       239       238       240       239       238       248
       240       238       248       240       243       244       240       243       245
       240       243       246       241       240       242       241       240       243
       242       240       243       243       246       247       243       246       248
       243       246       272       244       243       245       244       243       246
       245       243       246       246       248       249       246       248       253
       246       272       273       246       272       274       246       272       278
       247       246       248       247       246       272       248       246       272
       248       249       250       248       249       251       248       249       252
       248       253       254       248       253       255       248       253       256
       249       248       253       250       249       251       250       249       252
       251       249       252       253       256       257       253       256       258
       253       256       259       254       253       255       254       253       256
       255       253       256       256       259       260       256       259       261
       257       256       258       257       256       259       258       256       259
       259       261       262       259       261       266       260       259       261
       261       262       263       261       262       264       261       262       265
       261       266       267       261       266       268       261       266       269
       262       261       266       263       262       264       263       262       265
       264       262       265       266       269       270       266       269       271
       267       266       268       267       266       269       268       266       269
       270       269       271       272       274       275       272       274       276
       272       274       277       272       278       279       272       278       280
       272       278       281       273       272       274       273       272       278
       274       272       278       275       274       276       275       274       277
       276       274       277       278       281       282       278       281       283
       278       281       284       279       278       280       279       278       281
       280       278       281       281       284       285       281       284       286
       281       284       287       282       281       283       282       281       284
       283       281       284       284       287       288       284       287       289
       284       287       293       285       284       286       285       284       287
       286       284       287       287       289       290       287       289       291
       287       289       292       287       293       294       287       293       295
       287       293       296       288       287       289       288       287       293
       289       287       293       290       289       291       290       289       292
       291       289       292       294       293       295       294       293       296
       295       293       296       297       299       300       297       301       302
       297       301       303       297       301       304       297       343       340
       297       343       344       297       343       345       298       297       299
       298       297       301       298       297       343       299       297       301
       299       297       343       301       297       343       301       304       305
       301       304       335       302       301       303       302       301       304
       303       301       304       304       305       306       304       305       307
       304       335       333       304       335       336       304       335       340
       305       304       335       305       307       308       305       307       309
       305       307       310       306       305       307       307       310       311
       307       310       312       307       310       333       308       307       309
       308       307       310       309       307       310       310       312       313
       310       312       314       310       312       322       310       333       330
       310       333       334       310       333       335       311       310       312
       311       310       333       312       310       333       312       314       315
       312       314       316       312       314       317       312       322       320
       312       322       323       312       322       327       313       312       314
       313       312       322       314       312       322       314       317       318
       314       317       319       314       317       320       315       314       316
       315       314       317       316       314       317       317       320       321
       317       320       322       317       320       346       318       317       319
       318       317       320       319       317       320       320       322       323
       320       322       327       320       346       347       320       346       348
       320       346       352       321       320       322       321       320       346
       322       320       346       322       323       324       322       323       325
       322       323       326       322       327       328       322       327       329
       322       327       330       323       322       327       324       323       325
       324       323       326       325       323       326       327       330       331
       327       330       332       327       330       333       328       327       329
       328       327       330       329       327       330       330       333       334
       330       333       335       331       330       332       331       330       333
       332       330       333       333       335       336       333       335       340
       334       333       335       335       336       337       335       336       338
       335       336       339       335       340       341       335       340       342
       335       340       343       336       335       340       337       336       338
       337       336       339       338       336       339       340       343       344
       340       343       345       341       340       342       341       340       343
       342       340       343       344       343       345       346       348       349
       346       348       350       346       348       351       346       352       353
       346       352       354       346       352       355       347       346       348
       347       346       352       348       346       352       349       348       350
       349       348       351       350       348       351       352       355       356
       352       355       357       352       355       358       353       352       354
       353       352       355       354       352       355       355       358       359
       355       358       360       355       358       361       356       355       357
       356       355       358       357       355       358       358       361       362
       358       361       363       358       361       367       359       358       360
       359       358       361       360       358       361       361       363       364
       361       363       365       361       363       366       361       367       368
       361       367       369       361       367       370       362       361       363
       362       361       367       363       361       367       364       363       365
       364       363       366       365       363       366       368       367       369
       368       367       370       369       367       370       371       373       374
       371       375       376       371       375       377       371       375       378
       371       417       414       371       417       418       371       417       419
       372       371       373       372       371       375       372       371       417
       373       371       375       373       371       417       375       371       417
       375       378       379       375       378       409       376       375       377
       376       375       378       377       375       378       378       379       380
       378       379       381       378       409       407       378       409       410
       378       409       414       379       378       409       379       381       382
       379       381       383       379       381       384       380       379       381
       381       384       385       381       384       386       381       384       407
       382       381       383       382       381       384       383       381       384
       384       386       387       384       386       388       384       386       396
       384       407       404       384       407       408       384       407       409
       385       384       386       385       384       407       386       384       407
       386       388       389       386       388       390       386       388       391
       386       396       394       386       396       397       386       396       401
       387       386       388       387       386       396       388       386       396
       388       391       392       388       391       393       388       391       394
       389       388       390       389       388       391       390       388       391
       391       394       395       391       394       396       391       394       420
       392       391       393       392       391       394       393       391       394
       394       396       397       394       396       401       394       420       421
       394       420       422       394       420       426       395       394       396
       395       394       420       396       394       420       396       397       398
       396       397       399       396       397       400       396       401       402
       396       401       403       396       401       404       397       396       401
       398       397       399       398       397       400       399       397       400
       401       404       405       401       404       406       401       404       407
       402       401       403       402       401       404       403       401       404
       404       407       408       404       407       409       405       404       406
       405       404       407       406       404       407       407       409       410
       407       409       414       408       407       409       409       410       411
       409       410       412       409       410       413       409       414       415
       409       414       416       409       414       417       410       409       414
       411       410       412       411       410       413       412       410       413
       414       417       418       414       417       419       415       414       416
       415       414       417       416       414       417       418       417       419
       420       422       423       420       422       424       420       422       425
       420       426       427       420       426       428       420       426       429
       421       420       422       421       420       426       422       420       426
       423       422       424       423       422       425       424       422       425
       426       429       430       426       429       431       426       429       432
       427       426       428       427       426       429       428       426       429
       429       432       433       429       432       434       429       432       435
       430       429       431       430       429       432       431       429       432
       432       435       436       432       435       437       432       435       441
       433       432       434       433       432       435       434       432       435
       435       437       438       435       437       439       435       437       440
       435       441       442       435       441       443       435       441       444
       436       435       437       436       435       441       437       435       441
       438       437       439       438       437       440       439       437       440
       442       441       443       442       441       444       443       441       444
       445       447       448       445       449       450       445       449       451
       445       449       452       445       491       488       445       491       492
       445       491       493       446       445       447       446       445       449
       446       445       491       447       445       449       447       445       491
       449       445       491       449       452       453       449       452       483
       450       449       451       450       449       452       451       449       452
       452       453       454       452       453       455       452       483       481
       452       483       484       452       483       488       453       452       483
       453       455       456       453       455       457       453       455       458
       454       453       455       455       458       459       455       458       460
       455       458       481       456       455       457       456       455       458
       457       455       458       458       460       461       458       460       462
       458       460       470       458       481       478       458       481       482
       458       481       483       459       458       460       459       458       481
       460       458       481       460       462       463       460       462       464
       460       462       465       460       470       468       460       470       471
       460       470       475       461       460       462       461       460       470
       462       460       470       462       465       466       462       465       467
       462       465       468       463       462       464       463       462       465
       464       462       465       465       468       469       465       468       470
       465       468       494       466       465       467       466       465       468
       467       465       468       468       470       471       468       470       475
       468       494       495       468       494       496       468       494       500
       469       468       470       469       468       494       470       468       494
       470       471       472       470       471       473       470       471       474
       470       475       476       470       475       477       470       475       478
       471       470       475       472       471       473       472       471       474
       473       471       474       475       478       479       475       478       480
       475       478       481       476       475       477       476       475       478
       477       475       478       478       481       482       478       481       483
       479       478       480       479       478       481       480       478       481
       481       483       484       481       483       488       482       481       483
       483       484       485       483       484       486       483       484       487
       483       488       489       483       488       490       483       488       491
       484       483       488       485       484       486       485       484       487
       486       484       487       488       491       492       488       491       493
       489       488       490       489       488       491       490       488       491
       492       491       493       494       496       497       494       496       498
       494       496       499       494       500       501       494       500       502
       494       500       503       495       494       496       495       494       500
       496       494       500       497       496       498       497       496       499
       498       496       499       500       503       504       500       503       505
       500       503       506       501       500       502       501       500       503
       502       500       503       503       506       507       503       506       508
       503       506       509       504       503       505       504       503       506
       505       503       506       506       509       510       506       509       511
       506       509       515       507       506       508       507       506       509
       508       506       509       509       511       512       509       511       513
       509       511       514       509       515       516       509       515       517
       509       515       518       510       509       511       510       509       515
       511       509       515       512       511       513       512       511       514
       513       511       514       516       515       517       516       515       518
       517       515       518       519       521       522       519       523       524
       519       523       525       519       523       526       519       565       562
       519       565       566       519       565       567       520       519       521
       520       519       523       520       519       565       521       519       523
       521       519       565       523       519       565       523       526       527
       523       526       557       524       523       525       524       523       526
       525       523       526       526       527       528       526       527       529
       526       557       555       526       557       558       526       557       562
       527       526       557       527       529       530       527       529       531
       527       529       532       528       527       529       529       532       533
       529       532       534       529       532       555       530       529       531
       530       529       532       531       529       532       532       534       535
       532       534       536       532       534       544       532       555       552
       532       555       556       532       555       557       533       532       534
       533       532       555       534       532       555       534       536       537
       534       536       538       534       536       539       534       544       542
       534       544       545       534       544       549       535       534       536
       535       534       544       536       534       544       536       539       540
       536       539       541       536       539       542       537       536       538
       537       536       539       538       536       539       539       542       543
       539       542       544       539       542       568       540       539       541
       540       539       542       541       539       542       542       544       545
       542       544       549       542       568       569       542       568       570
       542       568       574       543       542       544       543       542       568
       544       542       568       544       545       546       544       545       547
       544       545       548       544       549       550       544       549       551
       544       549       552       545       544       549       546       545       547
       546       545       548       547       545       548       549       552       553
       549       552       554       549       552       555       550       549       551
       550       549       552       551       549       552       552       555       556
       552       555       557       553       552       554       553       552       555
       554       552       555       555       557       558       555       557       562
       556       555       557       557       558       559       557       558       560
       557       558       561       557       562       563       557       562       564
       557       562       565       558       557       562       559       558       560
       559       558       561       560       558       561       562       565       566
       562       565       567       563       562       564       563       562       565
       564       562       565       566       565       567       568       570       571
       568       570       572       568       570       573       568       574       575
       568       574       576       568       574       577       569       568       570
       569       568       574       570       568       574       571       570       572
       571       570       573       572       570       573       574       577       578
       574       577       579       574       577       580       575       574       576
       575       574       577       576       574       577       577       580       581
       577       580       582       577       580       583       578       577       579
       578       577       580       579       577       580       580       583       584
       580       583       585       580       583       589       581       580       582
       581       580       583       582       580       583       583       585       586
       583       585       587       583       585       588       583       589       590
       583       589       591       583       589       592       584       583       585
       584       583       589       585       583       589       586       585       587
       586       585       588       587       585       588       590       589       591
       590       589       592       591       589       592       593       595       596
       593       597       598       593       597       599       593       597       600
       593       639       636       593       639       640       593       639       641
       594       593       595       594       593       597       594       593       639
       595       593       597       595       593       639       597       593       639
       597       600       601       597       600       631       598       597       599
       598       597       600       599       597       600       600       601       602
       600       601       603       600       631       629       600       631       632
       600       631       636       601       600       631       601       603       604
       601       603       605       601       603       606       602       601       603
       603       606       607       603       606       608       603       606       629
       604       603       605       604       603       606       605       603       606
       606       608       609       606       608       610       606       608       618
       606       629       626       606       629       630       606       629       631
       607       606       608       607       606       629       608       606       629
       608       610       611       608       610       612       608       610       613
       608       618       616       608       618       619       608       618       623
       609       608       610       609       608       618       610       608       618
       610       613       614       610       613       615       610       613       616
       611       610       612       611       610       613       612       610       613
       613       616       617       613       616       618       613       616       642
       614       613       615       614       613       616       615       613       616
       616       618       619       616       618       623       616       642       643
       616       642       644       616       642       648       617       616       618
       617       616       642       618       616       642       618       619       620
       618       619       621       618       619       622       618       623       624
       618       623       625       618       623       626       619       618       623
       620       619       621       620       619       622       621       619       622
       623       626       627       623       626       628       623       626       629
       624       623       625       624       623       626       625       623       626
       626       629       630       626       629       631       627       626       628
       627       626       629       628       626       629       629       631       632
       629       631       636       630       629       631       631       632       633
       631       632       634       631       632       635       631       636       637
       631       636       638       631       636       639       632       631       636
       633       632       634       633       632       635       634       632       635
       636       639       640       636       639       641       637       636       638
       637       636       639       638       636       639       640       639       641
       642       644       645       642       644       646       642       644       647
       642       648       649       642       648       650       642       648       651
       643       642       644       643       642       648       644       642       648
       645       644       646       645       644       647       646       644       647
       648       651       652       648       651       653       648       651       654
       649       648       650       649       648       651       650       648       651
       651       654       655       651       654       656       651       654       657
       652       651       653       652       651       654       653       651       654
       654       657       658       654       657       659       654       657       663
       655       654       656       655       654       657       656       654       657
       657       659       660       657       659       661       657       659       662
       657       663       664       657       663       665       657       663       666
       658       657       659       658       657       663       659       657       663
       660       659       661       660       659       662       661       659       662
       664       663       665       664       663       666       665       663       666
       667       669       670       667       671       672       667       671       673
       667       671       674       667       713       710       667       713       714
       667       713       715       668       667       669       668       667       671
       668       667       713       669       667       671       669       667       713
       671       667       713       671       674       675       671       674       705
       672       671       673       672       671       674       673       671       674
       674       675       676       674       675       677       674       705       703
       674       705       706       674       705       710       675       674       705
       675       677       678       675       677       679       675       677       680
       676       675       677       677       680       681       677       680       682
       677       680       703       678       677       679       678       677       680
       679       677       680       680       682       683       680       682       684
       680       682       692       680       703       700       680       703       704
       680       703       705       681       680       682       681       680       703
       682       680       703       682       684       685       682       684       686
       682       684       687       682       692       690       682       692       693
       682       692       697       683       682       684       683       682       692
       684       682       692       684       687       688       684       687       689
       684       687       690       685       684       686       685       684       687
       686       684       687       687       690       691       687       690       692
       687       690       716       688       687       689       688       687       690
       689       687       690       690       692       693       690       692       697
       690       716       717       690       716       718       690       716       722
       691       690       692       691       690       716       692       690       716
       692       693       694       692       693       695       692       693       696
       692       697       698       692       697       699       692       697       700
       693       692       697       694       693       695       694       693       696
       695       693       696       697       700       701       697       700       702
       697       700       703       698       697       699       698       697       700
       699       697       700       700       703       704       700       703       705
       701       700       702       701       700       703       702       700       703
       703       705       706       703       705       710       704       703       705
       705       706       707       705       706       708       705       706       709
       705       710       711       705       710       712       705       710       713
       706       705       710       707       706       708       707       706       709
       708       706       709       710       713       714       710       713       715
       711       710       712       711       710       713       712       710       713
       714       713       715       716       718       719       716       718       720
       716       718       721       716       722       723       716       722       724
       716       722       725       717       716       718       717       716       722
       718       716       722       719       718       720       719       718       721
       720       718       721       722       725       726       722       725       727
       722       725       728       723       722       724       723       722       725
       724       722       725       725       728       729       725       728       730
       725       728       731       726       725       727       726       725       728
       727       725       728       728       731       732       728       731       733
       728       731       737       729       728       730       729       728       731
       730       728       731       731       733       734       731       733       735
       731       733       736       731       737       738       731       737       739
       731       737       740       732       731       733       732       731       737
       733       731       737       734       733       735       734       733       736
       735       733       736       738       737       739       738       737       740
       739       737       740       741       743       744       741       745       746
       741       745       747       741       745       748       741       787       784
       741       787       788       741       787       789       742       741       743
       742       741       745       742       741       787       743       741       745
       743       741       787       745       741       787       745       748       749
       745       748       779       746       745       747       746       745       748
       747       745       748       748       749       750       748       749       751
       748       779       777       748       779       780       748       779       784
       749       748       779       749       751       752       749       751       753
       749       751       754       750       749       751       751       754       755
       751       754       756       751       754       777       752       751       753
       752       751       754       753       751       754       754       756       757
       754       756       758       754       756       766       754       777       774
       754       777       778       754       777       779       755       754       756
       755       754       777       756       754       777       756       758       759
       756       758       760       756       758       761       756       766       764
       756       766       767       756       766       771       757       756       758
       757       756       766       758       756       766       758       761       762
       758       761       763       758       761       764       759       758       760
       759       758       761       760       758       761       761       764       765
       761       764       766       761       764       790       762       761       763
       762       761       764       763       761       764       764       766       767
       764       766       771       764       790       791       764       790       792
       764       790       796       765       764       766       765       764       790
       766       764       790       766       767       768       766       767       769
       766       767       770       766       771       772       766       771       773
       766       771       774       767       766       771       768       767       769
       768       767       770       769       767       770       771       774       775
       771       774       776       771       774       777       772       771       773
       772       771       774       773       771       774       774       777       778
       774       777       779       775       774       776       775       774       777
       776       774       777       777       779       780       777       779       784
       778       777       779       779       780       781       779       780       782
       779       780       783       779       784       785       779       784       786
       779       784       787       780       779       784       781       780       782
       781       780       783       782       780       783       784       787       788
       784       787       789       785       784       786       785       784       787
       786       784       787       788       787       789       790       792       793
       790       792       794       790       792       795       790       796       797
       790       796       798       790       796       799       791       790       792
       791       790       796       792       790       796       793       792       794
       793       792       795       794       792       795       796       799       800
       796       799       801       796       799       802       797       796       798
       797       796       799       798       796       799       799       802       803
       799       802       804       799       802       805       800       799       801
       800       799       802       801       799       802       802       805       806
       802       805       807       802       805       811       803       802       804
       803       802       805       804       802       805       805       807       808
       805       807       809       805       807       810       805       811       812
       805       811       813       805       811       814       806       805       807
       806       805       811       807       805       811       808       807       809
       808       807       810       809       807       810       812       811       813
       812       811       814       813       811       814       815       817       818
       815       819       820       815       819       821       815       819       822
       815       861       858       815       861       862       815       861       863
       816       815       817       816       815       819       816       815       861
       817       815       819       817       815       861       819       815       861
       819       822       823       819       822       853       820       819       821
       820       819       822       821       819       822       822       823       824
       822       823       825       822       853       851       822       853       854
       822       853       858       823       822       853       823       825       826
       823       825       827       823       825       828       824       823       825
       825       828       829       825       828       830       825       828       851
       826       825       827       826       825       828       827       825       828
       828       830       831       828       830       832       828       830       840
       828       851       848       828       851       852       828       851       853
       829       828       830       829       828       851       830       828       851
       830       832       833       830       832       834       830       832       835
       830       840       838       830       840       841       830       840       845
       831       830       832       831       830       840       832       830       840
       832       835       836       832       835       837       832       835       838
       833       832       834       833       832       835       834       832       835
       835       838       839       835       838       840       835       838       864
       836       835       837       836       835       838       837       835       838
       838       840       841       838       840       845       838       864       865
       838       864       866       838       864       870       839       838       840
       839       838       864       840       838       864       840       841       842
       840       841       843       840       841       844       840       845       846
       840       845       847       840       845       848       841       840       845
       842       841       843       842       841       844       843       841       844
       845       848       849       845       848       850       845       848       851
       846       845       847       846       845       848       847       845       848
       848       851       852       848       851       853       849       848       850
       849       848       851       850       848       851       851       853       854
       851       853       858       852       851       853       853       854       855
       853       854       856       853       854       857       853       858       859
       853       858       860       853       858       861       854       853       858
       855       854       856       855       854       857       856       854       857
       858       861       862       858       861       863       859       858       860
       859       858       861       860       858       861       862       861       863
       864       866       867       864       866       868       864       866       869
       864       870       871       864       870       872       864       870       873
       865       864       866       865       864       870       866       864       870
       867       866       868       867       866       869       868       866       869
       870       873       874       870       873       875       870       873       876
       871       870       872       871       870       873       872       870       873
       873       876       877       873       876       878       873       876       879
       874       873       875       874       873       876       875       873       876
       876       879       880       876       879       881       876       879       885
       877       876       878       877       876       879       878       876       879
       879       881       882       879       881       883       879       881       884
       879       885       886       879       885       887       879       885       888
       880       879       881       880       879       885       881       879       885
       882       881       883       882       881       884       883       881       884
       886       885       887       886       885       888       887       885       888
       889       891       892       889       893       894       889       893       895
       889       893       896       889       935       932       889       935       936
       889       935       937       890       889       891       890       889       893
       890       889       935       891       889       893       891       889       935
       893       889       935       893       896       897       893       896       927
       894       893       895       894       893       896       895       893       896
       896       897       898       896       897       899       896       927       925
       896       927       928       896       927       932       897       896       927
       897       899       900       897       899       901       897       899       902
       898       897       899       899       902       903       899       902       904
       899       902       925       900       899       901       900       899       902
       901       899       902       902       904       905       902       904       906
       902       904       914       902       925       922       902       925       926
       902       925       927       903       902       904       903       902       925
       904       902       925       904       906       907       904       906       908
       904       906       909       904       914       912       904       914       915
       904       914       919       905       904       906       905       904       914
       906       904       914       906       909       910       906       909       911
       906       909       912       907       906       908       907       906       909
       908       906       909       909       912       913       909       912       914
       909       912       938       910       909       911       910       909       912
       911       909       912       912       914       915       912       914       919
       912       938       939       912       938       940       912       938       944
       913       912       914       913       912       938       914       912       938
       914       915       916       914       915       917       914       915       918
       914       919       920       914       919       921       914       919       922
       915       914       919       916       915       917       916       915       918
       917       915       918       919       922       923       919       922       924
       919       922       925       920       919       921       920       919       922
       921       919       922       922       925       926       922       925       927
       923       922       924       923       922       925       924       922       925
       925       927       928       925       927       932       926       925       927
       927       928       929       927       928       930       927       928       931
       927       932       933       927       932       934       927       932       935
       928       927       932       929       928       930       929       928       931
       930       928       931       932       935       936       932       935       937
       933       932       934       933       932       935       934       932       935
       936       935       937       938       940       941       938       940       942
       938       940       943       938       944       945       938       944       946
       938       944       947       939       938       940       939       938       944
       940       938       944       941       940       942       941       940       943
       942       940       943       944       947       948       944       947       949
       944       947       950       945       944       946       945       944       947
       946       944       947       947       950       951       947       950       952
       947       950       953       948       947       949       948       947       950
       949       947       950       950       953       954       950       953       955
       950       953       959       951       950       952       951       950       953
       952       950       953       953       955       956       953       955       957
       953       955       958       953       959       960       953       959       961
       953       959       962       954       953       955       954       953       959
       955       953       959       956       955       957       956       955       958
       957       955       958       960       959       961       960       959       962
       961       959       962       963       965       966       963       967       968
       963       967       969       963       967       970       963      1009      1006
       963      1009      1010       963      1009      1011       964       963       965
       964       963       967       964       963      1009       965       963       967
       965       963      1009       967       963      1009       967       970       971
       967       970      1001       968       967       969       968       967       970
       969       967       970       970       971       972       970       971       973
       970      1001       999       970      1001      1002       970      1001      1006
       971       970      1001       971       973       974       971       973       975
       971       973       976       972       971       973       973       976       977
       973       976       978       973       976       999       974       973       975
       974       973       976       975       973       976       976       978       979
       976       978       980       976       978       988       976       999       996
       976       999      1000       976       999      1001       977       976       978
       977       976       999       978       976       999       978       980       981
       978       980       982       978       980       983       978       988       986
       978       988       989       978       988       993       979       978       980
       979       978       988       980       978       988       980       983       984
       980       983       985       980       983       986       981       980       982
       981       980       983       982       980       983       983       986       987
       983       986       988       983       986      1012       984       983       985
       984       983       986       985       983       986       986       988       989
       986       988       993       986      1012      1013       986      1012      1014
       986      1012      1018       987       986       988       987       986      1012
       988       986      1012       988       989       990       988       989       991
       988       989       992       988       993       994       988       993       995
       988       993       996       989       988       993       990       989       991
       990       989       992       991       989       992       993       996       997
       993       996       998       993       996       999       994       993       995
       994       993       996       995       993       996       996       999      1000
       996       999      1001       997       996       998       997       996       999
       998       996       999       999      1001      1002       999      1001      1006
      1000       999      1001      1001      1002      1003      1001      1002      1004
      1001      1002      1005      1001      1006      1007      1001      1006      1008
      1001      1006      1009      1002      1001      1006      1003      1002      1004
      1003      1002      1005      1004      1002      1005      1006      1009      1010
      1006      1009      1011      1007      1006      1008      1007      1006      1009
      1008      1006      1009      1010      1009      1011      1012      1014      1015
      1012      1014      1016      1012      1014      1017      1012      1018      1019
      1012      1018      1020      1012      1018      1021      1013      1012      1014
      1013      1012      1018      1014      1012      1018      1015      1014      1016
      1015      1014      1017      1016      1014      1017      1018      1021      1022
      1018      1021      1023      1018      1021      1024      1019      1018      1020
      1019      1018      1021      1020      1018      1021      1021      1024      1025
      1021      1024      1026      1021      1024      1027      1022      1021      1023
      1022      1021      1024      1023      1021      1024      1024      1027      1028
      1024      1027      1029      1024      1027      1033      1025      1024      1026
      1025      1024      1027      1026      1024      1027      1027      1029      1030
      1027      1029      1031      1027      1029      1032      1027      1033      1034
      1027      1033      1035      1027      1033      1036      1028      1027      1029
      1028      1027      1033      1029      1027      1033      1030      1029      1031
      1030      1029      1032      1031      1029      1032      1034      1033      1035
      1034      1033      1036      1035      1033      1036      1037      1039      1040
      1037      1041      1042      1037      1041      1043      1037      1041      1044
      1037      1083      1080      1037      1083      1084      1037      1083      1085
      1038      1037      1039      1038      1037      1041      1038      1037      1083
      1039      1037      1041      1039      1037      1083      1041      1037      1083
      1041      1044      1045      1041      1044      1075      1042      1041      1043
      1042      1041      1044      1043      1041      1044      1044      1045      1046
      1044      1045      1047      1044      1075      1073      1044      1075      1076
      1044      1075      1080      1045      1044      1075      1045      1047      1048
      1045      1047      1049      1045      1047      1050      1046      1045      1047
      1047      1050      1051      1047      1050      1052      1047      1050      1073
      1048      1047      1049      1048      1047      1050      1049      1047      1050
      1050      1052      1053      1050      1052      1054      1050      1052      1062
      1050      1073      1070      1050      1073      1074      1050      1073      1075
      1051      1050      1052      1051      1050      1073      1052      1050      1073
      1052      1054      1055      1052      1054      1056      1052      1054      1057
      1052      1062      1060      1052      1062      1063      1052      1062      1067
      1053      1052      1054      1053      1052      1062      1054      1052      1062
      1054      1057      1058      1054      1057      1059      1054      1057      1060
      1055      1054      1056      1055      1054      1057      1056      1054      1057
      1057      1060      1061      1057      1060      1062      1057      1060      1086
      1058      1057      1059      1058      1057      1060      1059      1057      1060
      1060      1062      1063      1060      1062      1067      1060      1086      1087
      1060      1086      1088      1060      1086      1092      1061      1060      1062
      1061      1060      1086      1062      1060      1086      1062      1063      1064
      1062      1063      1065      1062      1063      1066      1062      1067      1068
      1062      1067      1069      1062      1067      1070      1063      1062      1067
      1064      1063      1065      1064      1063      1066      1065      1063      1066
      1067      1070      1071      1067      1070      1072      1067      1070      1073
      1068      1067      1069      1068      1067      1070      1069      1067      1070
      1070      1073      1074      1070      1073      1075      1071      1070      1072
      1071      1070      1073      1072      1070      1073      1073      1075      1076
      1073      1075      1080      1074      1073      1075      1075      1076      1077
      1075      1076      1078      1075      1076      1079      1075      1080      1081
      1075      1080      1082      1075      1080      1083      1076      1075      1080
      1077      1076      1078      1077      1076      1079      1078      1076      1079
      1080      1083      1084      1080      1083      1085      1081      1080      1082
      1081      1080      1083      1082      1080      1083      1084      1083      1085
      1086      1088      1089      1086      1088      1090      1086      1088      1091
      1086      1092      1093      1086      1092      1094      1086      1092      1095
      1087      1086      1088      1087      1086      1092      1088      1086      1092
      1089      1088      1090      1089      1088      1091      1090      1088      1091
      1092      1095      1096      1092      1095      1097      1092      1095      1098
      1093      1092      1094      1093      1092      1095      1094      1092      1095
      1095      1098      1099      1095      1098      1100      1095      1098      1101
      1096      1095      1097      1096      1095      1098      1097      1095      1098
      1098      1101      1102      1098      1101      1103      1098      1101      1107
      1099      1098      1100      1099      1098      1101      1100      1098      1101
      1101      1103      1104      1101      1103      1105      1101      1103      1106
      1101      1107      1108      1101      1107      1109      1101      1107      1110
      1102      1101      1103      1102      1101      1107      1103      1101      1107
      1104      1103      1105      1104      1103      1106      1105      1103      1106
      1108      1107      1109      1108      1107      1110      1109      1107      1110
      1111      1113      1114      1111      1115      1116      1111      1115      1117
      1111      1115      1118      1111      1157      1154      1111      1157      1158
      1111      1157      1159      1112      1111      1113      1112      1111      1115
      1112      1111      1157      1113      1111      1115      1113      1111      1157
      1115      1111      1157      1115      1118      1119      1115      1118      1149
      1116      1115      1117      1116      1115      1118      1117      1115      1118
      1118      1119      1120      1118      1119      1121      1118      1149      1147
      1118      1149      1150      1118      1149      1154      1119      1118      1149
      1119      1121      1122      1119      1121      1123      1119      1121      1124
      1120      1119      1121      1121      1124      1125      1121      1124      1126
      1121      1124      1147      1122      1121      1123      1122      1121      1124
      1123      1121      1124      1124      1126      1127      1124      1126      1128
      1124      1126      1136      1124      1147      1144      1124      1147      1148
      1124      1147      1149      1125      1124      1126      1125      1124      1147
      1126      1124      1147      1126      1128      1129      1126      1128      1130
      1126      1128      1131      1126      1136      1134      1126      1136      1137
      1126      1136      1141      1127      1126      1128      1127      1126      1136
      1128      1126      1136      1128      1131      1132      1128      1131      1133
      1128      1131      1134      1129      1128      1130      1129      1128      1131
      1130      1128      1131      1131      1134      1135      1131      1134      1136
      1131      1134      1160      1132      1131      1133      1132      1131      1134
      1133      1131      1134      1134      1136      1137      1134      1136      1141
      1134      1160      1161      1134      1160      1162      1134      1160      1166
      1135      1134      1136      1135      1134      1160      1136      1134      1160
      1136      1137      1138      1136      1137      1139      1136      1137      1140
      1136      1141      1142      1136      1141      1143      1136      1141      1144
      1137      1136      1141      1138      1137      1139      1138      1137      1140
      1139      1137      1140      1141      1144      1145      1141      1144      1146
      1141      1144      1147      1142      1141      1143      1142      1141      1144
      1143      1141      1144      1144      1147      1148      1144      1147      1149
      1145      1144      1146      1145      1144      1147      1146      1144      1147
      1147      1149      1150      1147      1149      1154      1148      1147      1149
      1149      1150      1151      1149      1150      1152      1149      1150      1153
      1149      1154      1155      1149      1154      1156      1149      1154      1157
      1150      1149      1154      1151      1150      1152      1151      1150      1153
      1152      1150      1153      1154      1157      1158      1154      1157      1159
      1155      1154      1156      1155      1154      1157      1156      1154      1157
      1158      1157      1159      1160      1162      1163      1160      1162      1164
      1160      1162      1165      1160      1166      1167      1160      1166      1168
      1160      1166      1169      1161      1160      1162      1161      1160      1166
      1162      1160      1166      1163      1162      1164      1163      1162      1165
      1164      1162      1165      1166      1169      1170      1166      1169      1171
      1166      1169      1172      1167      1166      1168      1167      1166      1169
      1168      1166      1169      1169      1172      1173      1169      1172      1174
      1169      1172      1175      1170      1169      1171      1170      1169      1172
      1171      1169      1172      1172      1175      1176      1172      1175      1177
      1172      1175      1181      1173      1172      1174      1173      1172      1175
      1174      1172      1175      1175      1177      1178      1175      1177      1179
      1175      1177      1180      1175      1181      1182      1175      1181      1183
      1175      1181      1184      1176      1175      1177      1176      1175      1181
      1177      1175      1181      1178      1177      1179      1178      1177      1180
      1179      1177      1180      1182      1181      1183      1182      1181      1184
      1183      1181      1184      1185      1187      1188      1185      1189      1190
      1185      1189      1191      1185      1189      1192      1185      1231      1228
      1185      1231      1232      1185      1231      1233      1186      1185      1187
      1186      1185      1189      1186      1185      1231      1187      1185      1189
      1187      1185      1231      1189      1185      1231      1189      1192      1193
      1189      1192      1223      1190      1189      1191      1190      1189      1192
      1191      1189      1192      1192      1193      1194      1192      1193      1195
      1192      1223      1221      1192      1223      1224      1192      1223      1228
      1193      1192      1223      1193      1195      1196      1193      1195      1197
      1193      1195      1198      1194      1193      1195      1195      1198      1199
      1195      1198      1200      1195      1198      1221      1196      1195      1197
      1196      1195      1198      1197      1195      1198      1198      1200      1201
      1198      1200      1202      1198      1200      1210      1198      1221      1218
      1198      1221      1222      1198      1221      1223      1199      1198      1200
      1199      1198      1221      1200      1198      1221      1200      1202      1203
      1200      1202      1204      1200      1202      1205      1200      1210      1208
      1200      1210      1211      1200      1210      1215      1201      1200      1202
      1201      1200      1210      1202      1200      1210      1202      1205      1206
      1202      1205      1207      1202      1205      1208      1203      1202      1204
      1203      1202      1205      1204      1202      1205      1205      1208      1209
      1205      1208      1210      1205      1208      1234      1206      1205      1207
      1206      1205      1208      1207      1205      1208      1208      1210      1211
      1208      1210      1215      1208      1234      1235      1208      1234      1236
      1208      1234      1240      1209      1208      1210      1209      1208      1234
      1210      1208      1234      1210      1211      1212      1210      1211      1213
      1210      1211      1214      1210      1215      1216      1210      1215      1217
      1210      1215      1218      1211      1210      1215      1212      1211      1213
      1212      1211      1214      1213      1211      1214      1215      1218      1219
      1215      1218      1220      1215      1218      1221      1216      1215      1217
      1216      1215      1218      1217      1215      1218      1218      1221      1222
      1218      1221      1223      1219      1218      1220      1219      1218      1221
      1220      1218      1221      1221      1223      1224      1221      1223      1228
      1222      1221      1223      1223      1224      1225      1223      1224      1226
      1223      1224      1227      1223      1228      1229      1223      1228      1230
      1223      1228      1231      1224      1223      1228      1225      1224      1226
      1225      1224      1227      1226      1224      1227      1228      1231      1232
      1228      1231      1233      1229      1228      1230      1229      1228      1231
      1230      1228      1231      1232      1231      1233      1234      1236      1237
      1234      1236      1238      1234      1236      1239      1234      1240      1241
      1234      1240      1242      1234      1240      1243      1235      1234      1236
      1235      1234      1240      1236      1234      1240      1237      1236      1238
      1237      1236      1239      1238      1236      1239      1240      1243      1244
      1240      1243      1245      1240      1243      1246      1241      1240      1242
      1241      1240      1243      1242      1240      1243      1243      1246      1247
      1243      1246      1248      1243      1246      1249      1244      1243      1245
      1244      1243      1246      1245      1243      1246      1246      1249      1250
      1246      1249      1251      1246      1249      1255      1247      1246      1248
      1247      1246      1249      1248      1246      1249      1249      1251      1252
      1249      1251      1253      1249      1251      1254      1249      1255      1256
      1249      1255      1257      1249      1255      1258      1250      1249      1251
      1250      1249      1255      1251      1249      1255      1252      1251      1253
      1252      1251      1254      1253      1251      1254      1256      1255      1257
      1256      1255      1258      1257      1255      1258      1259      1261      1262
      1259      1263      1264      1259      1263      1265      1259      1263      1266
      1259      1305      1302      1259      1305      1306      1259      1305      1307
      1260      1259      1261      1260      1259      1263      1260      1259      1305
      1261      1259      1263      1261      1259      1305      1263      1259      1305
      1263      1266      1267      1263      1266      1297      1264      1263      1265
      1264      1263      1266      1265      1263      1266      1266      1267      1268
      1266      1267      1269      1266      1297      1295      1266      1297      1298
      1266      1297      1302      1267      1266      1297      1267      1269      1270
      1267      1269      1271      1267      1269      1272      1268      1267      1269
      1269      1272      1273      1269      1272      1274      1269      1272      1295
      1270      1269      1271      1270      1269      1272      1271      1269      1272
      1272      1274      1275      1272      1274      1276      1272      1274      1284
      1272      1295      1292      1272      1295      1296      1272      1295      1297
      1273      1272      1274      1273      1272      1295      1274      1272      1295
      1274      1276      1277      1274      1276      1278      1274      1276      1279
      1274      1284      1282      1274      1284      1285      1274      1284      1289
      1275      1274      1276      1275      1274      1284      1276      1274      1284
      1276      1279      1280      1276      1279      1281      1276      1279      1282
      1277      1276      1278      1277      1276      1279      1278      1276      1279
      1279      1282      1283      1279      1282      1284      1279      1282      1308
      1280      1279      1281      1280      1279      1282      1281      1279      1282
      1282      1284      1285      1282      1284      1289      1282      1308      1309
      1282      1308      1310      1282      1308      1314      1283      1282      1284
      1283      1282      1308      1284      1282      1308      1284      1285      1286
      1284      1285      1287      1284      1285      1288      1284      1289      1290
      1284      1289      1291      1284      1289      1292      1285      1284      1289
      1286      1285      1287      1286      1285      1288      1287      1285      1288
      1289      1292      1293      1289      1292      1294      1289      1292      1295
      1290      1289      1291      1290      1289      1292      1291      1289      1292
      1292      1295      1296      1292      1295      1297      1293      1292      1294
      1293      1292      1295      1294      1292      1295      1295      1297      1298
      1295      1297      1302      1296      1295      1297      1297      1298      1299
      1297      1298      1300      1297      1298      1301      1297      1302      1303
      1297      1302      1304      1297      1302      1305      1298      1297      1302
      1299      1298      1300      1299      1298      1301      1300      1298      1301
      1302      1305      1306      1302      1305      1307      1303      1302      1304
      1303      1302      1305      1304      1302      1305      1306      1305      1307
      1308      1310      1311      1308      1310      1312      1308      1310      1313
      1308      1314      1315      1308      1314      1316      1308      1314      1317
      1309      1308      1310      1309      1308      1314      1310      1308      1314
      1311      1310      1312      1311      1310      1313      1312      1310      1313
      1314      1317      1318      1314      1317      1319      1314      1317      1320
      1315      1314      1316      1315      1314      1317      1316      1314      1317
      1317      1320      1321      1317      1320      1322      1317      1320      1323
      1318      1317      1319      1318      1317      1320      1319      1317      1320
      1320      1323      1324      1320      1323      1325      1320      1323      1329
      1321      1320      1322      1321      1320      1323      1322      1320      1323
      1323      1325      1326      1323      1325      1327      1323      1325      1328
      1323      1329      1330      1323      1329      1331      1323      1329      1332
      1324      1323      1325      1324      1323      1329      1325      1323      1329
      1326      1325      1327      1326      1325      1328      1327      1325      1328
      1330      1329      1331      1330      1329      1332      1331      1329      1332
      1333      1335      1336      1333      1337      1338      1333      1337      1339
      1333      1337      1340      1333      1379      1376      1333      1379      1380
      1333      1379      1381      1334      1333      1335      1334      1333      1337
      1334      1333      1379      1335      1333      1337      1335      1333      1379
      1337      1333      1379      1337      1340      1341      1337      1340      1371
      1338      1337      1339      1338      1337      1340      1339      1337      1340
      1340      1341      1342      1340      1341      1343      1340      1371      1369
      1340      1371      1372      1340      1371      1376      1341      1340      1371
      1341      1343      1344      1341      1343      1345      1341      1343      1346
      1342      1341      1343      1343      1346      1347      1343      1346      1348
      1343      1346      1369      1344      1343      1345      1344      1343      1346
      1345      1343      1346      1346      1348      1349      1346      1348      1350
      1346      1348      1358      1346      1369      1366      1346      1369      1370
      1346      1369      1371      1347      1346      1348      1347      1346      1369
      1348      1346      1369      1348      1350      1351      1348      1350      1352
      1348      1350      1353      1348      1358      1356      1348      1358      1359
      1348      1358      1363      1349      1348      1350      1349      1348      1358
      1350      1348      1358      1350      1353      1354      1350      1353      1355
      1350      1353      1356      1351      1350      1352      1351      1350      1353
      1352      1350      1353      1353      1356      1357      1353      1356      1358
      1353      1356      1382      1354      1353      1355      1354      1353      1356
      1355      1353      1356      1356      1358      1359      1356      1358      1363
      1356      1382      1383      1356      1382      1384      1356      1382      1388
      1357      1356      1358      1357      1356      1382      1358      1356      1382
      1358      1359      1360      1358      1359      1361      1358      1359      1362
      1358      1363      1364      1358      1363      1365      1358      1363      1366
      1359      1358      1363      1360      1359      1361      1360      1359      1362
      1361      1359      1362      1363      1366      1367      1363      1366      1368
      1363      1366      1369      1364      1363      1365      1364      1363      1366
      1365      1363      1366      1366      1369      1370      1366      1369      1371
      1367      1366      1368      1367      1366      1369      1368      1366      1369
      1369      1371      1372      1369      1371      1376      1370      1369      1371
      1371      1372      1373      1371      1372      1374      1371      1372      1375
      1371      1376      1377      1371      1376      1378      1371      1376      1379
      1372      1371      1376      1373      1372      1374      1373      1372      1375
      1374      1372      1375      1376      1379      1380      1376      1379      1381
      1377      1376      1378      1377      1376      1379      1378      1376      1379
      1380      1379      1381      1382      1384      1385      1382      1384      1386
      1382      1384      1387      1382      1388      1389      1382      1388      1390
      1382      1388      1391      1383      1382      1384      1383      1382      1388
      1384      1382      1388      1385      1384      1386      1385      1384      1387
      1386      1384      1387      1388      1391      1392      1388      1391      1393
      1388      1391      1394      1389      1388      1390      1389      1388      1391
      1390      1388      1391      1391      1394      1395      1391      1394      1396
      1391      1394      1397      1392      1391      1393      1392      1391      1394
      1393      1391      1394      1394      1397      1398      1394      1397      1399
      1394      1397      1403      1395      1394      1396      1395      1394      1397
      1396      1394      1397      1397      1399      1400      1397      1399      1401
      1397      1399      1402      1397      1403      1404      1397      1403      1405
      1397      1403      1406      1398      1397      1399      1398      1397      1403
      1399      1397      1403      1400      1399      1401      1400      1399      1402
      1401      1399      1402      1404      1403      1405      1404      1403      1406
      1405      1403      1406      1407      1409      1410      1407      1411      1412
      1407      1411      1413      1407      1411      1414      1407      1453      1450
      1407      1453      1454      1407      1453      1455      1408      1407      1409
      1408      1407      1411      1408      1407      1453      1409      1407      1411
      1409      1407      1453      1411      1407      1453      1411      1414      1415
      1411      1414      1445      1412      1411      1413      1412      1411      1414
      1413      1411      1414      1414      1415      1416      1414      1415      1417
      1414      1445      1443      1414      1445      1446      1414      1445      1450
      1415      1414      1445      1415      1417      1418      1415      1417      1419
      1415      1417      1420      1416      1415      1417      1417      1420      1421
      1417      1420      1422      1417      1420      1443      1418      1417      1419
      1418      1417      1420      1419      1417      1420      1420      1422      1423
      1420      1422      1424      1420      1422      1432      1420      1443      1440
      1420      1443      1444      1420      1443      1445      1421      1420      1422
      1421      1420      1443      1422      1420      1443      1422      1424      1425
      1422      1424      1426      1422      1424      1427      1422      1432      1430
      1422      1432      1433      1422      1432      1437      1423      1422      1424
      1423      1422      1432      1424      1422      1432      1424      1427      1428
      1424      1427      1429      1424      1427      1430      1425      1424      1426
      1425      1424      1427      1426      1424      1427      1427      1430      1431
      1427      1430      1432      1427      1430      1456      1428      1427      1429
      1428      1427      1430      1429      1427      1430      1430      1432      1433
      1430      1432      1437      1430      1456      1457      1430      1456      1458
      1430      1456      1462      1431      1430      1432      1431      1430      1456
      1432      1430      1456      1432      1433      1434      1432      1433      1435
      1432      1433      1436      1432      1437      1438      1432      1437      1439
      1432      1437      1440      1433      1432      1437      1434      1433      1435
      1434      1433      1436      1435      1433      1436      1437      1440      1441
      1437      1440      1442      1437      1440      1443      1438      1437      1439
      1438      1437      1440      1439      1437      1440      1440      1443      1444
      1440      1443      1445      1441      1440      1442      1441      1440      1443
      1442      1440      1443      1443      1445      1446      1443      1445      1450
      1444      1443      1445      1445      1446      1447      1445      1446      1448
      1445      1446      1449      1445      1450      1451      1445      1450      1452
      1445      1450      1453      1446      1445      1450      1447      1446      1448
      1447      1446      1449      1448      1446      1449      1450      1453      1454
      1450      1453      1455      1451      1450      1452      1451      1450      1453
      1452      1450      1453      1454      1453      1455      1456      1458      1459
      1456      1458      1460      1456      1458      1461      1456      1462      1463
      1456      1462      1464      1456      1462      1465      1457      1456      1458
      1457      1456      1462      1458      1456      1462      1459      1458      1460
      1459      1458      1461      1460      1458      1461      1462      1465      1466
      1462      1465      1467      1462      1465      1468      1463      1462      1464
      1463      1462      1465      1464      1462      1465      1465      1468      1469
      1465      1468      1470      1465      1468      1471      1466      1465      1467
      1466      1465      1468      1467      1465      1468      1468      1471      1472
      1468      1471      1473      1468      1471      1477      1469      1468      1470
      1469      1468      1471      1470      1468      1471      1471      1473      1474
      1471      1473      1475      1471      1473      1476      1471      1477      1478
      1471      1477      1479      1471      1477      1480      1472      1471      1473
      1472      1471      1477      1473      1471      1477      1474      1473      1475
      1474      1473      1476      1475      1473      1476      1478      1477      1479
      1478      1477      1480      1479      1477      1480      1481      1483      1484
      1481      1485      1486      1481      1485      1487      1481      1485      1488
      1481      1527      1524      1481      1527      1528      1481      1527      1529
      1482      1481      1483      1482      1481      1485      1482      1481      1527
      1483      1481      1485      1483      1481      1527      1485      1481      1527
      1485      1488      1489      1485      1488      1519      1486      1485      1487
      1486      1485      1488      1487      1485      1488      1488      1489      1490
      1488      1489      1491      1488      1519      1517      1488      1519      1520
      1488      1519      1524      1489      1488      1519      1489      1491      1492
      1489      1491      1493      1489      1491      1494      1490      1489      1491
      1491      1494      1495      1491      1494      1496      1491      1494      1517
      1492      1491      1493      1492      1491      1494      1493      1491      1494
      1494      1496      1497      1494      1496      1498      1494      1496      1506
      1494      1517      1514      1494      1517      1518      1494      1517      1519
      1495      1494      1496      1495      1494      1517      1496      1494      1517
      1496      1498      1499      1496      1498      1500      1496      1498      1501
      1496      1506      1504      1496      1506      1507      1496      1506      1511
      1497      1496      1498      1497      1496      1506      1498      1496      1506
      1498      1501      1502      1498      1501      1503      1498      1501      1504
      1499      1498      1500      1499      1498      1501      1500      1498      1501
      1501      1504      1505      1501      1504      1506      1501      1504      1530
      1502      1501      1503      1502      1501      1504      1503      1501      1504
      1504      1506      1507      1504      1506      1511      1504      1530      1531
      1504      1530      1532      1504      1530      1536      1505      1504      1506
      1505      1504      1530      1506      1504      1530      1506      1507      1508
      1506      1507      1509      1506      1507      1510      1506      1511      1512
      1506      1511      1513      1506      1511      1514      1507      1506      1511
      1508      1507      1509      1508      1507      1510      1509      1507      1510
      1511      1514      1515      1511      1514      1516      1511      1514      1517
      1512      1511      1513      1512      1511      1514      1513      1511      1514
      1514      1517      1518      1514      1517      1519      1515      1514      1516
      1515      1514      1517      1516      1514      1517      1517      1519      1520
      1517      1519      1524      1518      1517      1519      1519      1520      1521
      1519      1520      1522      1519      1520      1523      1519      1524      1525
      1519      1524      1526      1519      1524      1527      1520      1519      1524
      1521      1520      1522      1521      1520      1523      1522      1520      1523
      1524      1527      1528      1524      1527      1529      1525      1524      1526
      1525      1524      1527      1526      1524      1527      1528      1527      1529
      1530      1532      1533      1530      1532      1534      1530      1532      1535
      1530      1536      1537      1530      1536      1538      1530      1536      1539
      1531      1530      1532      1531      1530      1536      1532      1530      1536
      1533      1532      1534      1533      1532      1535      1534      1532      1535
      1536      1539      1540      1536      1539      1541      1536      1539      1542
      1537      1536      1538      1537      1536      1539      1538      1536      1539
      1539      1542      1543      1539      1542      1544      1539      1542      1545
      1540      1539      1541      1540      1539      1542      1541      1539      1542
      1542      1545      1546      1542      1545      1547      1542      1545      1551
      1543      1542      1544      1543      1542      1545      1544      1542      1545
      1545      1547      1548      1545      1547      1549      1545      1547      1550
      1545      1551      1552      1545      1551      1553      1545      1551      1554
      1546      1545      1547      1546      1545      1551      1547      1545      1551
      1548      1547      1549      1548      1547      1550      1549      1547      1550
      1552      1551      1553      1552      1551      1554      1553      1551      1554
      1555      1557      1558      1555      1559      1560      1555      1559      1561
      1555      1559      1562      1555      1601      1598      1555      1601      1602
      1555      1601      1603      1556      1555      1557      1556      1555      1559
      1556      1555      1601      1557      1555      1559      1557      1555      1601
      1559      1555      1601      1559      1562      1563      1559      1562      1593
      1560      1559      1561      1560      1559      1562      1561      1559      1562
      1562      1563      1564      1562      1563      1565      1562      1593      1591
      1562      1593      1594      1562      1593      1598      1563      1562      1593
      1563      1565      1566      1563      1565      1567      1563      1565      1568
      1564      1563      1565      1565      1568      1569      1565      1568      1570
      1565      1568      1591      1566      1565      1567      1566      1565      1568
      1567      1565      1568      1568      1570      1571      1568      1570      1572
      1568      1570      1580      1568      1591      1588      1568      1591      1592
      1568      1591      1593      1569      1568      1570      1569      1568      1591
      1570      1568      1591      1570      1572      1573      1570      1572      1574
      1570      1572      1575      1570      1580      1578      1570      1580      1581
      1570      1580      1585      1571      1570      1572      1571      1570      1580
      1572      1570      1580      1572      1575      1576      1572      1575      1577
      1572      1575      1578      1573      1572      1574      1573      1572      1575
      1574      1572      1575      1575      1578      1579      1575      1578      1580
      1575      1578      1604      1576      1575      1577      1576      1575      1578
      1577      1575      1578      1578      1580      1581      1578      1580      1585
      1578      1604      1605      1578      1604      1606      1578      1604      1610
      1579      1578      1580      1579      1578      1604      1580      1578      1604
      1580      1581      1582      1580      1581      1583      1580      1581      1584
      1580      1585      1586      1580      1585      1587      1580      1585      1588
      1581      1580      1585      1582      1581      1583      1582      1581      1584
      1583      1581      1584      1585      1588      1589      1585      1588      1590
      1585      1588      1591      1586      1585      1587      1586      1585      1588
      1587      1585      1588      1588      1591      1592      1588      1591      1593
      1589      1588      1590      1589      1588      1591      1590      1588      1591
      1591      1593      1594      1591      1593      1598      1592      1591      1593
      1593      1594      1595      1593      1594      1596      1593      1594      1597
      1593      1598      1599      1593      1598      1600      1593      1598      1601
      1594      1593      1598      1595      1594      1596      1595      1594      1597
      1596      1594      1597      1598      1601      1602      1598      1601      1603
      1599      1598      1600      1599      1598      1601      1600      1598      1601
      1602      1601      1603      1604      1606      1607      1604      1606      1608
      1604      1606      1609      1604      1610      1611      1604      1610      1612
      1604      1610      1613      1605      1604      1606      1605      1604      1610
      1606      1604      1610      1607      1606      1608      1607      1606      1609
      1608      1606      1609      1610      1613      1614      1610      1613      1615
      1610      1613      1616      1611      1610      1612      1611      1610      1613
      1612      1610      1613      1613      1616      1617      1613      1616      1618
      1613      1616      1619      1614      1613      1615      1614      1613      1616
      1615      1613      1616      1616      1619      1620      1616      1619      1621
      1616      1619      1625      1617      1616      1618      1617      1616      1619
      1618      1616      1619      1619      1621      1622      1619      1621      1623
      1619      1621      1624      1619      1625      1626      1619      1625      1627
      1619      1625      1628      1620      1619      1621      1620      1619      1625
      1621      1619      1625      1622      1621      1623      1622      1621      1624
      1623      1621      1624      1626      1625      1627      1626      1625      1628
      1627      1625      1628      1629      1631      1632      1629      1633      1634
      1629      1633      1635      1629      1633      1636      1629      1675      1672
      1629      1675      1676      1629      1675      1677      1630      1629      1631
      1630      1629      1633      1630      1629      1675      1631      1629      1633
      1631      1629      1675      1633      1629      1675      1633      1636      1637
      1633      1636      1667      1634      1633      1635      1634      1633      1636
      1635      1633      1636      1636      1637      1638      1636      1637      1639
      1636      1667      1665      1636      1667      1668      1636      1667      1672
      1637      1636      1667      1637      1639      1640      1637      1639      1641
      1637      1639      1642      1638      1637      1639      1639      1642      1643
      1639      1642      1644      1639      1642      1665      1640      1639      1641
      1640      1639      1642      1641      1639      1642      1642      1644      1645
      1642      1644      1646      1642      1644      1654      1642      1665      1662
      1642      1665      1666      1642      1665      1667      1643      1642      1644
      1643      1642      1665      1644      1642      1665      1644      1646      1647
      1644      1646      1648      1644      1646      1649      1644      1654      1652
      1644      1654      1655      1644      1654      1659      1645      1644      1646
      1645      1644      1654      1646      1644      1654      1646      1649      1650
      1646      1649      1651      1646      1649      1652      1647      1646      1648
      1647      1646      1649      1648      1646      1649      1649      1652      1653
      1649      1652      1654      1649      1652      1678      1650      1649      1651
      1650      1649      1652      1651      1649      1652      1652      1654      1655
      1652      1654      1659      1652      1678      1679      1652      1678      1680
      1652      1678      1684      1653      1652      1654      1653      1652      1678
      1654      1652      1678      1654      1655      1656      1654      1655      1657
      1654      1655      1658      1654      1659      1660      1654      1659      1661
      1654      1659      1662      1655      1654      1659      1656      1655      1657
      1656      1655      1658      1657      1655      1658      1659      1662      1663
      1659      1662      1664      1659      1662      1665      1660      1659      1661
      1660      1659      1662      1661      1659      1662      1662      1665      1666
      1662      1665      1667      1663      1662      1664      1663      1662      1665
      1664      1662      1665      1665      1667      1668      1665      1667      1672
      1666      1665      1667      1667      1668      1669      1667      1668      1670
      1667      1668      1671      1667      1672      1673      1667      1672      1674
      1667      1672      1675      1668      1667      1672      1669      1668      1670
      1669      1668      1671      1670      1668      1671      1672      1675      1676
      1672      1675      1677      1673      1672      1674      1673      1672      1675
      1674      1672      1675      1676      1675      1677      1678      1680      1681
      1678      1680      1682      1678      1680      1683      1678      1684      1685
      1678      1684      1686      1678      1684      1687      1679      1678      1680
      1679      1678      1684      1680      1678      1684      1681      1680      1682
      1681      1680      1683      1682      1680      1683      1684      1687      1688
      1684      1687      1689      1684      1687      1690      1685      1684      1686
      1685      1684      1687      1686      1684      1687      1687      1690      1691
      1687      1690      1692      1687      1690      1693      1688      1687      1689
      1688      1687      1690      1689      1687      1690      1690      1693      1694
      1690      1693      1695      1690      1693      1699      1691      1690      1692
      1691      1690      1693      1692      1690      1693      1693      1695      1696
      1693      1695      1697      1693      1695      1698      1693      1699      1700
      1693      1699      1701      1693      1699      1702      1694      1693      1695
      1694      1693      1699      1695      1693      1699      1696      1695      1697
      1696      1695      1698      1697      1695      1698      1700      1699      1701
      1700      1699      1702      1701      1699      1702      1703      1705      1706
      1703      1707      1708      1703      1707      1709      1703      1707      1710
      1703      1749      1746      1703      1749      1750      1703      1749      1751
      1704      1703      1705      1704      1703      1707      1704      1703      1749
      1705      1703      1707      1705      1703      1749      1707      1703      1749
      1707      1710      1711      1707      1710      1741      1708      1707      1709
      1708      1707      1710      1709      1707      1710      1710      1711      1712
      1710      1711      1713      1710      1741      1739      1710      1741      1742
      1710      1741      1746      1711      1710      1741      1711      1713      1714
      1711      1713      1715      1711      1713      1716      1712      1711      1713
      1713      1716      1717      1713      1716      1718      1713      1716      1739
      1714      1713      1715      1714      1713      1716      1715      1713      1716
      1716      1718      1719      1716      1718      1720      1716      1718      1728
      1716      1739      1736      1716      1739      1740      1716      1739      1741
      1717      1716      1718      1717      1716      1739      1718      1716      1739
      1718      1720      1721      1718      1720      1722      1718      1720      1723
      1718      1728      1726      1718      1728      1729      1718      1728      1733
      1719      1718      1720      1719      1718      1728      1720      1718      1728
      1720      1723      1724      1720      1723      1725      1720      1723      1726
      1721      1720      1722      1721      1720      1723      1722      1720      1723
      1723      1726      1727      1723      1726      1728      1723      1726      1752
      1724      1723      1725      1724      1723      1726      1725      1723      1726
      1726      1728      1729      1726      1728      1733      1726      1752      1753
      1726      1752      1754      1726      1752      1758      1727      1726      1728
      1727      1726      1752      1728      1726      1752      1728      1729      1730
      1728      1729      1731      1728      1729      1732      1728      1733      1734
      1728      1733      1735      1728      1733      1736      1729      1728      1733
      1730      1729      1731      1730      1729      1732      1731      1729      1732
      1733      1736      1737      1733      1736      1738      1733      1736      1739
      1734      1733      1735      1734      1733      1736      1735      1733      1736
      1736      1739      1740      1736      1739      1741      1737      1736      1738
      1737      1736      1739      1738      1736      1739      1739      1741      1742
      1739      1741      1746      1740      1739      1741      1741      1742      1743
      1741      1742      1744      1741      1742      1745      1741      1746      1747
      1741      1746      1748      1741      1746      1749      1742      1741      1746
      1743      1742      1744      1743      1742      1745      1744      1742      1745
      1746      1749      1750      1746      1749      1751      1747      1746      1748
      1747      1746      1749      1748      1746      1749      1750      1749      1751
      1752      1754      1755      1752      1754      1756      1752      1754      1757
      1752      1758      1759      1752      1758      1760      1752      1758      1761
      1753      1752      1754      1753      1752      1758      1754      1752      1758
      1755      1754      1756      1755      1754      1757      1756      1754      1757
      1758      1761      1762      1758      1761      1763      1758      1761      1764
      1759      1758      1760      1759      1758      1761      1760      1758      1761
      1761      1764      1765      1761      1764      1766      1761      1764      1767
      1762      1761      1763      1762      1761      1764      1763      1761      1764
      1764      1767      1768      1764      1767      1769      1764      1767      1773
      1765      1764      1766      1765      1764      1767      1766      1764      1767
      1767      1769      1770      1767      1769      1771      1767      1769      1772
      1767      1773      1774      1767      1773      1775      1767      1773      1776
      1768      1767      1769      1768      1767      1773      1769      1767      1773
      1770      1769      1771      1770      1769      1772      1771      1769      1772
      1774      1773      1775      1774      1773      1776      1775      1773      1776
      1777      1779      1780      1777      1781      1782      1777      1781      1783
      1777      1781      1784      1777      1823      1820      1777      1823      1824
      1777      1823      1825      1778      1777      1779      1778      1777      1781
      1778      1777      1823      1779      1777      1781      1779      1777      1823
      1781      1777      1823      1781      1784      1785      1781      1784      1815
      1782      1781      1783      1782      1781      1784      1783      1781      1784
      1784      1785      1786      1784      1785      1787      1784      1815      1813
      1784      1815      1816      1784      1815      1820      1785      1784      1815
      1785      1787      1788      1785      1787      1789      1785      1787      1790
      1786      1785      1787      1787      1790      1791      1787      1790      1792
      1787      1790      1813      1788      1787      1789      1788      1787      1790
      1789      1787      1790      1790      1792      1793      1790      1792      1794
      1790      1792      1802      1790      1813      1810      1790      1813      1814
      1790      1813      1815      1791      1790      1792      1791      1790      1813
      1792      1790      1813      1792      1794      1795      1792      1794      1796
      1792      1794      1797      1792      1802      1800      1792      1802      1803
      1792      1802      1807      1793      1792      1794      1793      1792      1802
      1794      1792      1802      1794      1797      1798      1794      1797      1799
      1794      1797      1800      1795      1794      1796      1795      1794      1797
      1796      1794      1797      1797      1800      1801      1797      1800      1802
      1797      1800      1826      1798      1797      1799      1798      1797      1800
      1799      1797      1800      1800      1802      1803      1800      1802      1807
      1800      1826      1827      1800      1826      1828      1800      1826      1832
      1801      1800      1802      1801      1800      1826      1802      1800      1826
      1802      1803      1804      1802      1803      1805      1802      1803      1806
      1802      1807      1808      1802      1807      1809      1802      1807      1810
      1803      1802      1807      1804      1803      1805      1804      1803      1806
      1805      1803      1806      1807      1810      1811      1807      1810      1812
      1807      1810      1813      1808      1807      1809      1808      1807      1810
      1809      1807      1810      1810      1813      1814      1810      1813      1815
      1811      1810      1812      1811      1810      1813      1812      1810      1813
      1813      1815      1816      1813      1815      1820      1814      1813      1815
      1815      1816      1817      1815      1816      1818      1815      1816      1819
      1815      1820      1821      1815      1820      1822      1815      1820      1823
      1816      1815      1820      1817      1816      1818      1817      1816      1819
      1818      1816      1819      1820      1823      1824      1820      1823      1825
      1821      1820      1822      1821      1820      1823      1822      1820      1823
      1824      1823      1825      1826      1828      1829      1826      1828      1830
      1826      1828      1831      1826      1832      1833      1826      1832      1834
      1826      1832      1835      1827      1826      1828      1827      1826      1832
      1828      1826      1832      1829      1828      1830      1829      1828      1831
      1830      1828      1831      1832      1835      1836      1832      1835      1837
      1832      1835      1838      1833      1832      1834      1833      1832      1835
      1834      1832      1835      1835      1838      1839      1835      1838      1840
      1835      1838      1841      1836      1835      1837      1836      1835      1838
      1837      1835      1838      1838      1841      1842      1838      1841      1843
      1838      1841      1847      1839      1838      1840      1839      1838      1841
      1840      1838      1841      1841      1843      1844      1841      1843      1845
      1841      1843      1846      1841      1847      1848      1841      1847      1849
      1841      1847      1850      1842      1841      1843      1842      1841      1847
      1843      1841      1847      1844      1843      1845      1844      1843      1846
      1845      1843      1846      1848      1847      1849      1848      1847      1850
      1849      1847      1850      1851      1853      1854      1851      1855      1856
      1851      1855      1857      1851      1855      1858      1851      1897      1894
      1851      1897      1898      1851      1897      1899      1852      1851      1853
      1852      1851      1855      1852      1851      1897      1853      1851      1855
      1853      1851      1897      1855      1851      1897      1855      1858      1859
      1855      1858      1889      1856      1855      1857      1856      1855      1858
      1857      1855      1858      1858      1859      1860      1858      1859      1861
      1858      1889      1887      1858      1889      1890      1858      1889      1894
      1859      1858      1889      1859      1861      1862      1859      1861      1863
      1859      1861      1864      1860      1859      1861      1861      1864      1865
      1861      1864      1866      1861      1864      1887      1862      1861      1863
      1862      1861      1864      1863      1861      1864      1864      1866      1867
      1864      1866      1868      1864      1866      1876      1864      1887      1884
      1864      1887      1888      1864      1887      1889      1865      1864      1866
      1865      1864      1887      1866      1864      1887      1866      1868      1869
      1866      1868      1870      1866      1868      1871      1866      1876      1874
      1866      1876      1877      1866      1876      1881      1867      1866      1868
      1867      1866      1876      1868      1866      1876      1868      1871      1872
      1868      1871      1873      1868      1871      1874      1869      1868      1870
      1869      1868      1871      1870      1868      1871      1871      1874      1875
      1871      1874      1876      1871      1874      1900      1872      1871      1873
      1872      1871      1874      1873      1871      1874      1874      1876      1877
      1874      1876      1881      1874      1900      1901      1874      1900      1902
      1874      1900      1906      1875      1874      1876      1875      1874      1900
      1876      1874      1900      1876      1877      1878      1876      1877      1879
      1876      1877      1880      1876      1881      1882      1876      1881      1883
      1876      1881      1884      1877      1876      1881      1878      1877      1879
      1878      1877      1880      1879      1877      1880      1881      1884      1885
      1881      1884      1886      1881      1884      1887      1882      1881      1883
      1882      1881      1884      1883      1881      1884      1884      1887      1888
      1884      1887      1889      1885      1884      1886      1885      1884      1887
      1886      1884      1887      1887      1889      1890      1887      1889      1894
      1888      1887      1889      1889      1890      1891      1889      1890      1892
      1889      1890      1893      1889      1894      1895      1889      1894      1896
      1889      1894      1897      1890      1889      1894      1891      1890      1892
      1891      1890      1893      1892      1890      1893      1894      1897      1898
      1894      1897      1899      1895      1894      1896      1895      1894      1897
      1896      1894      1897      1898      1897      1899      1900      1902      1903
      1900      1902      1904      1900      1902      1905      1900      1906      1907
      1900      1906      1908      1900      1906      1909      1901      1900      1902
      1901      1900      1906      1902      1900      1906      1903      1902      1904
      1903      1902      1905      1904      1902      1905      1906      1909      1910
      1906      1909      1911      1906      1909      1912      1907      1906      1908
      1907      1906      1909      1908      1906      1909      1909      1912      1913
      1909      1912      1914      1909      1912      1915      1910      1909      1911
      1910      1909      1912      1911      1909      1912      1912      1915      1916
      1912      1915      1917      1912      1915      1921      1913      1912      1914
      1913      1912      1915      1914      1912      1915      1915      1917      1918
      1915      1917      1919      1915      1917      1920      1915      1921      1922
      1915      1921      1923      1915      1921      1924      1916      1915      1917
      1916      1915      1921      1917      1915      1921      1918      1917      1919
      1918      1917      1920      1919      1917      1920      1922      1921      1923
      1922      1921      1924      1923      1921      1924      1925      1927      1928
      1925      1929      1930      1925      1929      1931      1925      1929      1932
      1925      1971      1968      1925      1971      1972      1925      1971      1973
      1926      1925      1927      1926      1925      1929      1926      1925      1971
      1927      1925      1929      1927      1925      1971      1929      1925      1971
      1929      1932      1933      1929      1932      1963      1930      1929      1931
      1930      1929      1932      1931      1929      1932      1932      1933      1934
      1932      1933      1935      1932      1963      1961      1932      1963      1964
      1932      1963      1968      1933      1932      1963      1933      1935      1936
      1933      1935      1937      1933      1935      1938      1934      1933      1935
      1935      1938      1939      1935      1938      1940      1935      1938      1961
      1936      1935      1937      1936      1935      1938      1937      1935      1938
      1938      1940      1941      1938      1940      1942      1938      1940      1950
      1938      1961      1958      1938      1961      1962      1938      1961      1963
      1939      1938      1940      1939      1938      1961      1940      1938      1961
      1940      1942      1943      1940      1942      1944      1940      1942      1945
      1940      1950      1948      1940      1950      1951      1940      1950      1955
      1941      1940      1942      1941      1940      1950      1942      1940      1950
      1942      1945      1946      1942      1945      1947      1942      1945      1948
      1943      1942      1944      1943      1942      1945      1944      1942      1945
      1945      1948      1949      1945      1948      1950      1945      1948      1974
      1946      1945      1947      1946      1945      1948      1947      1945      1948
      1948      1950      1951      1948      1950      1955      1948      1974      1975
      1948      1974      1976      1948      1974      1980      1949      1948      1950
      1949      1948      1974      1950      1948      1974      1950      1951      1952
      1950      1951      1953      1950      1951      1954      1950      1955      1956
      1950      1955      1957      1950      1955      1958      1951      1950      1955
      1952      1951      1953      1952      1951      1954      1953      1951      1954
      1955      1958      1959      1955      1958      1960      1955      1958      1961
      1956      1955      1957      1956      1955      1958      1957      1955      1958
      1958      1961      1962      1958      1961      1963      1959      1958      1960
      1959      1958      1961      1960      1958      1961      1961      1963      1964
      1961      1963      1968      1962      1961      1963      1963      1964      1965
      1963      1964      1966      1963      1964      1967      1963      1968      1969
      1963      1968      1970      1963      1968      1971      1964      1963      1968
      1965      1964      1966      1965      1964      1967      1966      1964      1967
      1968      1971      1972      1968      1971      1973      1969      1968      1970
      1969      1968      1971      1970      1968      1971      1972      1971      1973
      1974      1976      1977      1974      1976      1978      1974      1976      1979
      1974      1980      1981      1974      1980      1982      1974      1980      1983
      1975      1974      1976      1975      1974      1980      1976      1974      1980
      1977      1976      1978      1977      1976      1979      1978      1976      1979
      1980      1983      1984      1980      1983      1985      1980      1983      1986
      1981      1980      1982      1981      1980      1983      1982      1980      1983
      1983      1986      1987      1983      1986      1988      1983      1986      1989
      1984      1983      1985      1984      1983      1986      1985      1983      1986
      1986      1989      1990      1986      1989      1991      1986      1989      1995
      1987      1986      1988      1987      1986      1989      1988      1986      1989
      1989      1991      1992      1989      1991      1993      1989      1991      1994
      1989      1995      1996      1989      1995      1997      1989      1995      1998
      1990      1989      1991      1990      1989      1995      1991      1989      1995
      1992      1991      1993      1992      1991      1994      1993      1991      1994
      1996      1995      1997      1996      1995      1998      1997      1995      1998
      1999      2001      2002      1999      2003      2004      1999      2003      2005
      1999      2003      2006      1999      2045      2042      1999      2045      2046
      1999      2045      2047      2000      1999      2001      2000      1999      2003
      2000      1999      2045      2001      1999      2003      2001      1999      2045
      2003      1999      2045      2003      2006      2007      2003      2006      2037
      2004      2003      2005      2004      2003      2006      2005      2003      2006
      2006      2007      2008      2006      2007      2009      2006      2037      2035
      2006      2037      2038      2006      2037      2042      2007      2006      2037
      2007      2009      2010      2007      2009      2011      2007      2009      2012
      2008      2007      2009      2009      2012      2013      2009      2012      2014
      2009      2012      2035      2010      2009      2011      2010      2009      2012
      2011      2009      2012      2012      2014      2015      2012      2014      2016
      2012      2014      2024      2012      2035      2032      2012      2035      2036
      2012      2035      2037      2013      2012      2014      2013      2012      2035
      2014      2012      2035      2014      2016      2017      2014      2016      2018
      2014      2016      2019      2014      2024      2022      2014      2024      2025
      2014      2024      2029      2015      2014      2016      2015      2014      2024
      2016      2014      2024      2016      2019      2020      2016      2019      2021
      2016      2019      2022      2017      2016      2018      2017      2016      2019
      2018      2016      2019      2019      2022      2023      2019      2022      2024
      2019      2022      2048      2020      2019      2021      2020      2019      2022
      2021      2019      2022      2022      2024      2025      2022      2024      2029
      2022      2048      2049      2022      2048      2050      2022      2048      2054
      2023      2022      2024      2023      2022      2048      2024      2022      2048
      2024      2025      2026      2024      2025      2027      2024      2025      2028
      2024      2029      2030      2024      2029      2031      2024      2029      2032
      2025      2024      2029      2026      2025      2027      2026      2025      2028
      2027      2025      2028      2029      2032      2033      2029      2032      2034
      2029      2032      2035      2030      2029      2031      2030      2029      2032
      2031      2029      2032      2032      2035      2036      2032      2035      2037
      2033      2032      2034      2033      2032      2035      2034      2032      2035
      2035      2037      2038      2035      2037      2042      2036      2035      2037
      2037      2038      2039      2037      2038      2040      2037      2038      2041
      2037      2042      2043      2037      2042      2044      2037      2042      2045
      2038      2037      2042      2039      2038      2040      2039      2038      2041
      2040      2038      2041      2042      2045      2046      2042      2045      2047
      2043      2042      2044      2043      2042      2045      2044      2042      2045
      2046      2045      2047      2048      2050      2051      2048      2050      2052
      2048      2050      2053      2048      2054      2055      2048      2054      2056
      2048      2054      2057      2049      2048      2050      2049      2048      2054
      2050      2048      2054      2051      2050      2052      2051      2050      2053
      2052      2050      2053      2054      2057      2058      2054      2057      2059
      2054      2057      2060      2055      2054      2056      2055      2054      2057
      2056      2054      2057      2057      2060      2061      2057      2060      2062
      2057      2060      2063      2058      2057      2059      2058      2057      2060
      2059      2057      2060      2060      2063      2064      2060      2063      2065
      2060      2063      2069      2061      2060      2062      2061      2060      2063
      2062      2060      2063      2063      2065      2066      2063      2065      2067
      2063      2065      2068      2063      2069      2070      2063      2069      2071
      2063      2069      2072      2064      2063      2065      2064      2063      2069
      2065      2063      2069      2066      2065      2067      2066      2065      2068
      2067      2065      2068      2070      2069      2071      2070      2069      2072
      2071      2069      2072      2073      2075      2076      2073      2077      2078
      2073      2077      2079      2073      2077      2080      2073      2119      2116
      2073      2119      2120      2073      2119      2121      2074      2073      2075
      2074      2073      2077      2074      2073      2119      2075      2073      2077
      2075      2073      2119      2077      2073      2119      2077      2080      2081
      2077      2080      2111      2078      2077      2079      2078      2077      2080
      2079      2077      2080      2080      2081      2082      2080      2081      2083
      2080      2111      2109      2080      2111      2112      2080      2111      2116
      2081      2080      2111      2081      2083      2084      2081      2083      2085
      2081      2083      2086      2082      2081      2083      2083      2086      2087
      2083      2086      2088      2083      2086      2109      2084      2083      2085
      2084      2083      2086      2085      2083      2086      2086      2088      2089
      2086      2088      2090      2086      2088      2098      2086      2109      2106
      2086      2109      2110      2086      2109      2111      2087      2086      2088
      2087      2086      2109      2088      2086      2109      2088      2090      2091
      2088      2090      2092      2088      2090      2093      2088      2098      2096
      2088      2098      2099      2088      2098      2103      2089      2088      2090
      2089      2088      2098      2090      2088      2098      2090      2093      2094
      2090      2093      2095      2090      2093      2096      2091      2090      2092
      2091      2090      2093      2092      2090      2093      2093      2096      2097
      2093      2096      2098      2093      2096      2122      2094      2093      2095
      2094      2093      2096      2095      2093      2096      2096      2098      2099
      2096      2098      2103      2096      2122      2123      2096      2122      2124
      2096      2122      2128      2097      2096      2098      2097      2096      2122
      2098      2096      2122      2098      2099      2100      2098      2099      2101
      2098      2099      2102      2098      2103      2104      2098      2103      2105
      2098      2103      2106      2099      2098      2103      2100      2099      2101
      2100      2099      2102      2101      2099      2102      2103      2106      2107
      2103      2106      2108      2103      2106      2109      2104      2103      2105
      2104      2103      2106      2105      2103      2106      2106      2109      2110
      2106      2109      2111      2107      2106      2108      2107      2106      2109
      2108      2106      2109      2109      2111      2112      2109      2111      2116
      2110      2109      2111      2111      2112      2113      2111      2112      2114
      2111      2112      2115      2111      2116      2117      2111      2116      2118
      2111      2116      2119      2112      2111      2116      2113      2112      2114
      2113      2112      2115      2114      2112      2115      2116      2119      2120
      2116      2119      2121      2117      2116      2118      2117      2116      2119
      2118      2116      2119      2120      2119      2121      2122      2124      2125
      2122      2124      2126      2122      2124      2127      2122      2128      2129
      2122      2128      2130      2122      2128      2131      2123      2122      2124
      2123      2122      2128      2124      2122      2128      2125      2124      2126
      2125      2124      2127      2126      2124      2127      2128      2131      2132
      2128      2131      2133      2128      2131      2134      2129      2128      2130
      2129      2128      2131      2130      2128      2131      2131      2134      2135
      2131      2134      2136      2131      2134      2137      2132      2131      2133
      2132      2131      2134      2133      2131      2134      2134      2137      2138
      2134      2137      2139      2134      2137      2143      2135      2134      2136
      2135      2134      2137      2136      2134      2137      2137      2139      2140
      2137      2139      2141      2137      2139      2142      2137      2143      2144
      2137      2143      2145      2137      2143      2146      2138      2137      2139
      2138      2137      2143      2139      2137      2143      2140      2139      2141
      2140      2139      2142      2141      2139      2142      2144      2143      2145
      2144      2143      2146      2145      2143      2146      2147      2149      2150
      2147      2151      2152      2147      2151      2153      2147      2151      2154
      2147      2193      2190      2147      2193      2194      2147      2193      2195
      2148      2147      2149      2148      2147      2151      2148      2147      2193
      2149      2147      2151      2149      2147      2193      2151      2147      2193
      2151      2154      2155      2151      2154      2185      2152      2151      2153
      2152      2151      2154      2153      2151      2154      2154      2155      2156
      2154      2155      2157      2154      2185      2183      2154      2185      2186
      2154      2185      2190      2155      2154      2185      2155      2157      2158
      2155      2157      2159      2155      2157      2160      2156      2155      2157
      2157      2160      2161      2157      2160      2162      2157      2160      2183
      2158      2157      2159      2158      2157      2160      2159      2157      2160
      2160      2162      2163      2160      2162      2164      2160      2162      2172
      2160      2183      2180      2160      2183      2184      2160      2183      2185
      2161      2160      2162      2161      2160      2183      2162      2160      2183
      2162      2164      2165      2162      2164      2166      2162      2164      2167
      2162      2172      2170      2162      2172      2173      2162      2172      2177
      2163      2162      2164      2163      2162      2172      2164      2162      2172
      2164      2167      2168      2164      2167      2169      2164      2167      2170
      2165      2164      2166      2165      2164      2167      2166      2164      2167
      2167      2170      2171      2167      2170      2172      2167      2170      2196
      2168      2167      2169      2168      2167      2170      2169      2167      2170
      2170      2172      2173      2170      2172      2177      2170      2196      2197
      2170      2196      2198      2170      2196      2202      2171      2170      2172
      2171      2170      2196      2172      2170      2196      2172      2173      2174
      2172      2173      2175      2172      2173      2176      2172      2177      2178
      2172      2177      2179      2172      2177      2180      2173      2172      2177
      2174      2173      2175      2174      2173      2176      2175      2173      2176
      2177      2180      2181      2177      2180      2182      2177      2180      2183
      2178      2177      2179      2178      2177      2180      2179      2177      2180
      2180      2183      2184      2180      2183      2185      2181      2180      2182
      2181      2180      2183      2182      2180      2183      2183      2185      2186
      2183      2185      2190      2184      2183      2185      2185      2186      2187
      2185      2186      2188      2185      2186      2189      2185      2190      2191
      2185      2190      2192      2185      2190      2193      2186      2185      2190
      2187      2186      2188      2187      2186      2189      2188      2186      2189
      2190      2193      2194      2190      2193      2195      2191      2190      2192
      2191      2190      2193      2192      2190      2193      2194      2193      2195
      2196      2198      2199      2196      2198      2200      2196      2198      2201
      2196      2202      2203      2196      2202      2204      2196      2202      2205
      2197      2196      2198      2197      2196      2202      2198      2196      2202
      2199      2198      2200      2199      2198      2201      2200      2198      2201
      2202      2205      2206      2202      2205      2207      2202      2205      2208
      2203      2202      2204      2203      2202      2205      2204      2202      2205
      2205      2208      2209      2205      2208      2210      2205      2208      2211
      2206      2205      2207      2206      2205      2208      2207      2205      2208
      2208      2211      2212      2208      2211      2213      2208      2211      2217
      2209      2208      2210      2209      2208      2211      2210      2208      2211
      2211      2213      2214      2211      2213      2215      2211      2213      2216
      2211      2217      2218      2211      2217      2219      2211      2217      2220
      2212      2211      2213      2212      2211      2217      2213      2211      2217
      2214      2213      2215      2214      2213      2216      2215      2213      2216
      2218      2217      2219      2218      2217      2220      2219      2217      2220
      2221      2223      2224      2221      2225      2226      2221      2225      2227
      2221      2225      2228      2221      2267      2264      2221      2267      2268
      2221      2267      2269      2222      2221      2223      2222      2221      2225
      2222      2221      2267      2223      2221      2225      2223      2221      2267
      2225      2221      2267      2225      2228      2229      2225      2228      2259
      2226      2225      2227      2226      2225      2228      2227      2225      2228
      2228      2229      2230      2228      2229      2231      2228      2259      2257
      2228      2259      2260      2228      2259      2264      2229      2228      2259
      2229      2231      2232      2229      2231      2233      2229      2231      2234
      2230      2229      2231      2231      2234      2235      2231      2234      2236
      2231      2234      2257      2232      2231      2233      2232      2231      2234
      2233      2231      2234      2234      2236      2237      2234      2236      2238
      2234      2236      2246      2234      2257      2254      2234      2257      2258
      2234      2257      2259      2235      2234      2236      2235      2234      2257
      2236      2234      2257      2236      2238      2239      2236      2238      2240
      2236      2238      2241      2236      2246      2244      2236      2246      2247
      2236      2246      2251      2237      2236      2238      2237      2236      2246
      2238      2236      2246      2238      2241      2242      2238      2241      2243
      2238      2241      2244      2239      2238      2240      2239      2238      2241
      2240      2238      2241      2241      2244      2245      2241      2244      2246
      2241      2244      2270      2242      2241      2243      2242      2241      2244
      2243      2241      2244      2244      2246      2247      2244      2246      2251
      2244      2270      2271      2244      2270      2272      2244      2270      2276
      2245      2244      2246      2245      2244      2270      2246      2244      2270
      2246      2247      2248      2246      2247      2249      2246      2247      2250
      2246      2251      2252      2246      2251      2253      2246      2251      2254
      2247      2246      2251      2248      2247      2249      2248      2247      2250
      2249      2247      2250      2251      2254      2255      2251      2254      2256
      2251      2254      2257      2252      2251      2253      2252      2251      2254
      2253      2251      2254      2254      2257      2258      2254      2257      2259
      2255      2254      2256      2255      2254      2257      2256      2254      2257
      2257      2259      2260      2257      2259      2264      2258      2257      2259
      2259      2260      2261      2259      2260      2262      2259      2260      2263
      2259      2264      2265      2259      2264      2266      2259      2264      2267
      2260      2259      2264      2261      2260      2262      2261      2260      2263
      2262      2260      2263      2264      2267      2268      2264      2267      2269
      2265      2264      2266      2265      2264      2267      2266      2264      2267
      2268      2267      2269      2270      2272      2273      2270      2272      2274
      2270      2272      2275      2270      2276      2277      2270      2276      2278
      2270      2276      2279      2271      2270      2272      2271      2270      2276
      2272      2270      2276      2273      2272      2274      2273      2272      2275
      2274      2272      2275      2276      2279      2280      2276      2279      2281
      2276      2279      2282      2277      2276      2278      2277      2276      2279
      2278      2276      2279      2279      2282      2283      2279      2282      2284
      2279      2282      2285      2280      2279      2281      2280      2279      2282
      2281      2279      2282      2282      2285      2286      2282      2285      2287
      2282      2285      2291      2283      2282      2284      2283      2282      2285
      2284      2282      2285      2285      2287      2288      2285      2287      2289
      2285      2287      2290      2285      2291      2292      2285      2291      2293
      2285      2291      2294      2286      2285      2287      2286      2285      2291
      2287      2285      2291      2288      2287      2289      2288      2287      2290
      2289      2287      2290      2292      2291      2293      2292      2291      2294
      2293      2291      2294      2295      2297      2298      2295      2299      2300
      2295      2299      2301      2295      2299      2302      2295      2341      2338
      2295      2341      2342      2295      2341      2343      2296      2295      2297
      2296      2295      2299      2296      2295      2341      2297      2295      2299
      2297      2295      2341      2299      2295      2341      2299      2302      2303
      2299      2302      2333      2300      2299      2301      2300      2299      2302
      2301      2299      2302      2302      2303      2304      2302      2303      2305
      2302      2333      2331      2302      2333      2334      2302      2333      2338
      2303      2302      2333      2303      2305      2306      2303      2305      2307
      2303      2305      2308      2304      2303      2305      2305      2308      2309
      2305      2308      2310      2305      2308      2331      2306      2305      2307
      2306      2305      2308      2307      2305      2308      2308      2310      2311
      2308      2310      2312      2308      2310      2320      2308      2331      2328
      2308      2331      2332      2308      2331      2333      2309      2308      2310
      2309      2308      2331      2310      2308      2331      2310      2312      2313
      2310      2312      2314      2310      2312      2315      2310      2320      2318
      2310      2320      2321      2310      2320      2325      2311      2310      2312
      2311      2310      2320      2312      2310      2320      2312      2315      2316
      2312      2315      2317      2312      2315      2318      2313      2312      2314
      2313      2312      2315      2314      2312      2315      2315      2318      2319
      2315      2318      2320      2315      2318      2344      2316      2315      2317
      2316      2315      2318      2317      2315      2318      2318      2320      2321
      2318      2320      2325      2318      2344      2345      2318      2344      2346
      2318      2344      2350      2319      2318      2320      2319      2318      2344
      2320      2318      2344      2320      2321      2322      2320      2321      2323
      2320      2321      2324      2320      2325      2326      2320      2325      2327
      2320      2325      2328      2321      2320      2325      2322      2321      2323
      2322      2321      2324      2323      2321      2324      2325      2328      2329
      2325      2328      2330      2325      2328      2331      2326      2325      2327
      2326      2325      2328      2327      2325      2328      2328      2331      2332
      2328      2331      2333      2329      2328      2330      2329      2328      2331
      2330      2328      2331      2331      2333      2334      2331      2333      2338
      2332      2331      2333      2333      2334      2335      2333      2334      2336
      2333      2334      2337      2333      2338      2339      2333      2338      2340
      2333      2338      2341      2334      2333      2338      2335      2334      2336
      2335      2334      2337      2336      2334      2337      2338      2341      2342
      2338      2341      2343      2339      2338      2340      2339      2338      2341
      2340      2338      2341      2342      2341      2343      2344      2346      2347
      2344      2346      2348      2344      2346      2349      2344      2350      2351
      2344      2350      2352      2344      2350      2353      2345      2344      2346
      2345      2344      2350      2346      2344      2350      2347      2346      2348
      2347      2346      2349      2348      2346      2349      2350      2353      2354
      2350      2353      2355      2350      2353      2356      2351      2350      2352
      2351      2350      2353      2352      2350      2353      2353      2356      2357
      2353      2356      2358      2353      2356      2359      2354      2353      2355
      2354      2353      2356      2355      2353      2356      2356      2359      2360
      2356      2359      2361      2356      2359      2365      2357      2356      2358
      2357      2356      2359      2358      2356      2359      2359      2361      2362
      2359      2361      2363      2359      2361      2364      2359      2365      2366
      2359      2365      2367      2359      2365      2368      2360      2359      2361
      2360      2359      2365      2361      2359      2365      2362      2361      2363
      2362      2361      2364      2363      2361      2364      2366      2365      2367
      2366      2365      2368      2367      2365      2368      2369      2371      2372
      2369      2373      2374      2369      2373      2375      2369      2373      2376
      2369      2415      2412      2369      2415      2416      2369      2415      2417
      2370      2369      2371      2370      2369      2373      2370      2369      2415
      2371      2369      2373      2371      2369      2415      2373      2369      2415
      2373      2376      2377      2373      2376      2407      2374      2373      2375
      2374      2373      2376      2375      2373      2376      2376      2377      2378
      2376      2377      2379      2376      2407      2405      2376      2407      2408
      2376      2407      2412      2377      2376      2407      2377      2379      2380
      2377      2379      2381      2377      2379      2382      2378      2377      2379
      2379      2382      2383      2379      2382      2384      2379      2382      2405
      2380      2379      2381      2380      2379      2382      2381      2379      2382
      2382      2384      2385      2382      2384      2386      2382      2384      2394
      2382      2405      2402      2382      2405      2406      2382      2405      2407
      2383      2382      2384      2383      2382      2405      2384      2382      2405
      2384      2386      2387      2384      2386      2388      2384      2386      2389
      2384      2394      2392      2384      2394      2395      2384      2394      2399
      2385      2384      2386      2385      2384      2394      2386      2384      2394
      2386      2389      2390      2386      2389      2391      2386      2389      2392
      2387      2386      2388      2387      2386      2389      2388      2386      2389
      2389      2392      2393      2389      2392      2394      2389      2392      2418
      2390      2389      2391      2390      2389      2392      2391      2389      2392
      2392      2394      2395      2392      2394      2399      2392      2418      2419
      2392      2418      2420      2392      2418      2424      2393      2392      2394
      2393      2392      2418      2394      2392      2418      2394      2395      2396
      2394      2395      2397      2394      2395      2398      2394      2399      2400
      2394      2399      2401      2394      2399      2402      2395      2394      2399
      2396      2395      2397      2396      2395      2398      2397      2395      2398
      2399      2402      2403      2399      2402      2404      2399      2402      2405
      2400      2399      2401      2400      2399      2402      2401      2399      2402
      2402      2405      2406      2402      2405      2407      2403      2402      2404
      2403      2402      2405      2404      2402      2405      2405      2407      2408
      2405      2407      2412      2406      2405      2407      2407      2408      2409
      2407      2408      2410      2407      2408      2411      2407      2412      2413
      2407      2412      2414      2407      2412      2415      2408      2407      2412
      2409      2408      2410      2409      2408      2411      2410      2408      2411
      2412      2415      2416      2412      2415      2417      2413      2412      2414
      2413      2412      2415      2414      2412      2415      2416      2415      2417
      2418      2420      2421      2418      2420      2422      2418      2420      2423
      2418      2424      2425      2418      2424      2426      2418      2424      2427
      2419      2418      2420      2419      2418      2424      2420      2418      2424
      2421      2420      2422      2421      2420      2423      2422      2420      2423
      2424      2427      2428      2424      2427      2429      2424      2427      2430
      2425      2424      2426      2425      2424      2427      2426      2424      2427
      2427      2430      2431      2427      2430      2432      2427      2430      2433
      2428      2427      2429      2428      2427      2430      2429      2427      2430
      2430      2433      2434      2430      2433      2435      2430      2433      2439
      2431      2430      2432      2431      2430      2433      2432      2430      2433
      2433      2435      2436      2433      2435      2437      2433      2435      2438
      2433      2439      2440      2433      2439      2441      2433      2439      2442
      2434      2433      2435      2434      2433      2439      2435      2433      2439
      2436      2435      2437      2436      2435      2438      2437      2435      2438
      2440      2439      2441      2440      2439      2442      2441      2439      2442
      2443      2445      2446      2443      2447      2448      2443      2447      2449
      2443      2447      2450      2443      2489      2486      2443      2489      2490
      2443      2489      2491      2444      2443      2445      2444      2443      2447
      2444      2443      2489      2445      2443      2447      2445      2443      2489
      2447      2443      2489      2447      2450      2451      2447      2450      2481
      2448      2447      2449      2448      2447      2450      2449      2447      2450
      2450      2451      2452      2450      2451      2453      2450      2481      2479
      2450      2481      2482      2450      2481      2486      2451      2450      2481
      2451      2453      2454      2451      2453      2455      2451      2453      2456
      2452      2451      2453      2453      2456      2457      2453      2456      2458
      2453      2456      2479      2454      2453      2455      2454      2453      2456
      2455      2453      2456      2456      2458      2459      2456      2458      2460
      2456      2458      2468      2456      2479      2476      2456      2479      2480
      2456      2479      2481      2457      2456      2458      2457      2456      2479
      2458      2456      2479      2458      2460      2461      2458      2460      2462
      2458      2460      2463      2458      2468      2466      2458      2468      2469
      2458      2468      2473      2459      2458      2460      2459      2458      2468
      2460      2458      2468      2460      2463      2464      2460      2463      2465
      2460      2463      2466      2461      2460      2462      2461      2460      2463
      2462      2460      2463      2463      2466      2467      2463      2466      2468
      2463      2466      2492      2464      2463      2465      2464      2463      2466
      2465      2463      2466      2466      2468      2469      2466      2468      2473
      2466      2492      2493      2466      2492      2494      2466      2492      2498
      2467      2466      2468      2467      2466      2492      2468      2466      2492
      2468      2469      2470      2468      2469      2471      2468      2469      2472
      2468      2473      2474      2468      2473      2475      2468      2473      2476
      2469      2468      2473      2470      2469      2471      2470      2469      2472
      2471      2469      2472      2473      2476      2477      2473      2476      2478
      2473      2476      2479      2474      2473      2475      2474      2473      2476
      2475      2473      2476      2476      2479      2480      2476      2479      2481
      2477      2476      2478      2477      2476      2479      2478      2476      2479
      2479      2481      2482      2479      2481      2486      2480      2479      2481
      2481      2482      2483      2481      2482      2484      2481      2482      2485
      2481      2486      2487      2481      2486      2488      2481      2486      2489
      2482      2481      2486      2483      2482      2484      2483      2482      2485
      2484      2482      2485      2486      2489      2490      2486      2489      2491
      2487      2486      2488      2487      2486      2489      2488      2486      2489
      2490      2489      2491      2492      2494      2495      2492      2494      2496
      2492      2494      2497      2492      2498      2499      2492      2498      2500
      2492      2498      2501      2493      2492      2494      2493      2492      2498
      2494      2492      2498      2495      2494      2496      2495      2494      2497
      2496      2494      2497      2498      2501      2502      2498      2501      2503
      2498      2501      2504      2499      2498      2500      2499      2498      2501
      2500      2498      2501      2501      2504      2505      2501      2504      2506
      2501      2504      2507      2502      2501      2503      2502      2501      2504
      2503      2501      2504      2504      2507      2508      2504      2507      2509
      2504      2507      2513      2505      2504      2506      2505      2504      2507
      2506      2504      2507      2507      2509      2510      2507      2509      2511
      2507      2509      2512      2507      2513      2514      2507      2513      2515
      2507      2513      2516      2508      2507      2509      2508      2507      2513
      2509      2507      2513      2510      2509      2511      2510      2509      2512
      2511      2509      2512      2514      2513      2515      2514      2513      2516
      2515      2513      2516      2517      2519      2520      2517      2521      2522
      2517      2521      2523      2517      2521      2524      2517      2563      2560
      2517      2563      2564      2517      2563      2565      2518      2517      2519
      2518      2517      2521      2518      2517      2563      2519      2517      2521
      2519      2517      2563      2521      2517      2563      2521      2524      2525
      2521      2524      2555      2522      2521      2523      2522      2521      2524
      2523      2521      2524      2524      2525      2526      2524      2525      2527
      2524      2555      2553      2524      2555      2556      2524      2555      2560
      2525      2524      2555      2525      2527      2528      2525      2527      2529
      2525      2527      2530      2526      2525      2527      2527      2530      2531
      2527      2530      2532      2527      2530      2553      2528      2527      2529
      2528      2527      2530      2529      2527      2530      2530      2532      2533
      2530      2532      2534      2530      2532      2542      2530      2553      2550
      2530      2553      2554      2530      2553      2555      2531      2530      2532
      2531      2530      2553      2532      2530      2553      2532      2534      2535
      2532      2534      2536      2532      2534      2537      2532      2542      2540
      2532      2542      2543      2532      2542      2547      2533      2532      2534
      2533      2532      2542      2534      2532      2542      2534      2537      2538
      2534      2537      2539      2534      2537      2540      2535      2534      2536
      2535      2534      2537      2536      2534      2537      2537      2540      2541
      2537      2540      2542      2537      2540      2566      2538      2537      2539
      2538      2537      2540      2539      2537      2540      2540      2542      2543
      2540      2542      2547      2540      2566      2567      2540      2566      2568
      2540      2566      2572      2541      2540      2542      2541      2540      2566
      2542      2540      2566      2542      2543      2544      2542      2543      2545
      2542      2543      2546      2542      2547      2548      2542      2547      2549
      2542      2547      2550      2543      2542      2547      2544      2543      2545
      2544      2543      2546      2545      2543      2546      2547      2550      2551
      2547      2550      2552      2547      2550      2553      2548      2547      2549
      2548      2547      2550      2549      2547      2550      2550      2553      2554
      2550      2553      2555      2551      2550      2552      2551      2550      2553
      2552      2550      2553      2553      2555      2556      2553      2555      2560
      2554      2553      2555      2555      2556      2557      2555      2556      2558
      2555      2556      2559      2555      2560      2561      2555      2560      2562
      2555      2560      2563      2556      2555      2560      2557      2556      2558
      2557      2556      2559      2558      2556      2559      2560      2563      2564
      2560      2563      2565      2561      2560      2562      2561      2560      2563
      2562      2560      2563      2564      2563      2565      2566      2568      2569
      2566      2568      2570      2566      2568      2571      2566      2572      2573
      2566      2572      2574      2566      2572      2575      2567      2566      2568
      2567      2566      2572      2568      2566      2572      2569      2568      2570
      2569      2568      2571      2570      2568      2571      2572      2575      2576
      2572      2575      2577      2572      2575      2578      2573      2572      2574
      2573      2572      2575      2574      2572      2575      2575      2578      2579
      2575      2578      2580      2575      2578      2581      2576      2575      2577
      2576      2575      2578      2577      2575      2578      2578      2581      2582
      2578      2581      2583      2578      2581      2587      2579      2578      2580
      2579      2578      2581      2580      2578      2581      2581      2583      2584
      2581      2583      2585      2581      2583      2586      2581      2587      2588
      2581      2587      2589      2581      2587      2590      2582      2581      2583
      2582      2581      2587      2583      2581      2587      2584      2583      2585
      2584      2583      2586      2585      2583      2586      2588      2587      2589
      2588      2587      2590      2589      2587      2590      2591      2593      2594
      2591      2595      2596      2591      2595      2597      2591      2595      2598
      2591      2637      2634      2591      2637      2638      2591      2637      2639
      2592      2591      2593      2592      2591      2595      2592      2591      2637
      2593      2591      2595      2593      2591      2637      2595      2591      2637
      2595      2598      2599      2595      2598      2629      2596      2595      2597
      2596      2595      2598      2597      2595      2598      2598      2599      2600
      2598      2599      2601      2598      2629      2627      2598      2629      2630
      2598      2629      2634      2599      2598      2629      2599      2601      2602
      2599      2601      2603      2599      2601      2604      2600      2599      2601
      2601      2604      2605      2601      2604      2606      2601      2604      2627
      2602      2601      2603      2602      2601      2604      2603      2601      2604
      2604      2606      2607      2604      2606      2608      2604      2606      2616
      2604      2627      2624      2604      2627      2628      2604      2627      2629
      2605      2604      2606      2605      2604      2627      2606      2604      2627
      2606      2608      2609      2606      2608      2610      2606      2608      2611
      2606      2616      2614      2606      2616      2617      2606      2616      2621
      2607      2606      2608      2607      2606      2616      2608      2606      2616
      2608      2611      2612      2608      2611      2613      2608      2611      2614
      2609      2608      2610      2609      2608      2611      2610      2608      2611
      2611      2614      2615      2611      2614      2616      2611      2614      2640
      2612      2611      2613      2612      2611      2614      2613      2611      2614
      2614      2616      2617      2614      2616      2621      2614      2640      2641
      2614      2640      2642      2614      2640      2646      2615      2614      2616
      2615      2614      2640      2616      2614      2640      2616      2617      2618
      2616      2617      2619      2616      2617      2620      2616      2621      2622
      2616      2621      2623      2616      2621      2624      2617      2616      2621
      2618      2617      2619      2618      2617      2620      2619      2617      2620
      2621      2624      2625      2621      2624      2626      2621      2624      2627
      2622      2621      2623      2622      2621      2624      2623      2621      2624
      2624      2627      2628      2624      2627      2629      2625      2624      2626
      2625      2624      2627      2626      2624      2627      2627      2629      2630
      2627      2629      2634      2628      2627      2629      2629      2630      2631
      2629      2630      2632      2629      2630      2633      2629      2634      2635
      2629      2634      2636      2629      2634      2637      2630      2629      2634
      2631      2630      2632      2631      2630      2633      2632      2630      2633
      2634      2637      2638      2634      2637      2639      2635      2634      2636
      2635      2634      2637      2636      2634      2637      2638      2637      2639
      2640      2642      2643      2640      2642      2644      2640      2642      2645
      2640      2646      2647      2640      2646      2648      2640      2646      2649
      2641      2640      2642      2641      2640      2646      2642      2640      2646
      2643      2642      2644      2643      2642      2645      2644      2642      2645
      2646      2649      2650      2646      2649      2651      2646      2649      2652
      2647      2646      2648      2647      2646      2649      2648      2646      2649
      2649      2652      2653      2649      2652      2654      2649      2652      2655
      2650      2649      2651      2650      2649      2652      2651      2649      2652
      2652      2655      2656      2652      2655      2657      2652      2655      2661
      2653      2652      2654      2653      2652      2655      2654      2652      2655
      2655      2657      2658      2655      2657      2659      2655      2657      2660
      2655      2661      2662      2655      2661      2663      2655      2661      2664
      2656      2655      2657      2656      2655      2661      2657      2655      2661
      2658      2657      2659      2658      2657      2660      2659      2657      2660
      2662      2661      2663      2662      2661      2664      2663      2661      2664
      2665      2667      2668      2665      2669      2670      2665      2669      2671
      2665      2669      2672      2665      2711      2708      2665      2711      2712
      2665      2711      2713      2666      2665      2667      2666      2665      2669
      2666      2665      2711      2667      2665      2669      2667      2665      2711
      2669      2665      2711      2669      2672      2673      2669      2672      2703
      2670      2669      2671      2670      2669      2672      2671      2669      2672
      2672      2673      2674      2672      2673      2675      2672      2703      2701
      2672      2703      2704      2672      2703      2708      2673      2672      2703
      2673      2675      2676      2673      2675      2677      2673      2675      2678
      2674      2673      2675      2675      2678      2679      2675      2678      2680
      2675      2678      2701      2676      2675      2677      2676      2675      2678
      2677      2675      2678      2678      2680      2681      2678      2680      2682
      2678      2680      2690      2678      2701      2698      2678      2701      2702
      2678      2701      2703      2679      2678      2680      2679      2678      2701
      2680      2678      2701      2680      2682      2683      2680      2682      2684
      2680      2682      2685      2680      2690      2688      2680      2690      2691
      2680      2690      2695      2681      2680      2682      2681      2680      2690
      2682      2680      2690      2682      2685      2686      2682      2685      2687
      2682      2685      2688      2683      2682      2684      2683      2682      2685
      2684      2682      2685      2685      2688      2689      2685      2688      2690
      2685      2688      2714      2686      2685      2687      2686      2685      2688
      2687      2685      2688      2688      2690      2691      2688      2690      2695
      2688      2714      2715      2688      2714      2716      2688      2714      2720
      2689      2688      2690      2689      2688      2714      2690      2688      2714
      2690      2691      2692      2690      2691      2693      2690      2691      2694
      2690      2695      2696      2690      2695      2697      2690      2695      2698
      2691      2690      2695      2692      2691      2693      2692      2691      2694
      2693      2691      2694      2695      2698      2699      2695      2698      2700
      2695      2698      2701      2696      2695      2697      2696      2695      2698
      2697      2695      2698      2698      2701      2702      2698      2701      2703
      2699      2698      2700      2699      2698      2701      2700      2698      2701
      2701      2703      2704      2701      2703      2708      2702      2701      2703
      2703      2704      2705      2703      2704      2706      2703      2704      2707
      2703      2708      2709      2703      2708      2710      2703      2708      2711
      2704      2703      2708      2705      2704      2706      2705      2704      2707
      2706      2704      2707      2708      2711      2712      2708      2711      2713
      2709      2708      2710      2709      2708      2711      2710      2708      2711
      2712      2711      2713      2714      2716      2717      2714      2716      2718
      2714      2716      2719      2714      2720      2721      2714      2720      2722
      2714      2720      2723      2715      2714      2716      2715      2714      2720
      2716      2714      2720      2717      2716      2718      2717      2716      2719
      2718      2716      2719      2720      2723      2724      2720      2723      2725
      2720      2723      2726      2721      2720      2722      2721      2720      2723
      2722      2720      2723      2723      2726      2727      2723      2726      2728
      2723      2726      2729      2724      2723      2725      2724      2723      2726
      2725      2723      2726      2726      2729      2730      2726      2729      2731
      2726      2729      2735      2727      2726      2728      2727      2726      2729
      2728      2726      2729      2729      2731      2732      2729      2731      2733
      2729      2731      2734      2729      2735      2736      2729      2735      2737
      2729      2735      2738      2730      2729      2731      2730      2729      2735
      2731      2729      2735      2732      2731      2733      2732      2731      2734
      2733      2731      2734      2736      2735      2737      2736      2735      2738
      2737      2735      2738      2739      2741      2742      2739      2743      2744
      2739      2743      2745      2739      2743      2746      2739      2785      2782
      2739      2785      2786      2739      2785      2787      2740      2739      2741
      2740      2739      2743      2740      2739      2785      2741      2739      2743
      2741      2739      2785      2743      2739      2785      2743      2746      2747
      2743      2746      2777      2744      2743      2745      2744      2743      2746
      2745      2743      2746      2746      2747      2748      2746      2747      2749
      2746      2777      2775      2746      2777      2778      2746      2777      2782
      2747      2746      2777      2747      2749      2750      2747      2749      2751
      2747      2749      2752      2748      2747      2749      2749      2752      2753
      2749      2752      2754      2749      2752      2775      2750      2749      2751
      2750      2749      2752      2751      2749      2752      2752      2754      2755
      2752      2754      2756      2752      2754      2764      2752      2775      2772
      2752      2775      2776      2752      2775      2777      2753      2752      2754
      2753      2752      2775      2754      2752      2775      2754      2756      2757
      2754      2756      2758      2754      2756      2759      2754      2764      2762
      2754      2764      2765      2754      2764      2769      2755      2754      2756
      2755      2754      2764      2756      2754      2764      2756      2759      2760
      2756      2759      2761      2756      2759      2762      2757      2756      2758
      2757      2756      2759      2758      2756      2759      2759      2762      2763
      2759      2762      2764      2759      2762      2788      2760      2759      2761
      2760      2759      2762      2761      2759      2762      2762      2764      2765
      2762      2764      2769      2762      2788      2789      2762      2788      2790
      2762      2788      2794      2763      2762      2764      2763      2762      2788
      2764      2762      2788      2764      2765      2766      2764      2765      2767
      2764      2765      2768      2764      2769      2770      2764      2769      2771
      2764      2769      2772      2765      2764      2769      2766      2765      2767
      2766      2765      2768      2767      2765      2768      2769      2772      2773
      2769      2772      2774      2769      2772      2775      2770      2769      2771
      2770      2769      2772      2771      2769      2772      2772      2775      2776
      2772      2775      2777      2773      2772      2774      2773      2772      2775
      2774      2772      2775      2775      2777      2778      2775      2777      2782
      2776      2775      2777      2777      2778      2779      2777      2778      2780
      2777      2778      2781      2777      2782      2783      2777      2782      2784
      2777      2782      2785      2778      2777      2782      2779      2778      2780
      2779      2778      2781      2780      2778      2781      2782      2785      2786
      2782      2785      2787      2783      2782      2784      2783      2782      2785
      2784      2782      2785      2786      2785      2787      2788      2790      2791
      2788      2790      2792      2788      2790      2793      2788      2794      2795
      2788      2794      2796      2788      2794      2797      2789      2788      2790
      2789      2788      2794      2790      2788      2794      2791      2790      2792
      2791      2790      2793      2792      2790      2793      2794      2797      2798
      2794      2797      2799      2794      2797      2800      2795      2794      2796
      2795      2794      2797      2796      2794      2797      2797      2800      2801
      2797      2800      2802      2797      2800      2803      2798      2797      2799
      2798      2797      2800      2799      2797      2800      2800      2803      2804
      2800      2803      2805      2800      2803      2809      2801      2800      2802
      2801      2800      2803      2802      2800      2803      2803      2805      2806
      2803      2805      2807      2803      2805      2808      2803      2809      2810
      2803      2809      2811      2803      2809      2812      2804      2803      2805
      2804      2803      2809      2805      2803      2809      2806      2805      2807
      2806      2805      2808      2807      2805      2808      2810      2809      2811
      2810      2809      2812      2811      2809      2812      2813      2814      2815
      2813      2814      2816      2813      2814      2829      2813      2817      2818
      2813      2817      2819      2813      2817      2820      2813      2821      2822
      2813      2821      2823      2813      2821      2824      2813      2825      2826
      2813      2825      2827      2813      2825      2828      2814      2813      2817
      2814      2813      2821      2814      2813      2825      2814      2829      2830
      2814      2829      2831      2814      2829      2835      2815      2814      2816
      2815      2814      2829      2816      2814      2829      2817      2813      2821
      2817      2813      2825      2818      2817      2819      2818      2817      2820
      2819      2817      2820      2821      2813      2825      2822      2821      2823
      2822      2821      2824      2823      2821      2824      2826      2825      2827
      2826      2825      2828      2827      2825      2828      2829      2835      2832
      2830      2829      2831      2830      2829      2835      2831      2829      2835
      2832      2836      2837      2833      2832      2834      2833      2832      2835
      2833      2832      2836      2834      2832      2835      2834      2832      2836
      2835      2832      2836      2836      2837      2838      2836      2837      2839
      2836      2837      2840      2837      2840      2841      2837      2840      2842
      2837      2840      2848      2838      2837      2839      2838      2837      2840
      2839      2837      2840      2840      2842      2843      2840      2848      2849
      2840      2848      2850      2840      2848      2851      2841      2840      2842
      2841      2840      2848      2842      2840      2848      2842      2843      2844
      2842      2843      2845      2843      2845      2846      2843      2845      2847
      2843      2845      2857      2844      2843      2845      2845      2857      2858
      2845      2857      2859      2845      2857      2860      2846      2845      2847
      2846      2845      2857      2847      2845      2857      2848      2851      2852
      2849      2848      2850      2849      2848      2851      2850      2848      2851
      2851      2852      2853      2851      2852      2854      2852      2854      2855
      2852      2854      2856      2852      2854      2904      2853      2852      2854
      2854      2904      2905      2854      2904      2906      2854      2904      2907
      2855      2854      2856      2855      2854      2904      2856      2854      2904
      2857      2860      2861      2857      2860      2862      2857      2860      2863
      2858      2857      2859      2858      2857      2860      2859      2857      2860
      2860      2863      2864      2860      2863      2865      2860      2863      2866
      2861      2860      2862      2861      2860      2863      2862      2860      2863
      2863      2866      2867      2863      2866      2868      2863      2866      2869
      2864      2863      2865      2864      2863      2866      2865      2863      2866
      2866      2869      2870      2866      2869      2871      2866      2869      2872
      2867      2866      2868      2867      2866      2869      2868      2866      2869
      2869      2872      2873      2869      2872      2874      2869      2872      2875
      2870      2869      2871      2870      2869      2872      2871      2869      2872
      2872      2875      2876      2872      2875      2877      2873      2872      2874
      2873      2872      2875      2874      2872      2875      2875      2877      2878
      2875      2877      2879      2876      2875      2877      2877      2879      2880
      2877      2879      2881      2877      2879      2882      2878      2877      2879
      2879      2882      2883      2879      2882      2884      2879      2882      2885
      2880      2879      2881      2880      2879      2882      2881      2879      2882
      2882      2885      2886      2882      2885      2887      2882      2885      2888
      2883      2882      2884      2883      2882      2885      2884      2882      2885
      2885      2888      2889      2885      2888      2890      2885      2888      2891
      2886      2885      2887      2886      2885      2888      2887      2885      2888
      2888      2891      2892      2888      2891      2893      2888      2891      2894
      2889      2888      2890      2889      2888      2891      2890      2888      2891
      2891      2894      2895      2891      2894      2896      2891      2894      2897
      2892      2891      2893      2892      2891      2894      2893      2891      2894
      2894      2897      2898      2894      2897      2899      2894      2897      2900
      2895      2894      2896      2895      2894      2897      2896      2894      2897
      2897      2900      2901      2897      2900      2902      2897      2900      2903
      2898      2897      2899      2898      2897      2900      2899      2897      2900
      2901      2900      2902      2901      2900      2903      2902      2900      2903
      2904      2907      2908      2904      2907      2909      2904      2907      2910
      2905      2904      2906      2905      2904      2907      2906      2904      2907
      2907      2910      2911      2907      2910      2912      2907      2910      2913
      2908      2907      2909      2908      2907      2910      2909      2907      2910
      2910      2913      2914      2910      2913      2915      2910      2913      2916
      2911      2910      2912      2911      2910      2913      2912      2910      2913
      2913      2916      2917      2913      2916      2918      2913      2916      2919
      2914      2913      2915      2914      2913      2916      2915      2913      2916
      2916      2919      2920      2916      2919      2921      2916      2919      2922
      2917      2916      2918      2917      2916      2919      2918      2916      2919
      2919      2922      2923      2919      2922      2924      2919      2922      2925
      2920      2919      2921      2920      2919      2922      2921      2919      2922
      2922      2925      2926      2922      2925      2927      2922      2925      2928
      2923      2922      2924      2923      2922      2925      2924      2922      2925
      2925      2928      2929      2925      2928      2930      2925      2928      2931
      2926      2925      2927      2926      2925      2928      2927      2925      2928
      2928      2931      2932      2928      2931      2933      2928      2931      2934
      2929      2928      2930      2929      2928      2931      2930      2928      2931
      2931      2934      2935      2931      2934      2936      2931      2934      2937
      2932      2931      2933      2932      2931      2934      2933      2931      2934
      2934      2937      2938      2934      2937      2939      2934      2937      2940
      2935      2934      2936      2935      2934      2937      2936      2934      2937
      2937      2940      2941      2937      2940      2942      2937      2940      2943
      2938      2937      2939      2938      2937      2940      2939      2937      2940
      2940      2943      2944      2940      2943      2945      2940      2943      2946
      2941      2940      2942      2941      2940      2943      2942      2940      2943
      2944      2943      2945      2944      2943      2946      2945      2943      2946
      2947      2948      2949      2947      2948      2950      2947      2948      2963
      2947      2951      2952      2947      2951      2953      2947      2951      2954
      2947      2955      2956      2947      2955      2957      2947      2955      2958
      2947      2959      2960      2947      2959      2961      2947      2959      2962
      2948      2947      2951      2948      2947      2955      2948      2947      2959
      2948      2963      2964      2948      2963      2965      2948      2963      2969
      2949      2948      2950      2949      2948      2963      2950      2948      2963
      2951      2947      2955      2951      2947      2959      2952      2951      2953
      2952      2951      2954      2953      2951      2954      2955      2947      2959
      2956      2955      2957      2956      2955      2958      2957      2955      2958
      2960      2959      2961      2960      2959      2962      2961      2959      2962
      2963      2969      2966      2964      2963      2965      2964      2963      2969
      2965      2963      2969      2966      2970      2971      2967      2966      2968
      2967      2966      2969      2967      2966      2970      2968      2966      2969
      2968      2966      2970      2969      2966      2970      2970      2971      2972
      2970      2971      2973      2970      2971      2974      2971      2974      2975
      2971      2974      2976      2971      2974      2982      2972      2971      2973
      2972      2971      2974      2973      2971      2974      2974      2976      2977
      2974      2982      2983      2974      2982      2984      2974      2982      2985
      2975      2974      2976      2975      2974      2982      2976      2974      2982
      2976      2977      2978      2976      2977      2979      2977      2979      2980
      2977      2979      2981      2977      2979      2991      2978      2977      2979
      2979      2991      2992      2979      2991      2993      2979      2991      2994
      2980      2979      2981      2980      2979      2991      2981      2979      2991
      2982      2985      2986      2983      2982      2984      2983      2982      2985
      2984      2982      2985      2985      2986      2987      2985      2986      2988
      2986      2988      2989      2986      2988      2990      2986      2988      3038
      2987      2986      2988      2988      3038      3039      2988      3038      3040
      2988      3038      3041      2989      2988      2990      2989      2988      3038
      2990      2988      3038      2991      2994      2995      2991      2994      2996
      2991      2994      2997      2992      2991      2993      2992      2991      2994
      2993      2991      2994      2994      2997      2998      2994      2997      2999
      2994      2997      3000      2995      2994      2996      2995      2994      2997
      2996      2994      2997      2997      3000      3001      2997      3000      3002
      2997      3000      3003      2998      2997      2999      2998      2997      3000
      2999      2997      3000      3000      3003      3004      3000      3003      3005
      3000      3003      3006      3001      3000      3002      3001      3000      3003
      3002      3000      3003      3003      3006      3007      3003      3006      3008
      3003      3006      3009      3004      3003      3005      3004      3003      3006
      3005      3003      3006      3006      3009      3010      3006      3009      3011
      3007      3006      3008      3007      3006      3009      3008      3006      3009
      3009      3011      3012      3009      3011      3013      3010      3009      3011
      3011      3013      3014      3011      3013      3015      3011      3013      3016
      3012      3011      3013      3013      3016      3017      3013      3016      3018
      3013      3016      3019      3014      3013      3015      3014      3013      3016
      3015      3013      3016      3016      3019      3020      3016      3019      3021
      3016      3019      3022      3017      3016      3018      3017      3016      3019
      3018      3016      3019      3019      3022      3023      3019      3022      3024
      3019      3022      3025      3020      3019      3021      3020      3019      3022
      3021      3019      3022      3022      3025      3026      3022      3025      3027
      3022      3025      3028      3023      3022      3024      3023      3022      3025
      3024      3022      3025      3025      3028      3029      3025      3028      3030
      3025      3028      3031      3026      3025      3027      3026      3025      3028
      3027      3025      3028      3028      3031      3032      3028      3031      3033
      3028      3031      3034      3029      3028      3030      3029      3028      3031
      3030      3028      3031      3031      3034      3035      3031      3034      3036
      3031      3034      3037      3032      3031      3033      3032      3031      3034
      3033      3031      3034      3035      3034      3036      3035      3034      3037
      3036      3034      3037      3038      3041      3042      3038      3041      3043
      3038      3041      3044      3039      3038      3040      3039      3038      3041
      3040      3038      3041      3041      3044      3045      3041      3044      3046
      3041      3044      3047      3042      3041      3043      3042      3041      3044
      3043      3041      3044      3044      3047      3048      3044      3047      3049
      3044      3047      3050      3045      3044      3046      3045      3044      3047
      3046      3044      3047      3047      3050      3051      3047      3050      3052
      3047      3050      3053      3048      3047      3049      3048      3047      3050
      3049      3047      3050      3050      3053      3054      3050      3053      3055
      3050      3053      3056      3051      3050      3052      3051      3050      3053
      3052      3050      3053      3053      3056      3057      3053      3056      3058
      3053      3056      3059      3054      3053      3055      3054      3053      3056
      3055      3053      3056      3056      3059      3060      3056      3059      3061
      3056      3059      3062      3057      3056      3058      3057      3056      3059
      3058      3056      3059      3059      3062      3063      3059      3062      3064
      3059      3062      3065      3060      3059      3061      3060      3059      3062
      3061      3059      3062      3062      3065      3066      3062      3065      3067
      3062      3065      3068      3063      3062      3064      3063      3062      3065
      3064      3062      3065      3065      3068      3069      3065      3068      3070
      3065      3068      3071      3066      3065      3067      3066      3065      3068
      3067      3065      3068      3068      3071      3072      3068      3071      3073
      3068      3071      3074      3069      3068      3070      3069      3068      3071
      3070      3068      3071      3071      3074      3075      3071      3074      3076
      3071      3074      3077      3072      3071      3073      3072      3071      3074
      3073      3071      3074      3074      3077      3078      3074      3077      3079
      3074      3077      3080      3075      3074      3076      3075      3074      3077
      3076      3074      3077      3078      3077      3079      3078      3077      3080
      3079      3077      3080      3081      3082      3083      3081      3082      3084
      3081      3082      3097      3081      3085      3086      3081      3085      3087
      3081      3085      3088      3081      3089      3090      3081      3089      3091
      3081      3089      3092      3081      3093      3094      3081      3093      3095
      3081      3093      3096      3082      3081      3085      3082      3081      3089
      3082      3081      3093      3082      3097      3098      3082      3097      3099
      3082      3097      3103      3083      3082      3084      3083      3082      3097
      3084      3082      3097      3085      3081      3089      3085      3081      3093
      3086      3085      3087      3086      3085      3088      3087      3085      3088
      3089      3081      3093      3090      3089      3091      3090      3089      3092
      3091      3089      3092      3094      3093      3095      3094      3093      3096
      3095      3093      3096      3097      3103      3100      3098      3097      3099
      3098      3097      3103      3099      3097      3103      3100      3104      3105
      3101      3100      3102      3101      3100      3103      3101      3100      3104
      3102      3100      3103      3102      3100      3104      3103      3100      3104
      3104      3105      3106      3104      3105      3107      3104      3105      3108
      3105      3108      3109      3105      3108      3110      3105      3108      3116
      3106      3105      3107      3106      3105      3108      3107      3105      3108
      3108      3110      3111      3108      3116      3117      3108      3116      3118
      3108      3116      3119      3109      3108      3110      3109      3108      3116
      3110      3108      3116      3110      3111      3112      3110      3111      3113
      3111      3113      3114      3111      3113      3115      3111      3113      3125
      3112      3111      3113      3113      3125      3126      3113      3125      3127
      3113      3125      3128      3114      3113      3115      3114      3113      3125
      3115      3113      3125      3116      3119      3120      3117      3116      3118
      3117      3116      3119      3118      3116      3119      3119      3120      3121
      3119      3120      3122      3120      3122      3123      3120      3122      3124
      3120      3122      3172      3121      3120      3122      3122      3172      3173
      3122      3172      3174      3122      3172      3175      3123      3122      3124
      3123      3122      3172      3124      3122      3172      3125      3128      3129
      3125      3128      3130      3125      3128      3131      3126      3125      3127
      3126      3125      3128      3127      3125      3128      3128      3131      3132
      3128      3131      3133      3128      3131      3134      3129      3128      3130
      3129      3128      3131      3130      3128      3131      3131      3134      3135
      3131      3134      3136      3131      3134      3137      3132      3131      3133
      3132      3131      3134      3133      3131      3134      3134      3137      3138
      3134      3137      3139      3134      3137      3140      3135      3134      3136
      3135      3134      3137      3136      3134      3137      3137      3140      3141
      3137      3140      3142      3137      3140      3143      3138      3137      3139
      3138      3137      3140      3139      3137      3140      3140      3143      3144
      3140      3143      3145      3141      3140      3142      3141      3140      3143
      3142      3140      3143      3143      3145      3146      3143      3145      3147
      3144      3143      3145      3145      3147      3148      3145      3147      3149
      3145      3147      3150      3146      3145      3147      3147      3150      3151
      3147      3150      3152      3147      3150      3153      3148      3147      3149
      3148      3147      3150      3149      3147      3150      3150      3153      3154
      3150      3153      3155      3150      3153      3156      3151      3150      3152
      3151      3150      3153      3152      3150      3153      3153      3156      3157
      3153      3156      3158      3153      3156      3159      3154      3153      3155
      3154      3153      3156      3155      3153      3156      3156      3159      3160
      3156      3159      3161      3156      3159      3162      3157      3156      3158
      3157      3156      3159      3158      3156      3159      3159      3162      3163
      3159      3162      3164      3159      3162      3165      3160      3159      3161
      3160      3159      3162      3161      3159      3162      3162      3165      3166
      3162      3165      3167      3162      3165      3168      3163      3162      3164
      3163      3162      3165      3164      3162      3165      3165      3168      3169
      3165      3168      3170      3165      3168      3171      3166      3165      3167
      3166      3165      3168      3167      3165      3168      3169      3168      3170
      3169      3168      3171      3170      3168      3171      3172      3175      3176
      3172      3175      3177      3172      3175      3178      3173      3172      3174
      3173      3172      3175      3174      3172      3175      3175      3178      3179
      3175      3178      3180      3175      3178      3181      3176      3175      3177
      3176      3175      3178      3177      3175      3178      3178      3181      3182
      3178      3181      3183      3178      3181      3184      3179      3178      3180
      3179      3178      3181      3180      3178      3181      3181      3184      3185
      3181      3184      3186      3181      3184      3187      3182      3181      3183
      3182      3181      3184      3183      3181      3184      3184      3187      3188
      3184      3187      3189      3184      3187      3190      3185      3184      3186
      3185      3184      3187      3186      3184      3187      3187      3190      3191
      3187      3190      3192      3187      3190      3193      3188      3187      3189
      3188      3187      3190      3189      3187      3190      3190      3193      3194
      3190      3193      3195      3190      3193      3196      3191      3190      3192
      3191      3190      3193      3192      3190      3193      3193      3196      3197
      3193      3196      3198      3193      3196      3199      3194      3193      3195
      3194      3193      3196      3195      3193      3196      3196      3199      3200
      3196      3199      3201      3196      3199      3202      3197      3196      3198
      3197      3196      3199      3198      3196      3199      3199      3202      3203
      3199      3202      3204      3199      3202      3205      3200      3199      3201
      3200      3199      3202      3201      3199      3202      3202      3205      3206
      3202      3205      3207      3202      3205      3208      3203      3202      3204
      3203      3202      3205      3204      3202      3205      3205      3208      3209
      3205      3208      3210      3205      3208      3211      3206      3205      3207
      3206      3205      3208      3207      3205      3208      3208      3211      3212
      3208      3211      3213      3208      3211      3214      3209      3208      3210
      3209      3208      3211      3210      3208      3211      3212      3211      3213
      3212      3211      3214      3213      3211      3214      3215      3216      3217
      3215      3216      3218      3215      3216      3231      3215      3219      3220
      3215      3219      3221      3215      3219      3222      3215      3223      3224
      3215      3223      3225      3215      3223      3226      3215      3227      3228
      3215      3227      3229      3215      3227      3230      3216      3215      3219
      3216      3215      3223      3216      3215      3227      3216      3231      3232
      3216      3231      3233      3216      3231      3237      3217      3216      3218
      3217      3216      3231      3218      3216      3231      3219      3215      3223
      3219      3215      3227      3220      3219      3221      3220      3219      3222
      3221      3219      3222      3223      3215      3227      3224      3223      3225
      3224      3223      3226      3225      3223      3226      3228      3227      3229
      3228      3227      3230      3229      3227      3230      3231      3237      3234
      3232      3231      3233      3232      3231      3237      3233      3231      3237
      3234      3238      3239      3235      3234      3236      3235      3234      3237
      3235      3234      3238      3236      3234      3237      3236      3234      3238
      3237      3234      3238      3238      3239      3240      3238      3239      3241
      3238      3239      3242      3239      3242      3243      3239      3242      3244
      3239      3242      3250      3240      3239      3241      3240      3239      3242
      3241      3239      3242      3242      3244      3245      3242      3250      3251
      3242      3250      3252      3242      3250      3253      3243      3242      3244
      3243      3242      3250      3244      3242      3250      3244      3245      3246
      3244      3245      3247      3245      3247      3248      3245      3247      3249
      3245      3247      3259      3246      3245      3247      3247      3259      3260
      3247      3259      3261      3247      3259      3262      3248      3247      3249
      3248      3247      3259      3249      3247      3259      3250      3253      3254
      3251      3250      3252      3251      3250      3253      3252      3250      3253
      3253      3254      3255      3253      3254      3256      3254      3256      3257
      3254      3256      3258      3254      3256      3306      3255      3254      3256
      3256      3306      3307      3256      3306      3308      3256      3306      3309
      3257      3256      3258      3257      3256      3306      3258      3256      3306
      3259      3262      3263      3259      3262      3264      3259      3262      3265
      3260      3259      3261      3260      3259      3262      3261      3259      3262
      3262      3265      3266      3262      3265      3267      3262      3265      3268
      3263      3262      3264      3263      3262      3265      3264      3262      3265
      3265      3268      3269      3265      3268      3270      3265      3268      3271
      3266      3265      3267      3266      3265      3268      3267      3265      3268
      3268      3271      3272      3268      3271      3273      3268      3271      3274
      3269      3268      3270      3269      3268      3271      3270      3268      3271
      3271      3274      3275      3271      3274      3276      3271      3274      3277
      3272      3271      3273      3272      3271      3274      3273      3271      3274
      3274      3277      3278      3274      3277      3279      3275      3274      3276
      3275      3274      3277      3276      3274      3277      3277      3279      3280
      3277      3279      3281      3278      3277      3279      3279      3281      3282
      3279      3281      3283      3279      3281      3284      3280      3279      3281
      3281      3284      3285      3281      3284      3286      3281      3284      3287
      3282      3281      3283      3282      3281      3284      3283      3281      3284
      3284      3287      3288      3284      3287      3289      3284      3287      3290
      3285      3284      3286      3285      3284      3287      3286      3284      3287
      3287      3290      3291      3287      3290      3292      3287      3290      3293
      3288      3287      3289      3288      3287      3290      3289      3287      3290
      3290      3293      3294      3290      3293      3295      3290      3293      3296
      3291      3290      3292      3291      3290      3293      3292      3290      3293
      3293      3296      3297      3293      3296      3298      3293      3296      3299
      3294      3293      3295      3294      3293      3296      3295      3293      3296
      3296      3299      3300      3296      3299      3301      3296      3299      3302
      3297      3296      3298      3297      3296      3299      3298      3296      3299
      3299      3302      3303      3299      3302      3304      3299      3302      3305
      3300      3299      3301      3300      3299      3302      3301      3299      3302
      3303      3302      3304      3303      3302      3305      3304      3302      3305
      3306      3309      3310      3306      3309      3311      3306      3309      3312
      3307      3306      3308      3307      3306      3309      3308      3306      3309
      3309      3312      3313      3309      3312      3314      3309      3312      3315
      3310      3309      3311      3310      3309      3312      3311      3309      3312
      3312      3315      3316      3312      3315      3317      3312      3315      3318
      3313      3312      3314      3313      3312      3315      3314      3312      3315
      3315      3318      3319      3315      3318      3320      3315      3318      3321
      3316      3315      3317      3316      3315      3318      3317      3315      3318
      3318      3321      3322      3318      3321      3323      3318      3321      3324
      3319      3318      3320      3319      3318      3321      3320      3318      3321
      3321      3324      3325      3321      3324      3326      3321      3324      3327
      3322      3321      3323      3322      3321      3324      3323      3321      3324
      3324      3327      3328      3324      3327      3329      3324      3327      3330
      3325      3324      3326      3325      3324      3327      3326      3324      3327
      3327      3330      3331      3327      3330      3332      3327      3330      3333
      3328      3327      3329      3328      3327      3330      3329      3327      3330
      3330      3333      3334      3330      3333      3335      3330      3333      3336
      3331      3330      3332      3331      3330      3333      3332      3330      3333
      3333      3336      3337      3333      3336      3338      3333      3336      3339
      3334      3333      3335      3334      3333      3336      3335      3333      3336
      3336      3339      3340      3336      3339      3341      3336      3339      3342
      3337      3336      3338      3337      3336      3339      3338      3336      3339
      3339      3342      3343      3339      3342      3344      3339      3342      3345
      3340      3339      3341      3340      3339      3342      3341      3339      3342
      3342      3345      3346      3342      3345      3347      3342      3345      3348
      3343      3342      3344      3343      3342      3345      3344      3342      3345
      3346      3345      3347      3346      3345      3348      3347      3345      3348
      3349      3350      3351      3349      3350      3352      3349      3350      3365
      3349      3353      3354      3349      3353      3355      3349      3353      3356
      3349      3357      3358      3349      3357      3359      3349      3357      3360
      3349      3361      3362      3349      3361      3363      3349      3361      3364
      3350      3349      3353      3350      3349      3357      3350      3349      3361
      3350      3365      3366      3350      3365      3367      3350      3365      3371
      3351      3350      3352      3351      3350      3365      3352      3350      3365
      3353      3349      3357      3353      3349      3361      3354      3353      3355
      3354      3353      3356      3355      3353      3356      3357      3349      3361
      3358      3357      3359      3358      3357      3360      3359      3357      3360
      3362      3361      3363      3362      3361      3364      3363      3361      3364
      3365      3371      3368      3366      3365      3367      3366      3365      3371
      3367      3365      3371      3368      3372      3373      3369      3368      3370
      3369      3368      3371      3369      3368      3372      3370      3368      3371
      3370      3368      3372      3371      3368      3372      3372      3373      3374
      3372      3373      3375      3372      3373      3376      3373      3376      3377
      3373      3376      3378      3373      3376      3384      3374      3373      3375
      3374      3373      3376      3375      3373      3376      3376      3378      3379
      3376      3384      3385      3376      3384      3386      3376      3384      3387
      3377      3376      3378      3377      3376      3384      3378      3376      3384
      3378      3379      3380      3378      3379      3381      3379      3381      3382
      3379      3381      3383      3379      3381      3393      3380      3379      3381
      3381      3393      3394      3381      3393      3395      3381      3393      3396
      3382      3381      3383      3382      3381      3393      3383      3381      3393
      3384      3387      3388      3385      3384      3386      3385      3384      3387
      3386      3384      3387      3387      3388      3389      3387      3388      3390
      3388      3390      3391      3388      3390      3392      3388      3390      3440
      3389      3388      3390      3390      3440      3441      3390      3440      3442
      3390      3440      3443      3391      3390      3392      3391      3390      3440
      3392      3390      3440      3393      3396      3397      3393      3396      3398
      3393      3396      3399      3394      3393      3395      3394      3393      3396
      3395      3393      3396      3396      3399      3400      3396      3399      3401
      3396      3399      3402      3397      3396      3398      3397      3396      3399
      3398      3396      3399      3399      3402      3403      3399      3402      3404
      3399      3402      3405      3400      3399      3401      3400      3399      3402
      3401      3399      3402      3402      3405      3406      3402      3405      3407
      3402      3405      3408      3403      3402      3404      3403      3402      3405
      3404      3402      3405      3405      3408      3409      3405      3408      3410
      3405      3408      3411      3406      3405      3407      3406      3405      3408
      3407      3405      3408      3408      3411      3412      3408      3411      3413
      3409      3408      3410      3409      3408      3411      3410      3408      3411
      3411      3413      3414      3411      3413      3415      3412      3411      3413
      3413      3415      3416      3413      3415      3417      3413      3415      3418
      3414      3413      3415      3415      3418      3419      3415      3418      3420
      3415      3418      3421      3416      3415      3417      3416      3415      3418
      3417      3415      3418      3418      3421      3422      3418      3421      3423
      3418      3421      3424      3419      3418      3420      3419      3418      3421
      3420      3418      3421      3421      3424      3425      3421      3424      3426
      3421      3424      3427      3422      3421      3423      3422      3421      3424
      3423      3421      3424      3424      3427      3428      3424      3427      3429
      3424      3427      3430      3425      3424      3426      3425      3424      3427
      3426      3424      3427      3427      3430      3431      3427      3430      3432
      3427      3430      3433      3428      3427      3429      3428      3427      3430
      3429      3427      3430      3430      3433      3434      3430      3433      3435
      3430      3433      3436      3431      3430      3432      3431      3430      3433
      3432      3430      3433      3433      3436      3437      3433      3436      3438
      3433      3436      3439      3434      3433      3435      3434      3433      3436
      3435      3433      3436      3437      3436      3438      3437      3436      3439
      3438      3436      3439      3440      3443      3444      3440      3443      3445
      3440      3443      3446      3441      3440      3442      3441      3440      3443
      3442      3440      3443      3443      3446      3447      3443      3446      3448
      3443      3446      3449      3444      3443      3445      3444      3443      3446
      3445      3443      3446      3446      3449      3450      3446      3449      3451
      3446      3449      3452      3447      3446      3448      3447      3446      3449
      3448      3446      3449      3449      3452      3453      3449      3452      3454
      3449      3452      3455      3450      3449      3451      3450      3449      3452
      3451      3449      3452      3452      3455      3456      3452      3455      3457
      3452      3455      3458      3453      3452      3454      3453      3452      3455
      3454      3452      3455      3455      3458      3459      3455      3458      3460
      3455      3458      3461      3456      3455      3457      3456      3455      3458
      3457      3455      3458      3458      3461      3462      3458      3461      3463
      3458      3461      3464      3459      3458      3460      3459      3458      3461
      3460      3458      3461      3461      3464      3465      3461      3464      3466
      3461      3464      3467      3462      3461      3463      3462      3461      3464
      3463      3461      3464      3464      3467      3468      3464      3467      3469
      3464      3467      3470      3465      3464      3466      3465      3464      3467
      3466      3464      3467      3467      3470      3471      3467      3470      3472
      3467      3470      3473      3468      3467      3469      3468      3467      3470
      3469      3467      3470      3470      3473      3474      3470      3473      3475
      3470      3473      3476      3471      3470      3472      3471      3470      3473
      3472      3470      3473      3473      3476      3477      3473      3476      3478
      3473      3476      3479      3474      3473      3475      3474      3473      3476
      3475      3473      3476      3476      3479      3480      3476      3479      3481
      3476      3479      3482      3477      3476      3478      3477      3476      3479
      3478      3476      3479      3480      3479      3481      3480      3479      3482
      3481      3479      3482      3483      3487      3488      3483      3487      3489
      3483      3487      3490      3484      3483      3485      3484      3483      3486
      3484      3483      3487      3485      3483      3486      3485      3483      3487
      3486      3483      3487      3487      3490      3491      3487      3490      3492
      3487      3490      3497      3488      3487      3489      3488      3487      3490
      3489      3487      3490      3490      3497      3493      3491      3490      3492
      3491      3490      3497      3492      3490      3497      3493      3496      3498
      3494      3493      3495      3494      3493      3496      3494      3493      3497
      3495      3493      3496      3495      3493      3497      3496      3493      3497
      3496      3498      3499      3496      3498      3500      3496      3498      3501
      3498      3501      3502      3498      3501      3503      3498      3501      3509
      3499      3498      3500      3499      3498      3501      3500      3498      3501
      3501      3503      3504      3501      3509      3510      3501      3509      3511
      3501      3509      3512      3502      3501      3503      3502      3501      3509
      3503      3501      3509      3503      3504      3505      3503      3504      3506
      3504      3506      3507      3504      3506      3508      3504      3506      3518
      3505      3504      3506      3506      3518      3519      3506      3518      3520
      3506      3518      3521      3507      3506      3508      3507      3506      3518
      3508      3506      3518      3509      3512      3513      3510      3509      3511
      3510      3509      3512      3511      3509      3512      3512      3513      3514
      3512      3513      3515      3513      3515      3516      3513      3515      3517
      3513      3515      3565      3514      3513      3515      3515      3565      3566
      3515      3565      3567      3515      3565      3568      3516      3515      3517
      3516      3515      3565      3517      3515      3565      3518      3521      3522
      3518      3521      3523      3518      3521      3524      3519      3518      3520
      3519      3518      3521      3520      3518      3521      3521      3524      3525
      3521      3524      3526      3521      3524      3527      3522      3521      3523
      3522      3521      3524      3523      3521      3524      3524      3527      3528
      3524      3527      3529      3524      3527      3530      3525      3524      3526
      3525      3524      3527      3526      3524      3527      3527      3530      3531
      3527      3530      3532      3527      3530      3533      3528      3527      3529
      3528      3527      3530      3529      3527      3530      3530      3533      3534
      3530      3533      3535      3530      3533      3536      3531      3530      3532
      3531      3530      3533      3532      3530      3533      3533      3536      3537
      3533      3536      3538      3534      3533      3535      3534      3533      3536
      3535      3533      3536      3536      3538      3539      3536      3538      3540
      3537      3536      3538      3538      3540      3541      3538      3540      3542
      3538      3540      3543      3539      3538      3540      3540      3543      3544
      3540      3543      3545      3540      3543      3546      3541      3540      3542
      3541      3540      3543      3542      3540      3543      3543      3546      3547
      3543      3546      3548      3543      3546      3549      3544      3543      3545
      3544      3543      3546      3545      3543      3546      3546      3549      3550
      3546      3549      3551      3546      3549      3552      3547      3546      3548
      3547      3546      3549      3548      3546      3549      3549      3552      3553
      3549      3552      3554      3549      3552      3555      3550      3549      3551
      3550      3549      3552      3551      3549      3552      3552      3555      3556
      3552      3555      3557      3552      3555      3558      3553      3552      3554
      3553      3552      3555      3554      3552      3555      3555      3558      3559
      3555      3558      3560      3555      3558      3561      3556      3555      3557
      3556      3555      3558      3557      3555      3558      3558      3561      3562
      3558      3561      3563      3558      3561      3564      3559      3558      3560
      3559      3558      3561      3560      3558      3561      3562      3561      3563
      3562      3561      3564      3563      3561      3564      3565      3568      3569
      3565      3568      3570      3565      3568      3571      3566      3565      3567
      3566      3565      3568      3567      3565      3568      3568      3571      3572
      3568      3571      3573      3568      3571      3574      3569      3568      3570
      3569      3568      3571      3570      3568      3571      3571      3574      3575
      3571      3574      3576      3571      3574      3577      3572      3571      3573
      3572      3571      3574      3573      3571      3574      3574      3577      3578
      3574      3577      3579      3574      3577      3580      3575      3574      3576
      3575      3574      3577      3576      3574      3577      3577      3580      3581
      3577      3580      3582      3577      3580      3583      3578      3577      3579
      3578      3577      3580      3579      3577      3580      3580      3583      3584
      3580      3583      3585      3580      3583      3586      3581      3580      3582
      3581      3580      3583      3582      3580      3583      3583      3586      3587
      3583      3586      3588      3583      3586      3589      3584      3583      3585
      3584      3583      3586      3585      3583      3586      3586      3589      3590
      3586      3589      3591      3586      3589      3592      3587      3586      3588
      3587      3586      3589      3588      3586      3589      3589      3592      3593
      3589      3592      3594      3589      3592      3595      3590      3589      3591
      3590      3589      3592      3591      3589      3592      3592      3595      3596
      3592      3595      3597      3592      3595      3598      3593      3592      3594
      3593      3592      3595      3594      3592      3595      3595      3598      3599
      3595      3598      3600      3595      3598      3601      3596      3595      3597
      3596      3595      3598      3597      3595      3598      3598      3601      3602
      3598      3601      3603      3598      3601      3604      3599      3598      3600
      3599      3598      3601      3600      3598      3601      3601      3604      3605
      3601      3604      3606      3601      3604      3607      3602      3601      3603
      3602      3601      3604      3603      3601      3604      3605      3604      3606
      3605      3604      3607      3606      3604      3607      3608      3609      3610
      3608      3609      3611      3608      3609      3624      3608      3612      3613
      3608      3612      3614      3608      3612      3615      3608      3616      3617
      3608      3616      3618      3608      3616      3619      3608      3620      3621
      3608      3620      3622      3608      3620      3623      3609      3608      3612
      3609      3608      3616      3609      3608      3620      3609      3624      3625
      3609      3624      3626      3609      3624      3630      3610      3609      3611
      3610      3609      3624      3611      3609      3624      3612      3608      3616
      3612      3608      3620      3613      3612      3614      3613      3612      3615
      3614      3612      3615      3616      3608      3620      3617      3616      3618
      3617      3616      3619      3618      3616      3619      3621      3620      3622
      3621      3620      3623      3622      3620      3623      3624      3630      3627
      3625      3624      3626      3625      3624      3630      3626      3624      3630
      3627      3631      3632      3628      3627      3629      3628      3627      3630
      3628      3627      3631      3629      3627      3630      3629      3627      3631
      3630      3627      3631      3631      3632      3633      3631      3632      3634
      3631      3632      3635      3632      3635      3636      3632      3635      3637
      3632      3635      3643      3633      3632      3634      3633      3632      3635
      3634      3632      3635      3635      3637      3638      3635      3643      3644
      3635      3643      3645      3635      3643      3646      3636      3635      3637
      3636      3635      3643      3637      3635      3643      3637      3638      3639
      3637      3638      3640      3638      3640      3641      3638      3640      3642
      3638      3640      3652      3639      3638      3640      3640      3652      3653
      3640      3652      3654      3640      3652      3655      3641      3640      3642
      3641      3640      3652      3642      3640      3652      3643      3646      3647
      3644      3643      3645      3644      3643      3646      3645      3643      3646
      3646      3647      3648      3646      3647      3649      3647      3649      3650
      3647      3649      3651      3647      3649      3699      3648      3647      3649
      3649      3699      3700      3649      3699      3701      3649      3699      3702
      3650      3649      3651      3650      3649      3699      3651      3649      3699
      3652      3655      3656      3652      3655      3657      3652      3655      3658
      3653      3652      3654      3653      3652      3655      3654      3652      3655
      3655      3658      3659      3655      3658      3660      3655      3658      3661
      3656      3655      3657      3656      3655      3658      3657      3655      3658
      3658      3661      3662      3658      3661      3663      3658      3661      3664
      3659      3658      3660      3659      3658      3661      3660      3658      3661
      3661      3664      3665      3661      3664      3666      3661      3664      3667
      3662      3661      3663      3662      3661      3664      3663      3661      3664
      3664      3667      3668      3664      3667      3669      3664      3667      3670
      3665      3664      3666      3665      3664      3667      3666      3664      3667
      3667      3670      3671      3667      3670      3672      3668      3667      3669
      3668      3667      3670      3669      3667      3670      3670      3672      3673
      3670      3672      3674      3671      3670      3672      3672      3674      3675
      3672      3674      3676      3672      3674      3677      3673      3672      3674
      3674      3677      3678      3674      3677      3679      3674      3677      3680
      3675      3674      3676      3675      3674      3677      3676      3674      3677
      3677      3680      3681      3677      3680      3682      3677      3680      3683
      3678      3677      3679      3678      3677      3680      3679      3677      3680
      3680      3683      3684      3680      3683      3685      3680      3683      3686
      3681      3680      3682      3681      3680      3683      3682      3680      3683
      3683      3686      3687      3683      3686      3688      3683      3686      3689
      3684      3683      3685      3684      3683      3686      3685      3683      3686
      3686      3689      3690      3686      3689      3691      3686      3689      3692
      3687      3686      3688      3687      3686      3689      3688      3686      3689
      3689      3692      3693      3689      3692      3694      3689      3692      3695
      3690      3689      3691      3690      3689      3692      3691      3689      3692
      3692      3695      3696      3692      3695      3697      3692      3695      3698
      3693      3692      3694      3693      3692      3695      3694      3692      3695
      3696      3695      3697      3696      3695      3698      3697      3695      3698
      3699      3702      3703      3699      3702      3704      3699      3702      3705
      3700      3699      3701      3700      3699      3702      3701      3699      3702
      3702      3705      3706      3702      3705      3707      3702      3705      3708
      3703      3702      3704      3703      3702      3705      3704      3702      3705
      3705      3708      3709      3705      3708      3710      3705      3708      3711
      3706      3705      3707      3706      3705      3708      3707      3705      3708
      3708      3711      3712      3708      3711      3713      3708      3711      3714
      3709      3708      3710      3709      3708      3711      3710      3708      3711
      3711      3714      3715      3711      3714      3716      3711      3714      3717
      3712      3711      3713      3712      3711      3714      3713      3711      3714
      3714      3717      3718      3714      3717      3719      3714      3717      3720
      3715      3714      3716      3715      3714      3717      3716      3714      3717
      3717      3720      3721      3717      3720      3722      3717      3720      3723
      3718      3717      3719      3718      3717      3720      3719      3717      3720
      3720      3723      3724      3720      3723      3725      3720      3723      3726
      3721      3720      3722      3721      3720      3723      3722      3720      3723
      3723      3726      3727      3723      3726      3728      3723      3726      3729
      3724      3723      3725      3724      3723      3726      3725      3723      3726
      3726      3729      3730      3726      3729      3731      3726      3729      3732
      3727      3726      3728      3727      3726      3729      3728      3726      3729
      3729      3732      3733      3729      3732      3734      3729      3732      3735
      3730      3729      3731      3730      3729      3732      3731      3729      3732
      3732      3735      3736      3732      3735      3737      3732      3735      3738
      3733      3732      3734      3733      3732      3735      3734      3732      3735
      3735      3738      3739      3735      3738      3740      3735      3738      3741
      3736      3735      3737      3736      3735      3738      3737      3735      3738
      3739      3738      3740      3739      3738      3741      3740      3738      3741
      3742      3746      3747      3742      3746      3748      3742      3746      3749
      3743      3742      3744      3743      3742      3745      3743      3742      3746
      3744      3742      3745      3744      3742      3746      3745      3742      3746
      3746      3749      3750      3746      3749      3751      3746      3749      3756
      3747      3746      3748      3747      3746      3749      3748      3746      3749
      3749      3756      3752      3750      3749      3751      3750      3749      3756
      3751      3749      3756      3752      3755      3757      3753      3752      3754
      3753      3752      3755      3753      3752      3756      3754      3752      3755
      3754      3752      3756      3755      3752      3756      3755      3757      3758
      3755      3757      3759      3755      3757      3760      3757      3760      3761
      3757      3760      3762      3757      3760      3768      3758      3757      3759
      3758      3757      3760      3759      3757      3760      3760      3762      3763
      3760      3768      3769      3760      3768      3770      3760      3768      3771
      3761      3760      3762      3761      3760      3768      3762      3760      3768
      3762      3763      3764      3762      3763      3765      3763      3765      3766
      3763      3765      3767      3763      3765      3777      3764      3763      3765
      3765      3777      3778      3765      3777      3779      3765      3777      3780
      3766      3765      3767      3766      3765      3777      3767      3765      3777
      3768      3771      3772      3769      3768      3770      3769      3768      3771
      3770      3768      3771      3771      3772      3773      3771      3772      3774
      3772      3774      3775      3772      3774      3776      3772      3774      3824
      3773      3772      3774      3774      3824      3825      3774      3824      3826
      3774      3824      3827      3775      3774      3776      3775      3774      3824
      3776      3774      3824      3777      3780      3781      3777      3780      3782
      3777      3780      3783      3778      3777      3779      3778      3777      3780
      3779      3777      3780      3780      3783      3784      3780      3783      3785
      3780      3783      3786      3781      3780      3782      3781      3780      3783
      3782      3780      3783      3783      3786      3787      3783      3786      3788
      3783      3786      3789      3784      3783      3785      3784      3783      3786
      3785      3783      3786      3786      3789      3790      3786      3789      3791
      3786      3789      3792      3787      3786      3788      3787      3786      3789
      3788      3786      3789      3789      3792      3793      3789      3792      3794
      3789      3792      3795      3790      3789      3791      3790      3789      3792
      3791      3789      3792      3792      3795      3796      3792      3795      3797
      3793      3792      3794      3793      3792      3795      3794      3792      3795
      3795      3797      3798      3795      3797      3799      3796      3795      3797
      3797      3799      3800      3797      3799      3801      3797      3799      3802
      3798      3797      3799      3799      3802      3803      3799      3802      3804
      3799      3802      3805      3800      3799      3801      3800      3799      3802
      3801      3799      3802      3802      3805      3806      3802      3805      3807
      3802      3805      3808      3803      3802      3804      3803      3802      3805
      3804      3802      3805      3805      3808      3809      3805      3808      3810
      3805      3808      3811      3806      3805      3807      3806      3805      3808
      3807      3805      3808      3808      3811      3812      3808      3811      3813
      3808      3811      3814      3809      3808      3810      3809      3808      3811
      3810      3808      3811      3811      3814      3815      3811      3814      3816
      3811      3814      3817      3812      3811      3813      3812      3811      3814
      3813      3811      3814      3814      3817      3818      3814      3817      3819
      3814      3817      3820      3815      3814      3816      3815      3814      3817
      3816      3814      3817      3817      3820      3821      3817      3820      3822
      3817      3820      3823      3818      3817      3819      3818      3817      3820
      3819      3817      3820      3821      3820      3822      3821      3820      3823
      3822      3820      3823      3824      3827      3828      3824      3827      3829
      3824      3827      3830      3825      3824      3826      3825      3824      3827
      3826      3824      3827      3827      3830      3831      3827      3830      3832
      3827      3830      3833      3828      3827      3829      3828      3827      3830
      3829      3827      3830      3830      3833      3834      3830      3833      3835
      3830      3833      3836      3831      3830      3832      3831      3830      3833
      3832      3830      3833      3833      3836      3837      3833      3836      3838
      3833      3836      3839      3834      3833      3835      3834      3833      3836
      3835      3833      3836      3836      3839      3840      3836      3839      3841
      3836      3839      3842      3837      3836      3838      3837      3836      3839
      3838      3836      3839      3839      3842      3843      3839      3842      3844
      3839      3842      3845      3840      3839      3841      3840      3839      3842
      3841      3839      3842      3842      3845      3846      3842      3845      3847
      3842      3845      3848      3843      3842      3844      3843      3842      3845
      3844      3842      3845      3845      3848      3849      3845      3848      3850
      3845      3848      3851      3846      3845      3847      3846      3845      3848
      3847      3845      3848      3848      3851      3852      3848      3851      3853
      3848      3851      3854      3849      3848      3850      3849      3848      3851
      3850      3848      3851      3851      3854      3855      3851      3854      3856
      3851      3854      3857      3852      3851      3853      3852      3851      3854
      3853      3851      3854      3854      3857      3858      3854      3857      3859
      3854      3857      3860      3855      3854      3856      3855      3854      3857
      3856      3854      3857      3857      3860      3861      3857      3860      3862
      3857      3860      3863      3858      3857      3859      3858      3857      3860
      3859      3857      3860      3860      3863      3864      3860      3863      3865
      3860      3863      3866      3861      3860      3862      3861      3860      3863
      3862      3860      3863      3864      3863      3865      3864      3863      3866
      3865      3863      3866      3867      3871      3872      3867      3871      3873
      3867      3871      3874      3868      3867      3869      3868      3867      3870
      3868      3867      3871      3869      3867      3870      3869      3867      3871
      3870      3867      3871      3871      3874      3875      3871      3874      3876
      3871      3874      3881      3872      3871      3873      3872      3871      3874
      3873      3871      3874      3874      3881      3877      3875      3874      3876
      3875      3874      3881      3876      3874      3881      3877      3880      3882
      3878      3877      3879      3878      3877      3880      3878      3877      3881
      3879      3877      3880      3879      3877      3881      3880      3877      3881
      3880      3882      3883      3880      3882      3884      3880      3882      3885
      3882      3885      3886      3882      3885      3887      3882      3885      3893
      3883      3882      3884      3883      3882      3885      3884      3882      3885
      3885      3887      3888      3885      3893      3894      3885      3893      3895
      3885      3893      3896      3886      3885      3887      3886      3885      3893
      3887      3885      3893      3887      3888      3889      3887      3888      3890
      3888      3890      3891      3888      3890      3892      3888      3890      3902
      3889      3888      3890      3890      3902      3903      3890      3902      3904
      3890      3902      3905      3891      3890      3892      3891      3890      3902
      3892      3890      3902      3893      3896      3897      3894      3893      3895
      3894      3893      3896      3895      3893      3896      3896      3897      3898
      3896      3897      3899      3897      3899      3900      3897      3899      3901
      3897      3899      3949      3898      3897      3899      3899      3949      3950
      3899      3949      3951      3899      3949      3952      3900      3899      3901
      3900      3899      3949      3901      3899      3949      3902      3905      3906
      3902      3905      3907      3902      3905      3908      3903      3902      3904
      3903      3902      3905      3904      3902      3905      3905      3908      3909
      3905      3908      3910      3905      3908      3911      3906      3905      3907
      3906      3905      3908      3907      3905      3908      3908      3911      3912
      3908      3911      3913      3908      3911      3914      3909      3908      3910
      3909      3908      3911      3910      3908      3911      3911      3914      3915
      3911      3914      3916      3911      3914      3917      3912      3911      3913
      3912      3911      3914      3913      3911      3914      3914      3917      3918
      3914      3917      3919      3914      3917      3920      3915      3914      3916
      3915      3914      3917      3916      3914      3917      3917      3920      3921
      3917      3920      3922      3918      3917      3919      3918      3917      3920
      3919      3917      3920      3920      3922      3923      3920      3922      3924
      3921      3920      3922      3922      3924      3925      3922      3924      3926
      3922      3924      3927      3923      3922      3924      3924      3927      3928
      3924      3927      3929      3924      3927      3930      3925      3924      3926
      3925      3924      3927      3926      3924      3927      3927      3930      3931
      3927      3930      3932      3927      3930      3933      3928      3927      3929
      3928      3927      3930      3929      3927      3930      3930      3933      3934
      3930      3933      3935      3930      3933      3936      3931      3930      3932
      3931      3930      3933      3932      3930      3933      3933      3936      3937
      3933      3936      3938      3933      3936      3939      3934      3933      3935
      3934      3933      3936      3935      3933      3936      3936      3939      3940
      3936      3939      3941      3936      3939      3942      3937      3936      3938
      3937      3936      3939      3938      3936      3939      3939      3942      3943
      3939      3942      3944      3939      3942      3945      3940      3939      3941
      3940      3939      3942      3941      3939      3942      3942      3945      3946
      3942      3945      3947      3942      3945      3948      3943      3942      3944
      3943      3942      3945      3944      3942      3945      3946      3945      3947
      3946      3945      3948      3947      3945      3948      3949      3952      3953
      3949      3952      3954      3949      3952      3955      3950      3949      3951
      3950      3949      3952      3951      3949      3952      3952      3955      3956
      3952      3955      3957      3952      3955      3958      3953      3952      3954
      3953      3952      3955      3954      3952      3955      3955      3958      3959
      3955      3958      3960      3955      3958      3961      3956      3955      3957
      3956      3955      3958      3957      3955      3958      3958      3961      3962
      3958      3961      3963      3958      3961      3964      3959      3958      3960
      3959      3958      3961      3960      3958      3961      3961      3964      3965
      3961      3964      3966      3961      3964      3967      3962      3961      3963
      3962      3961      3964      3963      3961      3964      3964      3967      3968
      3964      3967      3969      3964      3967      3970      3965      3964      3966
      3965      3964      3967      3966      3964      3967      3967      3970      3971
      3967      3970      3972      3967      3970      3973      3968      3967      3969
      3968      3967      3970      3969      3967      3970      3970      3973      3974
      3970      3973      3975      3970      3973      3976      3971      3970      3972
      3971      3970      3973      3972      3970      3973      3973      3976      3977
      3973      3976      3978      3973      3976      3979      3974      3973      3975
      3974      3973      3976      3975      3973      3976      3976      3979      3980
      3976      3979      3981      3976      3979      3982      3977      3976      3978
      3977      3976      3979      3978      3976      3979      3979      3982      3983
      3979      3982      3984      3979      3982      3985      3980      3979      3981
      3980      3979      3982      3981      3979      3982      3982      3985      3986
      3982      3985      3987      3982      3985      3988      3983      3982      3984
      3983      3982      3985      3984      3982      3985      3985      3988      3989
      3985      3988      3990      3985      3988      3991      3986      3985      3987
      3986      3985      3988      3987      3985      3988      3989      3988      3990
      3989      3988      3991      3990      3988      3991      3992      3996      3997
      3992      3996      3998      3992      3996      3999      3993      3992      3994
      3993      3992      3995      3993      3992      3996      3994      3992      3995
      3994      3992      3996      3995      3992      3996      3996      3999      4000
      3996      3999      4001      3996      3999      4006      3997      3996      3998
      3997      3996      3999      3998      3996      3999      3999      4006      4002
      4000      3999      4001      4000      3999      4006      4001      3999      4006
      4002      4005      4007      4003      4002      4004      4003      4002      4005
      4003      4002      4006      4004      4002      4005      4004      4002      4006
      4005      4002      4006      4005      4007      4008      4005      4007      4009
      4005      4007      4010      4007      4010      4011      4007      4010      4012
      4007      4010      4018      4008      4007      4009      4008      4007      4010
      4009      4007      4010      4010      4012      4013      4010      4018      4019
      4010      4018      4020      4010      4018      4021      4011      4010      4012
      4011      4010      4018      4012      4010      4018      4012      4013      4014
      4012      4013      4015      4013      4015      4016      4013      4015      4017
      4013      4015      4027      4014      4013      4015      4015      4027      4028
      4015      4027      4029      4015      4027      4030      4016      4015      4017
      4016      4015      4027      4017      4015      4027      4018      4021      4022
      4019      4018      4020      4019      4018      4021      4020      4018      4021
      4021      4022      4023      4021      4022      4024      4022      4024      4025
      4022      4024      4026      4022      4024      4074      4023      4022      4024
      4024      4074      4075      4024      4074      4076      4024      4074      4077
      4025      4024      4026      4025      4024      4074      4026      4024      4074
      4027      4030      4031      4027      4030      4032      4027      4030      4033
      4028      4027      4029      4028      4027      4030      4029      4027      4030
      4030      4033      4034      4030      4033      4035      4030      4033      4036
      4031      4030      4032      4031      4030      4033      4032      4030      4033
      4033      4036      4037      4033      4036      4038      4033      4036      4039
      4034      4033      4035      4034      4033      4036      4035      4033      4036
      4036      4039      4040      4036      4039      4041      4036      4039      4042
      4037      4036      4038      4037      4036      4039      4038      4036      4039
      4039      4042      4043      4039      4042      4044      4039      4042      4045
      4040      4039      4041      4040      4039      4042      4041      4039      4042
      4042      4045      4046      4042      4045      4047      4043      4042      4044
      4043      4042      4045      4044      4042      4045      4045      4047      4048
      4045      4047      4049      4046      4045      4047      4047      4049      4050
      4047      4049      4051      4047      4049      4052      4048      4047      4049
      4049      4052      4053      4049      4052      4054      4049      4052      4055
      4050      4049      4051      4050      4049      4052      4051      4049      4052
      4052      4055      4056      4052      4055      4057      4052      4055      4058
      4053      4052      4054      4053      4052      4055      4054      4052      4055
      4055      4058      4059      4055      4058      4060      4055      4058      4061
      4056      4055      4057      4056      4055      4058      4057      4055      4058
      4058      4061      4062      4058      4061      4063      4058      4061      4064
      4059      4058      4060      4059      4058      4061      4060      4058      4061
      4061      4064      4065      4061      4064      4066      4061      4064      4067
      4062      4061      4063      4062      4061      4064      4063      4061      4064
      4064      4067      4068      4064      4067      4069      4064      4067      4070
      4065      4064      4066      4065      4064      4067      4066      4064      4067
      4067      4070      4071      4067      4070      4072      4067      4070      4073
      4068      4067      4069      4068      4067      4070      4069      4067      4070
      4071      4070      4072      4071      4070      4073      4072      4070      4073
      4074      4077      4078      4074      4077      4079      4074      4077      4080
      4075      4074      4076      4075      4074      4077      4076      4074      4077
      4077      4080      4081      4077      4080      4082      4077      4080      4083
      4078      4077      4079      4078      4077      4080      4079      4077      4080
      4080      4083      4084      4080      4083      4085      4080      4083      4086
      4081      4080      4082      4081      4080      4083      4082      4080      4083
      4083      4086      4087      4083      4086      4088      4083      4086      4089
      4084      4083      4085      4084      4083      4086      4085      4083      4086
      4086      4089      4090      4086      4089      4091      4086      4089      4092
      4087      4086      4088      4087      4086      4089      4088      4086      4089
      4089      4092      4093      4089      4092      4094      4089      4092      4095
      4090      4089      4091      4090      4089      4092      4091      4089      4092
      4092      4095      4096      4092      4095      4097      4092      4095      4098
      4093      4092      4094      4093      4092      4095      4094      4092      4095
      4095      4098      4099      4095      4098      4100      4095      4098      4101
      4096      4095      4097      4096      4095      4098      4097      4095      4098
      4098      4101      4102      4098      4101      4103      4098      4101      4104
      4099      4098      4100      4099      4098      4101      4100      4098      4101
      4101      4104      4105      4101      4104      4106      4101      4104      4107
      4102      4101      4103      4102      4101      4104      4103      4101      4104
      4104      4107      4108      4104      4107      4109      4104      4107      4110
      4105      4104      4106      4105      4104      4107      4106      4104      4107
      4107      4110      4111      4107      4110      4112      4107      4110      4113
      4108      4107      4109      4108      4107      4110      4109      4107      4110
      4110      4113      4114      4110      4113      4115      4110      4113      4116
      4111      4110      4112      4111      4110      4113      4112      4110      4113
      4114      4113      4115      4114      4113      4116      4115      4113      4116
      4117      4118      4119      4117      4118      4120      4117      4118      4133
      4117      4121      4122      4117      4121      4123      4117      4121      4124
      4117      4125      4126      4117      4125      4127      4117      4125      4128
      4117      4129      4130      4117      4129      4131      4117      4129      4132
      4118      4117      4121      4118      4117      4125      4118      4117      4129
      4118      4133      4134      4118      4133      4135      4118      4133      4139
      4119      4118      4120      4119      4118      4133      4120      4118      4133
      4121      4117      4125      4121      4117      4129      4122      4121      4123
      4122      4121      4124      4123      4121      4124      4125      4117      4129
      4126      4125      4127      4126      4125      4128      4127      4125      4128
      4130      4129      4131      4130      4129      4132      4131      4129      4132
      4133      4139      4136      4134      4133      4135      4134      4133      4139
      4135      4133      4139      4136      4140      4141      4137      4136      4138
      4137      4136      4139      4137      4136      4140      4138      4136      4139
      4138      4136      4140      4139      4136      4140      4140      4141      4142
      4140      4141      4143      4140      4141      4144      4141      4144      4145
      4141      4144      4146      4141      4144      4152      4142      4141      4143
      4142      4141      4144      4143      4141      4144      4144      4146      4147
      4144      4152      4153      4144      4152      4154      4144      4152      4155
      4145      4144      4146      4145      4144      4152      4146      4144      4152
      4146      4147      4148      4146      4147      4149      4147      4149      4150
      4147      4149      4151      4147      4149      4161      4148      4147      4149
      4149      4161      4162      4149      4161      4163      4149      4161      4164
      4150      4149      4151      4150      4149      4161      4151      4149      4161
      4152      4155      4156      4153      4152      4154      4153      4152      4155
      4154      4152      4155      4155      4156      4157      4155      4156      4158
      4156      4158      4159      4156      4158      4160      4156      4158      4208
      4157      4156      4158      4158      4208      4209      4158      4208      4210
      4158      4208      4211      4159      4158      4160      4159      4158      4208
      4160      4158      4208      4161      4164      4165      4161      4164      4166
      4161      4164      4167      4162      4161      4163      4162      4161      4164
      4163      4161      4164      4164      4167      4168      4164      4167      4169
      4164      4167      4170      4165      4164      4166      4165      4164      4167
      4166      4164      4167      4167      4170      4171      4167      4170      4172
      4167      4170      4173      4168      4167      4169      4168      4167      4170
      4169      4167      4170      4170      4173      4174      4170      4173      4175
      4170      4173      4176      4171      4170      4172      4171      4170      4173
      4172      4170      4173      4173      4176      4177      4173      4176      4178
      4173      4176      4179      4174      4173      4175      4174      4173      4176
      4175      4173      4176      4176      4179      4180      4176      4179      4181
      4177      4176      4178      4177      4176      4179      4178      4176      4179
      4179      4181      4182      4179      4181      4183      4180      4179      4181
      4181      4183      4184      4181      4183      4185      4181      4183      4186
      4182      4181      4183      4183      4186      4187      4183      4186      4188
      4183      4186      4189      4184      4183      4185      4184      4183      4186
      4185      4183      4186      4186      4189      4190      4186      4189      4191
      4186      4189      4192      4187      4186      4188      4187      4186      4189
      4188      4186      4189      4189      4192      4193      4189      4192      4194
      4189      4192      4195      4190      4189      4191      4190      4189      4192
      4191      4189      4192      4192      4195      4196      4192      4195      4197
      4192      4195      4198      4193      4192      4194      4193      4192      4195
      4194      4192      4195      4195      4198      4199      4195      4198      4200
      4195      4198      4201      4196      4195      4197      4196      4195      4198
      4197      4195      4198      4198      4201      4202      4198      4201      4203
      4198      4201      4204      4199      4198      4200      4199      4198      4201
      4200      4198      4201      4201      4204      4205      4201      4204      4206
      4201      4204      4207      4202      4201      4203      4202      4201      4204
      4203      4201      4204      4205      4204      4206      4205      4204      4207
      4206      4204      4207      4208      4211      4212      4208      4211      4213
      4208      4211      4214      4209      4208      4210      4209      4208      4211
      4210      4208      4211      4211      4214      4215      4211      4214      4216
      4211      4214      4217      4212      4211      4213      4212      4211      4214
      4213      4211      4214      4214      4217      4218      4214      4217      4219
      4214      4217      4220      4215      4214      4216      4215      4214      4217
      4216      4214      4217      4217      4220      4221      4217      4220      4222
      4217      4220      4223      4218      4217      4219      4218      4217      4220
      4219      4217      4220      4220      4223      4224      4220      4223      4225
      4220      4223      4226      4221      4220      4222      4221      4220      4223
      4222      4220      4223      4223      4226      4227      4223      4226      4228
      4223      4226      4229      4224      4223      4225      4224      4223      4226
      4225      4223      4226      4226      4229      4230      4226      4229      4231
      4226      4229      4232      4227      4226      4228      4227      4226      4229
      4228      4226      4229      4229      4232      4233      4229      4232      4234
      4229      4232      4235      4230      4229      4231      4230      4229      4232
      4231      4229      4232      4232      4235      4236      4232      4235      4237
      4232      4235      4238      4233      4232      4234      4233      4232      4235
      4234      4232      4235      4235      4238      4239      4235      4238      4240
      4235      4238      4241      4236      4235      4237      4236      4235      4238
      4237      4235      4238      4238      4241      4242      4238      4241      4243
      4238      4241      4244      4239      4238      4240      4239      4238      4241
      4240      4238      4241      4241      4244      4245      4241      4244      4246
      4241      4244      4247      4242      4241      4243      4242      4241      4244
      4243      4241      4244      4244      4247      4248      4244      4247      4249
      4244      4247      4250      4245      4244      4246      4245      4244      4247
      4246      4244      4247      4248      4247      4249      4248      4247      4250
      4249      4247      4250      4251      4252      4253      4251      4252      4254
      4251      4252      4267      4251      4255      4256      4251      4255      4257
      4251      4255      4258      4251      4259      4260      4251      4259      4261
      4251      4259      4262      4251      4263      4264      4251      4263      4265
      4251      4263      4266      4252      4251      4255      4252      4251      4259
      4252      4251      4263      4252      4267      4268      4252      4267      4269
      4252      4267      4273      4253      4252      4254      4253      4252      4267
      4254      4252      4267      4255      4251      4259      4255      4251      4263
      4256      4255      4257      4256      4255      4258      4257      4255      4258
      4259      4251      4263      4260      4259      4261      4260      4259      4262
      4261      4259      4262      4264      4263      4265      4264      4263      4266
      4265      4263      4266      4267      4273      4270      4268      4267      4269
      4268      4267      4273      4269      4267      4273      4270      4274      4275
      4271      4270      4272      4271      4270      4273      4271      4270      4274
      4272      4270      4273      4272      4270      4274      4273      4270      4274
      4274      4275      4276      4274      4275      4277      4274      4275      4278
      4275      4278      4279      4275      4278      4280      4275      4278      4286
      4276      4275      4277      4276      4275      4278      4277      4275      4278
      4278      4280      4281      4278      4286      4287      4278      4286      4288
      4278      4286      4289      4279      4278      4280      4279      4278      4286
      4280      4278      4286      4280      4281      4282      4280      4281      4283
      4281      4283      4284      4281      4283      4285      4281      4283      4295
      4282      4281      4283      4283      4295      4296      4283      4295      4297
      4283      4295      4298      4284      4283      4285      4284      4283      4295
      4285      4283      4295      4286      4289      4290      4287      4286      4288
      4287      4286      4289      4288      4286      4289      4289      4290      4291
      4289      4290      4292      4290      4292      4293      4290      4292      4294
      4290      4292      4342      4291      4290      4292      4292      4342      4343
      4292      4342      4344      4292      4342      4345      4293      4292      4294
      4293      4292      4342      4294      4292      4342      4295      4298      4299
      4295      4298      4300      4295      4298      4301      4296      4295      4297
      4296      4295      4298      4297      4295      4298      4298      4301      4302
      4298      4301      4303      4298      4301      4304      4299      4298      4300
      4299      4298      4301      4300      4298      4301      4301      4304      4305
      4301      4304      4306      4301      4304      4307      4302      4301      4303
      4302      4301      4304      4303      4301      4304      4304      4307      4308
      4304      4307      4309      4304      4307      4310      4305      4304      4306
      4305      4304      4307      4306      4304      4307      4307      4310      4311
      4307      4310      4312      4307      4310      4313      4308      4307      4309
      4308      4307      4310      4309      4307      4310      4310      4313      4314
      4310      4313      4315      4311      4310      4312      4311      4310      4313
      4312      4310      4313      4313      4315      4316      4313      4315      4317
      4314      4313      4315      4315      4317      4318      4315      4317      4319
      4315      4317      4320      4316      4315      4317      4317      4320      4321
      4317      4320      4322      4317      4320      4323      4318      4317      4319
      4318      4317      4320      4319      4317      4320      4320      4323      4324
      4320      4323      4325      4320      4323      4326      4321      4320      4322
      4321      4320      4323      4322      4320      4323      4323      4326      4327
      4323      4326      4328      4323      4326      4329      4324      4323      4325
      4324      4323      4326      4325      4323      4326      4326      4329      4330
      4326      4329      4331      4326      4329      4332      4327      4326      4328
      4327      4326      4329      4328      4326      4329      4329      4332      4333
      4329      4332      4334      4329      4332      4335      4330      4329      4331
      4330      4329      4332      4331      4329      4332      4332      4335      4336
      4332      4335      4337      4332      4335      4338      4333      4332      4334
      4333      4332      4335      4334      4332      4335      4335      4338      4339
      4335      4338      4340      4335      4338      4341      4336      4335      4337
      4336      4335      4338      4337      4335      4338      4339      4338      4340
      4339      4338      4341      4340      4338      4341      4342      4345      4346
      4342      4345      4347      4342      4345      4348      4343      4342      4344
      4343      4342      4345      4344      4342      4345      4345      4348      4349
      4345      4348      4350      4345      4348      4351      4346      4345      4347
      4346      4345      4348      4347      4345      4348      4348      4351      4352
      4348      4351      4353      4348      4351      4354      4349      4348      4350
      4349      4348      4351      4350      4348      4351      4351      4354      4355
      4351      4354      4356      4351      4354      4357      4352      4351      4353
      4352      4351      4354      4353      4351      4354      4354      4357      4358
      4354      4357      4359      4354      4357      4360      4355      4354      4356
      4355      4354      4357      4356      4354      4357      4357      4360      4361
      4357      4360      4362      4357      4360      4363      4358      4357      4359
      4358      4357      4360      4359      4357      4360      4360      4363      4364
      4360      4363      4365      4360      4363      4366      4361      4360      4362
      4361      4360      4363      4362      4360      4363      4363      4366      4367
      4363      4366      4368      4363      4366      4369      4364      4363      4365
      4364      4363      4366      4365      4363      4366      4366      4369      4370
      4366      4369      4371      4366      4369      4372      4367      4366      4368
      4367      4366      4369      4368      4366      4369      4369      4372      4373
      4369      4372      4374      4369      4372      4375      4370      4369      4371
      4370      4369      4372      4371      4369      4372      4372      4375      4376
      4372      4375      4377      4372      4375      4378      4373      4372      4374
      4373      4372      4375      4374      4372      4375      4375      4378      4379
      4375      4378      4380      4375      4378      4381      4376      4375      4377
      4376      4375      4378      4377      4375      4378      4378      4381      4382
      4378      4381      4383      4378      4381      4384      4379      4378      4380
      4379      4378      4381      4380      4378      4381      4382      4381      4383
      4382      4381      4384      4383      4381      4384      4385      4386      4387
      4385      4386      4388      4385      4386      4401      4385      4389      4390
      4385      4389      4391      4385      4389      4392      4385      4393      4394
      4385      4393      4395      4385      4393      4396      4385      4397      4398
      4385      4397      4399      4385      4397      4400      4386      4385      4389
      4386      4385      4393      4386      4385      4397      4386      4401      4402
      4386      4401      4403      4386      4401      4407      4387      4386      4388
      4387      4386      4401      4388      4386      4401      4389      4385      4393
      4389      4385      4397      4390      4389      4391      4390      4389      4392
      4391      4389      4392      4393      4385      4397      4394      4393      4395
      4394      4393      4396      4395      4393      4396      4398      4397      4399
      4398      4397      4400      4399      4397      4400      4401      4407      4404
      4402      4401      4403      4402      4401      4407      4403      4401      4407
      4404      4408      4409      4405      4404      4406      4405      4404      4407
      4405      4404      4408      4406      4404      4407      4406      4404      4408
      4407      4404      4408      4408      4409      4410      4408      4409      4411
      4408      4409      4412      4409      4412      4413      4409      4412      4414
      4409      4412      4420      4410      4409      4411      4410      4409      4412
      4411      4409      4412      4412      4414      4415      4412      4420      4421
      4412      4420      4422      4412      4420      4423      4413      4412      4414
      4413      4412      4420      4414      4412      4420      4414      4415      4416
      4414      4415      4417      4415      4417      4418      4415      4417      4419
      4415      4417      4429      4416      4415      4417      4417      4429      4430
      4417      4429      4431      4417      4429      4432      4418      4417      4419
      4418      4417      4429      4419      4417      4429      4420      4423      4424
      4421      4420      4422      4421      4420      4423      4422      4420      4423
      4423      4424      4425      4423      4424      4426      4424      4426      4427
      4424      4426      4428      4424      4426      4476      4425      4424      4426
      4426      4476      4477      4426      4476      4478      4426      4476      4479
      4427      4426      4428      4427      4426      4476      4428      4426      4476
      4429      4432      4433      4429      4432      4434      4429      4432      4435
      4430      4429      4431      4430      4429      4432      4431      4429      4432
      4432      4435      4436      4432      4435      4437      4432      4435      4438
      4433      4432      4434      4433      4432      4435      4434      4432      4435
      4435      4438      4439      4435      4438      4440      4435      4438      4441
      4436      4435      4437      4436      4435      4438      4437      4435      4438
      4438      4441      4442      4438      4441      4443      4438      4441      4444
      4439      4438      4440      4439      4438      4441      4440      4438      4441
      4441      4444      4445      4441      4444      4446      4441      4444      4447
      4442      4441      4443      4442      4441      4444      4443      4441      4444
      4444      4447      4448      4444      4447      4449      4445      4444      4446
      4445      4444      4447      4446      4444      4447      4447      4449      4450
      4447      4449      4451      4448      4447      4449      4449      4451      4452
      4449      4451      4453      4449      4451      4454      4450      4449      4451
      4451      4454      4455      4451      4454      4456      4451      4454      4457
      4452      4451      4453      4452      4451      4454      4453      4451      4454
      4454      4457      4458      4454      4457      4459      4454      4457      4460
      4455      4454      4456      4455      4454      4457      4456      4454      4457
      4457      4460      4461      4457      4460      4462      4457      4460      4463
      4458      4457      4459      4458      4457      4460      4459      4457      4460
      4460      4463      4464      4460      4463      4465      4460      4463      4466
      4461      4460      4462      4461      4460      4463      4462      4460      4463
      4463      4466      4467      4463      4466      4468      4463      4466      4469
      4464      4463      4465      4464      4463      4466      4465      4463      4466
      4466      4469      4470      4466      4469      4471      4466      4469      4472
      4467      4466      4468      4467      4466      4469      4468      4466      4469
      4469      4472      4473      4469      4472      4474      4469      4472      4475
      4470      4469      4471      4470      4469      4472      4471      4469      4472
      4473      4472      4474      4473      4472      4475      4474      4472      4475
      4476      4479      4480      4476      4479      4481      4476      4479      4482
      4477      4476      4478      4477      4476      4479      4478      4476      4479
      4479      4482      4483      4479      4482      4484      4479      4482      4485
      4480      4479      4481      4480      4479      4482      4481      4479      4482
      4482      4485      4486      4482      4485      4487      4482      4485      4488
      4483      4482      4484      4483      4482      4485      4484      4482      4485
      4485      4488      4489      4485      4488      4490      4485      4488      4491
      4486      4485      4487      4486      4485      4488      4487      4485      4488
      4488      4491      4492      4488      4491      4493      4488      4491      4494
      4489      4488      4490      4489      4488      4491      4490      4488      4491
      4491      4494      4495      4491      4494      4496      4491      4494      4497
      4492      4491      4493      4492      4491      4494      4493      4491      4494
      4494      4497      4498      4494      4497      4499      4494      4497      4500
      4495      4494      4496      4495      4494      4497      4496      4494      4497
      4497      4500      4501      4497      4500      4502      4497      4500      4503
      4498      4497      4499      4498      4497      4500      4499      4497      4500
      4500      4503      4504      4500      4503      4505      4500      4503      4506
      4501      4500      4502      4501      4500      4503      4502      4500      4503
      4503      4506      4507      4503      4506      4508      4503      4506      4509
      4504      4503      4505      4504      4503      4506      4505      4503      4506
      4506      4509      4510      4506      4509      4511      4506      4509      4512
      4507      4506      4508      4507      4506      4509      4508      4506      4509
      4509      4512      4513      4509      4512      4514      4509      4512      4515
      4510      4509      4511      4510      4509      4512      4511      4509      4512
      4512      4515      4516      4512      4515      4517      4512      4515      4518
      4513      4512      4514      4513      4512      4515      4514      4512      4515
      4516      4515      4517      4516      4515      4518      4517      4515      4518
      4519      4520      4521      4519      4520      4522      4519      4520      4535
      4519      4523      4524      4519      4523      4525      4519      4523      4526
      4519      4527      4528      4519      4527      4529      4519      4527      4530
      4519      4531      4532      4519      4531      4533      4519      4531      4534
      4520      4519      4523      4520      4519      4527      4520      4519      4531
      4520      4535      4536      4520      4535      4537      4520      4535      4541
      4521      4520      4522      4521      4520      4535      4522      4520      4535
      4523      4519      4527      4523      4519      4531      4524      4523      4525
      4524      4523      4526      4525      4523      4526      4527      4519      4531
      4528      4527      4529      4528      4527      4530      4529      4527      4530
      4532      4531      4533      4532      4531      4534      4533      4531      4534
      4535      4541      4538      4536      4535      4537      4536      4535      4541
      4537      4535      4541      4538      4542      4543      4539      4538      4540
      4539      4538      4541      4539      4538      4542      4540      4538      4541
      4540      4538      4542      4541      4538      4542      4542      4543      4544
      4542      4543      4545      4542      4543      4546      4543      4546      4547
      4543      4546      4548      4543      4546      4554      4544      4543      4545
      4544      4543      4546      4545      4543      4546      4546      4548      4549
      4546      4554      4555      4546      4554      4556      4546      4554      4557
      4547      4546      4548      4547      4546      4554      4548      4546      4554
      4548      4549      4550      4548      4549      4551      4549      4551      4552
      4549      4551      4553      4549      4551      4563      4550      4549      4551
      4551      4563      4564      4551      4563      4565      4551      4563      4566
      4552      4551      4553      4552      4551      4563      4553      4551      4563
      4554      4557      4558      4555      4554      4556      4555      4554      4557
      4556      4554      4557      4557      4558      4559      4557      4558      4560
      4558      4560      4561      4558      4560      4562      4558      4560      4610
      4559      4558      4560      4560      4610      4611      4560      4610      4612
      4560      4610      4613      4561      4560      4562      4561      4560      4610
      4562      4560      4610      4563      4566      4567      4563      4566      4568
      4563      4566      4569      4564      4563      4565      4564      4563      4566
      4565      4563      4566      4566      4569      4570      4566      4569      4571
      4566      4569      4572      4567      4566      4568      4567      4566      4569
      4568      4566      4569      4569      4572      4573      4569      4572      4574
      4569      4572      4575      4570      4569      4571      4570      4569      4572
      4571      4569      4572      4572      4575      4576      4572      4575      4577
      4572      4575      4578      4573      4572      4574      4573      4572      4575
      4574      4572      4575      4575      4578      4579      4575      4578      4580
      4575      4578      4581      4576      4575      4577      4576      4575      4578
      4577      4575      4578      4578      4581      4582      4578      4581      4583
      4579      4578      4580      4579      4578      4581      4580      4578      4581
      4581      4583      4584      4581      4583      4585      4582      4581      4583
      4583      4585      4586      4583      4585      4587      4583      4585      4588
      4584      4583      4585      4585      4588      4589      4585      4588      4590
      4585      4588      4591      4586      4585      4587      4586      4585      4588
      4587      4585      4588      4588      4591      4592      4588      4591      4593
      4588      4591      4594      4589      4588      4590      4589      4588      4591
      4590      4588      4591      4591      4594      4595      4591      4594      4596
      4591      4594      4597      4592      4591      4593      4592      4591      4594
      4593      4591      4594      4594      4597      4598      4594      4597      4599
      4594      4597      4600      4595      4594      4596      4595      4594      4597
      4596      4594      4597      4597      4600      4601      4597      4600      4602
      4597      4600      4603      4598      4597      4599      4598      4597      4600
      4599      4597      4600      4600      4603      4604      4600      4603      4605
      4600      4603      4606      4601      4600      4602      4601      4600      4603
      4602      4600      4603      4603      4606      4607      4603      4606      4608
      4603      4606      4609      4604      4603      4605      4604      4603      4606
      4605      4603      4606      4607      4606      4608      4607      4606      4609
      4608      4606      4609      4610      4613      4614      4610      4613      4615
      4610      4613      4616      4611      4610      4612      4611      4610      4613
      4612      4610      4613      4613      4616      4617      4613      4616      4618
      4613      4616      4619      4614      4613      4615      4614      4613      4616
      4615      4613      4616      4616      4619      4620      4616      4619      4621
      4616      4619      4622      4617      4616      4618      4617      4616      4619
      4618      4616      4619      4619      4622      4623      4619      4622      4624
      4619      4622      4625      4620      4619      4621      4620      4619      4622
      4621      4619      4622      4622      4625      4626      4622      4625      4627
      4622      4625      4628      4623      4622      4624      4623      4622      4625
      4624      4622      4625      4625      4628      4629      4625      4628      4630
      4625      4628      4631      4626      4625      4627      4626      4625      4628
      4627      4625      4628      4628      4631      4632      4628      4631      4633
      4628      4631      4634      4629      4628      4630      4629      4628      4631
      4630      4628      4631      4631      4634      4635      4631      4634      4636
      4631      4634      4637      4632      4631      4633      4632      4631      4634
      4633      4631      4634      4634      4637      4638      4634      4637      4639
      4634      4637      4640      4635      4634      4636      4635      4634      4637
      4636      4634      4637      4637      4640      4641      4637      4640      4642
      4637      4640      4643      4638      4637      4639      4638      4637      4640
      4639      4637      4640      4640      4643      4644      4640      4643      4645
      4640      4643      4646      4641      4640      4642      4641      4640      4643
      4642      4640      4643      4643      4646      4647      4643      4646      4648
      4643      4646      4649      4644      4643      4645      4644      4643      4646
      4645      4643      4646      4646      4649      4650      4646      4649      4651
      4646      4649      4652      4647      4646      4648      4647      4646      4649
      4648      4646      4649      4650      4649      4651      4650      4649      4652
      4651      4649      4652      4653      4654      4655      4653      4654      4656
      4653      4654      4669      4653      4657      4658      4653      4657      4659
      4653      4657      4660      4653      4661      4662      4653      4661      4663
      4653      4661      4664      4653      4665      4666      4653      4665      4667
      4653      4665      4668      4654      4653      4657      4654      4653      4661
      4654      4653      4665      4654      4669      4670      4654      4669      4671
      4654      4669      4675      4655      4654      4656      4655      4654      4669
      4656      4654      4669      4657      4653      4661      4657      4653      4665
      4658      4657      4659      4658      4657      4660      4659      4657      4660
      4661      4653      4665      4662      4661      4663      4662      4661      4664
      4663      4661      4664      4666      4665      4667      4666      4665      4668
      4667      4665      4668      4669      4675      4672      4670      4669      4671
      4670      4669      4675      4671      4669      4675      4672      4676      4677
      4673      4672      4674      4673      4672      4675      4673      4672      4676
      4674      4672      4675      4674      4672      4676      4675      4672      4676
      4676      4677      4678      4676      4677      4679      4676      4677      4680
      4677      4680      4681      4677      4680      4682      4677      4680      4688
      4678      4677      4679      4678      4677      4680      4679      4677      4680
      4680      4682      4683      4680      4688      4689      4680      4688      4690
      4680      4688      4691      4681      4680      4682      4681      4680      4688
      4682      4680      4688      4682      4683      4684      4682      4683      4685
      4683      4685      4686      4683      4685      4687      4683      4685      4697
      4684      4683      4685      4685      4697      4698      4685      4697      4699
      4685      4697      4700      4686      4685      4687      4686      4685      4697
      4687      4685      4697      4688      4691      4692      4689      4688      4690
      4689      4688      4691      4690      4688      4691      4691      4692      4693
      4691      4692      4694      4692      4694      4695      4692      4694      4696
      4692      4694      4744      4693      4692      4694      4694      4744      4745
      4694      4744      4746      4694      4744      4747      4695      4694      4696
      4695      4694      4744      4696      4694      4744      4697      4700      4701
      4697      4700      4702      4697      4700      4703      4698      4697      4699
      4698      4697      4700      4699      4697      4700      4700      4703      4704
      4700      4703      4705      4700      4703      4706      4701      4700      4702
      4701      4700      4703      4702      4700      4703      4703      4706      4707
      4703      4706      4708      4703      4706      4709      4704      4703      4705
      4704      4703      4706      4705      4703      4706      4706      4709      4710
      4706      4709      4711      4706      4709      4712      4707      4706      4708
      4707      4706      4709      4708      4706      4709      4709      4712      4713
      4709      4712      4714      4709      4712      4715      4710      4709      4711
      4710      4709      4712      4711      4709      4712      4712      4715      4716
      4712      4715      4717      4713      4712      4714      4713      4712      4715
      4714      4712      4715      4715      4717      4718      4715      4717      4719
      4716      4715      4717      4717      4719      4720      4717      4719      4721
      4717      4719      4722      4718      4717      4719      4719      4722      4723
      4719      4722      4724      4719      4722      4725      4720      4719      4721
      4720      4719      4722      4721      4719      4722      4722      4725      4726
      4722      4725      4727      4722      4725      4728      4723      4722      4724
      4723      4722      4725      4724      4722      4725      4725      4728      4729
      4725      4728      4730      4725      4728      4731      4726      4725      4727
      4726      4725      4728      4727      4725      4728      4728      4731      4732
      4728      4731      4733      4728      4731      4734      4729      4728      4730
      4729      4728      4731      4730      4728      4731      4731      4734      4735
      4731      4734      4736      4731      4734      4737      4732      4731      4733
      4732      4731      4734      4733      4731      4734      4734      4737      4738
      4734      4737      4739      4734      4737      4740      4735      4734      4736
      4735      4734      4737      4736      4734      4737      4737      4740      4741
      4737      4740      4742      4737      4740      4743      4738      4737      4739
      4738      4737      4740      4739      4737      4740      4741      4740      4742
      4741      4740      4743      4742      4740      4743      4744      4747      4748
      4744      4747      4749      4744      4747      4750      4745      4744      4746
      4745      4744      4747      4746      4744      4747      4747      4750      4751
      4747      4750      4752      4747      4750      4753      4748      4747      4749
      4748      4747      4750      4749      4747      4750      4750      4753      4754
      4750      4753      4755      4750      4753      4756      4751      4750      4752
      4751      4750      4753      4752      4750      4753      4753      4756      4757
      4753      4756      4758      4753      4756      4759      4754      4753      4755
      4754      4753      4756      4755      4753      4756      4756      4759      4760
      4756      4759      4761      4756      4759      4762      4757      4756      4758
      4757      4756      4759      4758      4756      4759      4759      4762      4763
      4759      4762      4764      4759      4762      4765      4760      4759      4761
      4760      4759      4762      4761      4759      4762      4762      4765      4766
      4762      4765      4767      4762      4765      4768      4763      4762      4764
      4763      4762      4765      4764      4762      4765      4765      4768      4769
      4765      4768      4770      4765      4768      4771      4766      4765      4767
      4766      4765      4768      4767      4765      4768      4768      4771      4772
      4768      4771      4773      4768      4771      4774      4769      4768      4770
      4769      4768      4771      4770      4768      4771      4771      4774      4775
      4771      4774      4776      4771      4774      4777      4772      4771      4773
      4772      4771      4774      4773      4771      4774      4774      4777      4778
      4774      4777      4779      4774      4777      4780      4775      4774      4776
      4775      4774      4777      4776      4774      4777      4777      4780      4781
      4777      4780      4782      4777      4780      4783      4778      4777      4779
      4778      4777      4780      4779      4777      4780      4780      4783      4784
      4780      4783      4785      4780      4783      4786      4781      4780      4782
      4781      4780      4783      4782      4780      4783      4784      4783      4785
      4784      4783      4786      4785      4783      4786      4787      4788      4789
      4787      4788      4790      4787      4788      4803      4787      4791      4792
      4787      4791      4793      4787      4791      4794      4787      4795      4796
      4787      4795      4797      4787      4795      4798      4787      4799      4800
      4787      4799      4801      4787      4799      4802      4788      4787      4791
      4788      4787      4795      4788      4787      4799      4788      4803      4804
      4788      4803      4805      4788      4803      4809      4789      4788      4790
      4789      4788      4803      4790      4788      4803      4791      4787      4795
      4791      4787      4799      4792      4791      4793      4792      4791      4794
      4793      4791      4794      4795      4787      4799      4796      4795      4797
      4796      4795      4798      4797      4795      4798      4800      4799      4801
      4800      4799      4802      4801      4799      4802      4803      4809      4806
      4804      4803      4805      4804      4803      4809      4805      4803      4809
      4806      4810      4811      4807      4806      4808      4807      4806      4809
      4807      4806      4810      4808      4806      4809      4808      4806      4810
      4809      4806      4810      4810      4811      4812      4810      4811      4813
      4810      4811      4814      4811      4814      4815      4811      4814      4816
      4811      4814      4822      4812      4811      4813      4812      4811      4814
      4813      4811      4814      4814      4816      4817      4814      4822      4823
      4814      4822      4824      4814      4822      4825      4815      4814      4816
      4815      4814      4822      4816      4814      4822      4816      4817      4818
      4816      4817      4819      4817      4819      4820      4817      4819      4821
      4817      4819      4831      4818      4817      4819      4819      4831      4832
      4819      4831      4833      4819      4831      4834      4820      4819      4821
      4820      4819      4831      4821      4819      4831      4822      4825      4826
      4823      4822      4824      4823      4822      4825      4824      4822      4825
      4825      4826      4827      4825      4826      4828      4826      4828      4829
      4826      4828      4830      4826      4828      4878      4827      4826      4828
      4828      4878      4879      4828      4878      4880      4828      4878      4881
      4829      4828      4830      4829      4828      4878      4830      4828      4878
      4831      4834      4835      4831      4834      4836      4831      4834      4837
      4832      4831      4833      4832      4831      4834      4833      4831      4834
      4834      4837      4838      4834      4837      4839      4834      4837      4840
      4835      4834      4836      4835      4834      4837      4836      4834      4837
      4837      4840      4841      4837      4840      4842      4837      4840      4843
      4838      4837      4839      4838      4837      4840      4839      4837      4840
      4840      4843      4844      4840      4843      4845      4840      4843      4846
      4841      4840      4842      4841      4840      4843      4842      4840      4843
      4843      4846      4847      4843      4846      4848      4843      4846      4849
      4844      4843      4845      4844      4843      4846      4845      4843      4846
      4846      4849      4850      4846      4849      4851      4847      4846      4848
      4847      4846      4849      4848      4846      4849      4849      4851      4852
      4849      4851      4853      4850      4849      4851      4851      4853      4854
      4851      4853      4855      4851      4853      4856      4852      4851      4853
      4853      4856      4857      4853      4856      4858      4853      4856      4859
      4854      4853      4855      4854      4853      4856      4855      4853      4856
      4856      4859      4860      4856      4859      4861      4856      4859      4862
      4857      4856      4858      4857      4856      4859      4858      4856      4859
      4859      4862      4863      4859      4862      4864      4859      4862      4865
      4860      4859      4861      4860      4859      4862      4861      4859      4862
      4862      4865      4866      4862      4865      4867      4862      4865      4868
      4863      4862      4864      4863      4862      4865      4864      4862      4865
      4865      4868      4869      4865      4868      4870      4865      4868      4871
      4866      4865      4867      4866      4865      4868      4867      4865      4868
      4868      4871      4872      4868      4871      4873      4868      4871      4874
      4869      4868      4870      4869      4868      4871      4870      4868      4871
      4871      4874      4875      4871      4874      4876      4871      4874      4877
      4872      4871      4873      4872      4871      4874      4873      4871      4874
      4875      4874      4876      4875      4874      4877      4876      4874      4877
      4878      4881      4882      4878      4881      4883      4878      4881      4884
      4879      4878      4880      4879      4878      4881      4880      4878      4881
      4881      4884      4885      4881      4884      4886      4881      4884      4887
      4882      4881      4883      4882      4881      4884      4883      4881      4884
      4884      4887      4888      4884      4887      4889      4884      4887      4890
      4885      4884      4886      4885      4884      4887      4886      4884      4887
      4887      4890      4891      4887      4890      4892      4887      4890      4893
      4888      4887      4889      4888      4887      4890      4889      4887      4890
      4890      4893      4894      4890      4893      4895      4890      4893      4896
      4891      4890      4892      4891      4890      4893      4892      4890      4893
      4893      4896      4897      4893      4896      4898      4893      4896      4899
      4894      4893      4895      4894      4893      4896      4895      4893      4896
      4896      4899      4900      4896      4899      4901      4896      4899      4902
      4897      4896      4898      4897      4896      4899      4898      4896      4899
      4899      4902      4903      4899      4902      4904      4899      4902      4905
      4900      4899      4901      4900      4899      4902      4901      4899      4902
      4902      4905      4906      4902      4905      4907      4902      4905      4908
      4903      4902      4904      4903      4902      4905      4904      4902      4905
      4905      4908      4909      4905      4908      4910      4905      4908      4911
      4906      4905      4907      4906      4905      4908      4907      4905      4908
      4908      4911      4912      4908      4911      4913      4908      4911      4914
      4909      4908      4910      4909      4908      4911      4910      4908      4911
      4911      4914      4915      4911      4914      4916      4911      4914      4917
      4912      4911      4913      4912      4911      4914      4913      4911      4914
      4914      4917      4918      4914      4917      4919      4914      4917      4920
      4915      4914      4916      4915      4914      4917      4916      4914      4917
      4918      4917      4919      4918      4917      4920      4919      4917      4920
      4921      4925      4926      4921      4925      4927      4921      4925      4928
      4922      4921      4923      4922      4921      4924      4922      4921      4925
      4923      4921      4924      4923      4921      4925      4924      4921      4925
      4925      4928      4929      4925      4928      4930      4925      4928      4935
      4926      4925      4927      4926      4925      4928      4927      4925      4928
      4928      4935      4931      4929      4928      4930      4929      4928      4935
      4930      4928      4935      4931      4934      4936      4932      4931      4933
      4932      4931      4934      4932      4931      4935      4933      4931      4934
      4933      4931      4935      4934      4931      4935      4934      4936      4937
      4934      4936      4938      4934      4936      4939      4936      4939      4940
      4936      4939      4941      4936      4939      4947      4937      4936      4938
      4937      4936      4939      4938      4936      4939      4939      4941      4942
      4939      4947      4948      4939      4947      4949      4939      4947      4950
      4940      4939      4941      4940      4939      4947      4941      4939      4947
      4941      4942      4943      4941      4942      4944      4942      4944      4945
      4942      4944      4946      4942      4944      4956      4943      4942      4944
      4944      4956      4957      4944      4956      4958      4944      4956      4959
      4945      4944      4946      4945      4944      4956      4946      4944      4956
      4947      4950      4951      4948      4947      4949      4948      4947      4950
      4949      4947      4950      4950      4951      4952      4950      4951      4953
      4951      4953      4954      4951      4953      4955      4951      4953      5003
      4952      4951      4953      4953      5003      5004      4953      5003      5005
      4953      5003      5006      4954      4953      4955      4954      4953      5003
      4955      4953      5003      4956      4959      4960      4956      4959      4961
      4956      4959      4962      4957      4956      4958      4957      4956      4959
      4958      4956      4959      4959      4962      4963      4959      4962      4964
      4959      4962      4965      4960      4959      4961      4960      4959      4962
      4961      4959      4962      4962      4965      4966      4962      4965      4967
      4962      4965      4968      4963      4962      4964      4963      4962      4965
      4964      4962      4965      4965      4968      4969      4965      4968      4970
      4965      4968      4971      4966      4965      4967      4966      4965      4968
      4967      4965      4968      4968      4971      4972      4968      4971      4973
      4968      4971      4974      4969      4968      4970      4969      4968      4971
      4970      4968      4971      4971      4974      4975      4971      4974      4976
      4972      4971      4973      4972      4971      4974      4973      4971      4974
      4974      4976      4977      4974      4976      4978      4975      4974      4976
      4976      4978      4979      4976      4978      4980      4976      4978      4981
      4977      4976      4978      4978      4981      4982      4978      4981      4983
      4978      4981      4984      4979      4978      4980      4979      4978      4981
      4980      4978      4981      4981      4984      4985      4981      4984      4986
      4981      4984      4987      4982      4981      4983      4982      4981      4984
      4983      4981      4984      4984      4987      4988      4984      4987      4989
      4984      4987      4990      4985      4984      4986      4985      4984      4987
      4986      4984      4987      4987      4990      4991      4987      4990      4992
      4987      4990      4993      4988      4987      4989      4988      4987      4990
      4989      4987      4990      4990      4993      4994      4990      4993      4995
      4990      4993      4996      4991      4990      4992      4991      4990      4993
      4992      4990      4993      4993      4996      4997      4993      4996      4998
      4993      4996      4999      4994      4993      4995      4994      4993      4996
      4995      4993      4996      4996      4999      5000      4996      4999      5001
      4996      4999      5002      4997      4996      4998      4997      4996      4999
      4998      4996      4999      5000      4999      5001      5000      4999      5002
      5001      4999      5002      5003      5006      5007      5003      5006      5008
      5003      5006      5009      5004      5003      5005      5004      5003      5006
      5005      5003      5006      5006      5009      5010      5006      5009      5011
      5006      5009      5012      5007      5006      5008      5007      5006      5009
      5008      5006      5009      5009      5012      5013      5009      5012      5014
      5009      5012      5015      5010      5009      5011      5010      5009      5012
      5011      5009      5012      5012      5015      5016      5012      5015      5017
      5012      5015      5018      5013      5012      5014      5013      5012      5015
      5014      5012      5015      5015      5018      5019      5015      5018      5020
      5015      5018      5021      5016      5015      5017      5016      5015      5018
      5017      5015      5018      5018      5021      5022      5018      5021      5023
      5018      5021      5024      5019      5018      5020      5019      5018      5021
      5020      5018      5021      5021      5024      5025      5021      5024      5026
      5021      5024      5027      5022      5021      5023      5022      5021      5024
      5023      5021      5024      5024      5027      5028      5024      5027      5029
      5024      5027      5030      5025      5024      5026      5025      5024      5027
      5026      5024      5027      5027      5030      5031      5027      5030      5032
      5027      5030      5033      5028      5027      5029      5028      5027      5030
      5029      5027      5030      5030      5033      5034      5030      5033      5035
      5030      5033      5036      5031      5030      5032      5031      5030      5033
      5032      5030      5033      5033      5036      5037      5033      5036      5038
      5033      5036      5039      5034      5033      5035      5034      5033      5036
      5035      5033      5036      5036      5039      5040      5036      5039      5041
      5036      5039      5042      5037      5036      5038      5037      5036      5039
      5038      5036      5039      5039      5042      5043      5039      5042      5044
      5039      5042      5045      5040      5039      5041      5040      5039      5042
      5041      5039      5042      5043      5042      5044      5043      5042      5045
      5044      5042      5045      5046      5050      5051      5046      5050      5052
      5046      5050      5053      5047      5046      5048      5047      5046      5049
      5047      5046      5050      5048      5046      5049      5048      5046      5050
      5049      5046      5050      5050      5053      5054      5050      5053      5055
      5050      5053      5060      5051      5050      5052      5051      5050      5053
      5052      5050      5053      5053      5060      5056      5054      5053      5055
      5054      5053      5060      5055      5053      5060      5056      5059      5061
      5057      5056      5058      5057      5056      5059      5057      5056      5060
      5058      5056      5059      5058      5056      5060      5059      5056      5060
      5059      5061      5062      5059      5061      5063      5059      5061      5064
      5061      5064      5065      5061      5064      5066      5061      5064      5072
      5062      5061      5063      5062      5061      5064      5063      5061      5064
      5064      5066      5067      5064      5072      5073      5064      5072      5074
      5064      5072      5075      5065      5064      5066      5065      5064      5072
      5066      5064      5072      5066      5067      5068      5066      5067      5069
      5067      5069      5070      5067      5069      5071      5067      5069      5081
      5068      5067      5069      5069      5081      5082      5069      5081      5083
      5069      5081      5084      5070      5069      5071      5070      5069      5081
      5071      5069      5081      5072      5075      5076      5073      5072      5074
      5073      5072      5075      5074      5072      5075      5075      5076      5077
      5075      5076      5078      5076      5078      5079      5076      5078      5080
      5076      5078      5128      5077      5076      5078      5078      5128      5129
      5078      5128      5130      5078      5128      5131      5079      5078      5080
      5079      5078      5128      5080      5078      5128      5081      5084      5085
      5081      5084      5086      5081      5084      5087      5082      5081      5083
      5082      5081      5084      5083      5081      5084      5084      5087      5088
      5084      5087      5089      5084      5087      5090      5085      5084      5086
      5085      5084      5087      5086      5084      5087      5087      5090      5091
      5087      5090      5092      5087      5090      5093      5088      5087      5089
      5088      5087      5090      5089      5087      5090      5090      5093      5094
      5090      5093      5095      5090      5093      5096      5091      5090      5092
      5091      5090      5093      5092      5090      5093      5093      5096      5097
      5093      5096      5098      5093      5096      5099      5094      5093      5095
      5094      5093      5096      5095      5093      5096      5096      5099      5100
      5096      5099      5101      5097      5096      5098      5097      5096      5099
      5098      5096      5099      5099      5101      5102      5099      5101      5103
      5100      5099      5101      5101      5103      5104      5101      5103      5105
      5101      5103      5106      5102      5101      5103      5103      5106      5107
      5103      5106      5108      5103      5106      5109      5104      5103      5105
      5104      5103      5106      5105      5103      5106      5106      5109      5110
      5106      5109      5111      5106      5109      5112      5107      5106      5108
      5107      5106      5109      5108      5106      5109      5109      5112      5113
      5109      5112      5114      5109      5112      5115      5110      5109      5111
      5110      5109      5112      5111      5109      5112      5112      5115      5116
      5112      5115      5117      5112      5115      5118      5113      5112      5114
      5113      5112      5115      5114      5112      5115      5115      5118      5119
      5115      5118      5120      5115      5118      5121      5116      5115      5117
      5116      5115      5118      5117      5115      5118      5118      5121      5122
      5118      5121      5123      5118      5121      5124      5119      5118      5120
      5119      5118      5121      5120      5118      5121      5121      5124      5125
      5121      5124      5126      5121      5124      5127      5122      5121      5123
      5122      5121      5124      5123      5121      5124      5125      5124      5126
      5125      5124      5127      5126      5124      5127      5128      5131      5132
      5128      5131      5133      5128      5131      5134      5129      5128      5130
      5129      5128      5131      5130      5128      5131      5131      5134      5135
      5131      5134      5136      5131      5134      5137      5132      5131      5133
      5132      5131      5134      5133      5131      5134      5134      5137      5138
      5134      5137      5139      5134      5137      5140      5135      5134      5136
      5135      5134      5137      5136      5134      5137      5137      5140      5141
      5137      5140      5142      5137      5140      5143      5138      5137      5139
      5138      5137      5140      5139      5137      5140      5140      5143      5144
      5140      5143      5145      5140      5143      5146      5141      5140      5142
      5141      5140      5143      5142      5140      5143      5143      5146      5147
      5143      5146      5148      5143      5146      5149      5144      5143      5145
      5144      5143      5146      5145      5143      5146      5146      5149      5150
      5146      5149      5151      5146      5149      5152      5147      5146      5148
      5147      5146      5149      5148      5146      5149      5149      5152      5153
      5149      5152      5154      5149      5152      5155      5150      5149      5151
      5150      5149      5152      5151      5149      5152      5152      5155      5156
      5152      5155      5157      5152      5155      5158      5153      5152      5154
      5153      5152      5155      5154      5152      5155      5155      5158      5159
      5155      5158      5160      5155      5158      5161      5156      5155      5157
      5156      5155      5158      5157      5155      5158      5158      5161      5162
      5158      5161      5163      5158      5161      5164      5159      5158      5160
      5159      5158      5161      5160      5158      5161      5161      5164      5165
      5161      5164      5166      5161      5164      5167      5162      5161      5163
      5162      5161      5164      5163      5161      5164      5164      5167      5168
      5164      5167      5169      5164      5167      5170      5165      5164      5166
      5165      5164      5167      5166      5164      5167      5168      5167      5169
      5168      5167      5170      5169      5167      5170      5171      5172      5173
      5171      5172      5174      5171      5172      5187      5171      5175      5176
      5171      5175      5177      5171      5175      5178      5171      5179      5180
      5171      5179      5181      5171      5179      5182      5171      5183      5184
      5171      5183      5185      5171      5183      5186      5172      5171      5175
      5172      5171      5179      5172      5171      5183      5172      5187      5188
      5172      5187      5189      5172      5187      5193      5173      5172      5174
      5173      5172      5187      5174      5172      5187      5175      5171      5179
      5175      5171      5183      5176      5175      5177      5176      5175      5178
      5177      5175      5178      5179      5171      5183      5180      5179      5181
      5180      5179      5182      5181      5179      5182      5184      5183      5185
      5184      5183      5186      5185      5183      5186      5187      5193      5190
      5188      5187      5189      5188      5187      5193      5189      5187      5193
      5190      5194      5195      5191      5190      5192      5191      5190      5193
      5191      5190      5194      5192      5190      5193      5192      5190      5194
      5193      5190      5194      5194      5195      5196      5194      5195      5197
      5194      5195      5198      5195      5198      5199      5195      5198      5200
      5195      5198      5206      5196      5195      5197      5196      5195      5198
      5197      5195      5198      5198      5200      5201      5198      5206      5207
      5198      5206      5208      5198      5206      5209      5199      5198      5200
      5199      5198      5206      5200      5198      5206      5200      5201      5202
      5200      5201      5203      5201      5203      5204      5201      5203      5205
      5201      5203      5215      5202      5201      5203      5203      5215      5216
      5203      5215      5217      5203      5215      5218      5204      5203      5205
      5204      5203      5215      5205      5203      5215      5206      5209      5210
      5207      5206      5208      5207      5206      5209      5208      5206      5209
      5209      5210      5211      5209      5210      5212      5210      5212      5213
      5210      5212      5214      5210      5212      5262      5211      5210      5212
      5212      5262      5263      5212      5262      5264      5212      5262      5265
      5213      5212      5214      5213      5212      5262      5214      5212      5262
      5215      5218      5219      5215      5218      5220      5215      5218      5221
      5216      5215      5217      5216      5215      5218      5217      5215      5218
      5218      5221      5222      5218      5221      5223      5218      5221      5224
      5219      5218      5220      5219      5218      5221      5220      5218      5221
      5221      5224      5225      5221      5224      5226      5221      5224      5227
      5222      5221      5223      5222      5221      5224      5223      5221      5224
      5224      5227      5228      5224      5227      5229      5224      5227      5230
      5225      5224      5226      5225      5224      5227      5226      5224      5227
      5227      5230      5231      5227      5230      5232      5227      5230      5233
      5228      5227      5229      5228      5227      5230      5229      5227      5230
      5230      5233      5234      5230      5233      5235      5231      5230      5232
      5231      5230      5233      5232      5230      5233      5233      5235      5236
      5233      5235      5237      5234      5233      5235      5235      5237      5238
      5235      5237      5239      5235      5237      5240      5236      5235      5237
      5237      5240      5241      5237      5240      5242      5237      5240      5243
      5238      5237      5239      5238      5237      5240      5239      5237      5240
      5240      5243      5244      5240      5243      5245      5240      5243      5246
      5241      5240      5242      5241      5240      5243      5242      5240      5243
      5243      5246      5247      5243      5246      5248      5243      5246      5249
      5244      5243      5245      5244      5243      5246      5245      5243      5246
      5246      5249      5250      5246      5249      5251      5246      5249      5252
      5247      5246      5248      5247      5246      5249      5248      5246      5249
      5249      5252      5253      5249      5252      5254      5249      5252      5255
      5250      5249      5251      5250      5249      5252      5251      5249      5252
      5252      5255      5256      5252      5255      5257      5252      5255      5258
      5253      5252      5254      5253      5252      5255      5254      5252      5255
      5255      5258      5259      5255      5258      5260      5255      5258      5261
      5256      5255      5257      5256      5255      5258      5257      5255      5258
      5259      5258      5260      5259      5258      5261      5260      5258      5261
      5262      5265      5266      5262      5265      5267      5262      5265      5268
      5263      5262      5264      5263      5262      5265      5264      5262      5265
      5265      5268      5269      5265      5268      5270      5265      5268      5271
      5266      5265      5267      5266      5265      5268      5267      5265      5268
      5268      5271      5272      5268      5271      5273      5268      5271      5274
      5269      5268      5270      5269      5268      5271      5270      5268      5271
      5271      5274      5275      5271      5274      5276      5271      5274      5277
      5272      5271      5273      5272      5271      5274      5273      5271      5274
      5274      5277      5278      5274      5277      5279      5274      5277      5280
      5275      5274      5276      5275      5274      5277      5276      5274      5277
      5277      5280      5281      5277      5280      5282      5277      5280      5283
      5278      5277      5279      5278      5277      5280      5279      5277      5280
      5280      5283      5284      5280      5283      5285      5280      5283      5286
      5281      5280      5282      5281      5280      5283      5282      5280      5283
      5283      5286      5287      5283      5286      5288      5283      5286      5289
      5284      5283      5285      5284      5283      5286      5285      5283      5286
      5286      5289      5290      5286      5289      5291      5286      5289      5292
      5287      5286      5288      5287      5286      5289      5288      5286      5289
      5289      5292      5293      5289      5292      5294      5289      5292      5295
      5290      5289      5291      5290      5289      5292      5291      5289      5292
      5292      5295      5296      5292      5295      5297      5292      5295      5298
      5293      5292      5294      5293      5292      5295      5294      5292      5295
      5295      5298      5299      5295      5298      5300      5295      5298      5301
      5296      5295      5297      5296      5295      5298      5297      5295      5298
      5298      5301      5302      5298      5301      5303      5298      5301      5304
      5299      5298      5300      5299      5298      5301      5300      5298      5301
      5302      5301      5303      5302      5301      5304      5303      5301      5304
      5305      5309      5310      5305      5309      5311      5305      5309      5312
      5306      5305      5307      5306      5305      5308      5306      5305      5309
      5307      5305      5308      5307      5305      5309      5308      5305      5309
      5309      5312      5313      5309      5312      5314      5309      5312      5319
      5310      5309      5311      5310      5309      5312      5311      5309      5312
      5312      5319      5315      5313      5312      5314      5313      5312      5319
      5314      5312      5319      5315      5318      5320      5316      5315      5317
      5316      5315      5318      5316      5315      5319      5317      5315      5318
      5317      5315      5319      5318      5315      5319      5318      5320      5321
      5318      5320      5322      5318      5320      5323      5320      5323      5324
      5320      5323      5325      5320      5323      5331      5321      5320      5322
      5321      5320      5323      5322      5320      5323      5323      5325      5326
      5323      5331      5332      5323      5331      5333      5323      5331      5334
      5324      5323      5325      5324      5323      5331      5325      5323      5331
      5325      5326      5327      5325      5326      5328      5326      5328      5329
      5326      5328      5330      5326      5328      5340      5327      5326      5328
      5328      5340      5341      5328      5340      5342      5328      5340      5343
      5329      5328      5330      5329      5328      5340      5330      5328      5340
      5331      5334      5335      5332      5331      5333      5332      5331      5334
      5333      5331      5334      5334      5335      5336      5334      5335      5337
      5335      5337      5338      5335      5337      5339      5335      5337      5387
      5336      5335      5337      5337      5387      5388      5337      5387      5389
      5337      5387      5390      5338      5337      5339      5338      5337      5387
      5339      5337      5387      5340      5343      5344      5340      5343      5345
      5340      5343      5346      5341      5340      5342      5341      5340      5343
      5342      5340      5343      5343      5346      5347      5343      5346      5348
      5343      5346      5349      5344      5343      5345      5344      5343      5346
      5345      5343      5346      5346      5349      5350      5346      5349      5351
      5346      5349      5352      5347      5346      5348      5347      5346      5349
      5348      5346      5349      5349      5352      5353      5349      5352      5354
      5349      5352      5355      5350      5349      5351      5350      5349      5352
      5351      5349      5352      5352      5355      5356      5352      5355      5357
      5352      5355      5358      5353      5352      5354      5353      5352      5355
      5354      5352      5355      5355      5358      5359      5355      5358      5360
      5356      5355      5357      5356      5355      5358      5357      5355      5358
      5358      5360      5361      5358      5360      5362      5359      5358      5360
      5360      5362      5363      5360      5362      5364      5360      5362      5365
      5361      5360      5362      5362      5365      5366      5362      5365      5367
      5362      5365      5368      5363      5362      5364      5363      5362      5365
      5364      5362      5365      5365      5368      5369      5365      5368      5370
      5365      5368      5371      5366      5365      5367      5366      5365      5368
      5367      5365      5368      5368      5371      5372      5368      5371      5373
      5368      5371      5374      5369      5368      5370      5369      5368      5371
      5370      5368      5371      5371      5374      5375      5371      5374      5376
      5371      5374      5377      5372      5371      5373      5372      5371      5374
      5373      5371      5374      5374      5377      5378      5374      5377      5379
      5374      5377      5380      5375      5374      5376      5375      5374      5377
      5376      5374      5377      5377      5380      5381      5377      5380      5382
      5377      5380      5383      5378      5377      5379      5378      5377      5380
      5379      5377      5380      5380      5383      5384      5380      5383      5385
      5380      5383      5386      5381      5380      5382      5381      5380      5383
      5382      5380      5383      5384      5383      5385      5384      5383      5386
      5385      5383      5386      5387      5390      5391      5387      5390      5392
      5387      5390      5393      5388      5387      5389      5388      5387      5390
      5389      5387      5390      5390      5393      5394      5390      5393      5395
      5390      5393      5396      5391      5390      5392      5391      5390      5393
      5392      5390      5393      5393      5396      5397      5393      5396      5398
      5393      5396      5399      5394      5393      5395      5394      5393      5396
      5395      5393      5396      5396      5399      5400      5396      5399      5401
      5396      5399      5402      5397      5396      5398      5397      5396      5399
      5398      5396      5399      5399      5402      5403      5399      5402      5404
      5399      5402      5405      5400      5399      5401      5400      5399      5402
      5401      5399      5402      5402      5405      5406      5402      5405      5407
      5402      5405      5408      5403      5402      5404      5403      5402      5405
      5404      5402      5405      5405      5408      5409      5405      5408      5410
      5405      5408      5411      5406      5405      5407      5406      5405      5408
      5407      5405      5408      5408      5411      5412      5408      5411      5413
      5408      5411      5414      5409      5408      5410      5409      5408      5411
      5410      5408      5411      5411      5414      5415      5411      5414      5416
      5411      5414      5417      5412      5411      5413      5412      5411      5414
      5413      5411      5414      5414      5417      5418      5414      5417      5419
      5414      5417      5420      5415      5414      5416      5415      5414      5417
      5416      5414      5417      5417      5420      5421      5417      5420      5422
      5417      5420      5423      5418      5417      5419      5418      5417      5420
      5419      5417      5420      5420      5423      5424      5420      5423      5425
      5420      5423      5426      5421      5420      5422      5421      5420      5423
      5422      5420      5423      5423      5426      5427      5423      5426      5428
      5423      5426      5429      5424      5423      5425      5424      5423      5426
      5425      5423      5426      5427      5426      5428      5427      5426      5429
      5428      5426      5429      5430      5434      5435      5430      5434      5436
      5430      5434      5437      5431      5430      5432      5431      5430      5433
      5431      5430      5434      5432      5430      5433      5432      5430      5434
      5433      5430      5434      5434      5437      5438      5434      5437      5439
      5434      5437      5444      5435      5434      5436      5435      5434      5437
      5436      5434      5437      5437      5444      5440      5438      5437      5439
      5438      5437      5444      5439      5437      5444      5440      5443      5445
      5441      5440      5442      5441      5440      5443      5441      5440      5444
      5442      5440      5443      5442      5440      5444      5443      5440      5444
      5443      5445      5446      5443      5445      5447      5443      5445      5448
      5445      5448      5449      5445      5448      5450      5445      5448      5456
      5446      5445      5447      5446      5445      5448      5447      5445      5448
      5448      5450      5451      5448      5456      5457      5448      5456      5458
      5448      5456      5459      5449      5448      5450      5449      5448      5456
      5450      5448      5456      5450      5451      5452      5450      5451      5453
      5451      5453      5454      5451      5453      5455      5451      5453      5465
      5452      5451      5453      5453      5465      5466      5453      5465      5467
      5453      5465      5468      5454      5453      5455      5454      5453      5465
      5455      5453      5465      5456      5459      5460      5457      5456      5458
      5457      5456      5459      5458      5456      5459      5459      5460      5461
      5459      5460      5462      5460      5462      5463      5460      5462      5464
      5460      5462      5512      5461      5460      5462      5462      5512      5513
      5462      5512      5514      5462      5512      5515      5463      5462      5464
      5463      5462      5512      5464      5462      5512      5465      5468      5469
      5465      5468      5470      5465      5468      5471      5466      5465      5467
      5466      5465      5468      5467      5465      5468      5468      5471      5472
      5468      5471      5473      5468      5471      5474      5469      5468      5470
      5469      5468      5471      5470      5468      5471      5471      5474      5475
      5471      5474      5476      5471      5474      5477      5472      5471      5473
      5472      5471      5474      5473      5471      5474      5474      5477      5478
      5474      5477      5479      5474      5477      5480      5475      5474      5476
      5475      5474      5477      5476      5474      5477      5477      5480      5481
      5477      5480      5482      5477      5480      5483      5478      5477      5479
      5478      5477      5480      5479      5477      5480      5480      5483      5484
      5480      5483      5485      5481      5480      5482      5481      5480      5483
      5482      5480      5483      5483      5485      5486      5483      5485      5487
      5484      5483      5485      5485      5487      5488      5485      5487      5489
      5485      5487      5490      5486      5485      5487      5487      5490      5491
      5487      5490      5492      5487      5490      5493      5488      5487      5489
      5488      5487      5490      5489      5487      5490      5490      5493      5494
      5490      5493      5495      5490      5493      5496      5491      5490      5492
      5491      5490      5493      5492      5490      5493      5493      5496      5497
      5493      5496      5498      5493      5496      5499      5494      5493      5495
      5494      5493      5496      5495      5493      5496      5496      5499      5500
      5496      5499      5501      5496      5499      5502      5497      5496      5498
      5497      5496      5499      5498      5496      5499      5499      5502      5503
      5499      5502      5504      5499      5502      5505      5500      5499      5501
      5500      5499      5502      5501      5499      5502      5502      5505      5506
      5502      5505      5507      5502      5505      5508      5503      5502      5504
      5503      5502      5505      5504      5502      5505      5505      5508      5509
      5505      5508      5510      5505      5508      5511      5506      5505      5507
      5506      5505      5508      5507      5505      5508      5509      5508      5510
      5509      5508      5511      5510      5508      5511      5512      5515      5516
      5512      5515      5517      5512      5515      5518      5513      5512      5514
      5513      5512      5515      5514      5512      5515      5515      5518      5519
      5515      5518      5520      5515      5518      5521      5516      5515      5517
      5516      5515      5518      5517      5515      5518      5518      5521      5522
      5518      5521      5523      5518      5521      5524      5519      5518      5520
      5519      5518      5521      5520      5518      5521      5521      5524      5525
      5521      5524      5526      5521      5524      5527      5522      5521      5523
      5522      5521      5524      5523      5521      5524      5524      5527      5528
      5524      5527      5529      5524      5527      5530      5525      5524      5526
      5525      5524      5527      5526      5524      5527      5527      5530      5531
      5527      5530      5532      5527      5530      5533      5528      5527      5529
      5528      5527      5530      5529      5527      5530      5530      5533      5534
      5530      5533      5535      5530      5533      5536      5531      5530      5532
      5531      5530      5533      5532      5530      5533      5533      5536      5537
      5533      5536      5538      5533      5536      5539      5534      5533      5535
      5534      5533      5536      5535      5533      5536      5536      5539      5540
      5536      5539      5541      5536      5539      5542      5537      5536      5538
      5537      5536      5539      5538      5536      5539      5539      5542      5543
      5539      5542      5544      5539      5542      5545      5540      5539      5541
      5540      5539      5542      5541      5539      5542      5542      5545      5546
      5542      5545      5547      5542      5545      5548      5543      5542      5544
      5543      5542      5545      5544      5542      5545      5545      5548      5549
      5545      5548      5550      5545      5548      5551      5546      5545      5547
      5546      5545      5548      5547      5545      5548      5548      5551      5552
      5548      5551      5553      5548      5551      5554      5549      5548      5550
      5549      5548      5551      5550      5548      5551      5552      5551      5553
      5552      5551      5554      5553      5551      5554      5555      5556      5557
      5555      5556      5558      5555      5556      5571      5555      5559      5560
      5555      5559      5561      5555      5559      5562      5555      5563      5564
      5555      5563      5565      5555      5563      5566      5555      5567      5568
      5555      5567      5569      5555      5567      5570      5556      5555      5559
      5556      5555      5563      5556      5555      5567      5556      5571      5572
      5556      5571      5573      5556      5571      5577      5557      5556      5558
      5557      5556      5571      5558      5556      5571      5559      5555      5563
      5559      5555      5567      5560      5559      5561      5560      5559      5562
      5561      5559      5562      5563      5555      5567      5564      5563      5565
      5564      5563      5566      5565      5563      5566      5568      5567      5569
      5568      5567      5570      5569      5567      5570      5571      5577      5574
      5572      5571      5573      5572      5571      5577      5573      5571      5577
      5574      5578      5579      5575      5574      5576      5575      5574      5577
      5575      5574      5578      5576      5574      5577      5576      5574      5578
      5577      5574      5578      5578      5579      5580      5578      5579      5581
      5578      5579      5582      5579      5582      5583      5579      5582      5584
      5579      5582      5590      5580      5579      5581      5580      5579      5582
      5581      5579      5582      5582      5584      5585      5582      5590      5591
      5582      5590      5592      5582      5590      5593      5583      5582      5584
      5583      5582      5590      5584      5582      5590      5584      5585      5586
      5584      5585      5587      5585      5587      5588      5585      5587      5589
      5585      5587      5599      5586      5585      5587      5587      5599      5600
      5587      5599      5601      5587      5599      5602      5588      5587      5589
      5588      5587      5599      5589      5587      5599      5590      5593      5594
      5591      5590      5592      5591      5590      5593      5592      5590      5593
      5593      5594      5595      5593      5594      5596      5594      5596      5597
      5594      5596      5598      5594      5596      5646      5595      5594      5596
      5596      5646      5647      5596      5646      5648      5596      5646      5649
      5597      5596      5598      5597      5596      5646      5598      5596      5646
      5599      5602      5603      5599      5602      5604      5599      5602      5605
      5600      5599      5601      5600      5599      5602      5601      5599      5602
      5602      5605      5606      5602      5605      5607      5602      5605      5608
      5603      5602      5604      5603      5602      5605      5604      5602      5605
      5605      5608      5609      5605      5608      5610      5605      5608      5611
      5606      5605      5607      5606      5605      5608      5607      5605      5608
      5608      5611      5612      5608      5611      5613      5608      5611      5614
      5609      5608      5610      5609      5608      5611      5610      5608      5611
      5611      5614      5615      5611      5614      5616      5611      5614      5617
      5612      5611      5613      5612      5611      5614      5613      5611      5614
      5614      5617      5618      5614      5617      5619      5615      5614      5616
      5615      5614      5617      5616      5614      5617      5617      5619      5620
      5617      5619      5621      5618      5617      5619      5619      5621      5622
      5619      5621      5623      5619      5621      5624      5620      5619      5621
      5621      5624      5625      5621      5624      5626      5621      5624      5627
      5622      5621      5623      5622      5621      5624      5623      5621      5624
      5624      5627      5628      5624      5627      5629      5624      5627      5630
      5625      5624      5626      5625      5624      5627      5626      5624      5627
      5627      5630      5631      5627      5630      5632      5627      5630      5633
      5628      5627      5629      5628      5627      5630      5629      5627      5630
      5630      5633      5634      5630      5633      5635      5630      5633      5636
      5631      5630      5632      5631      5630      5633      5632      5630      5633
      5633      5636      5637      5633      5636      5638      5633      5636      5639
      5634      5633      5635      5634      5633      5636      5635      5633      5636
      5636      5639      5640      5636      5639      5641      5636      5639      5642
      5637      5636      5638      5637      5636      5639      5638      5636      5639
      5639      5642      5643      5639      5642      5644      5639      5642      5645
      5640      5639      5641      5640      5639      5642      5641      5639      5642
      5643      5642      5644      5643      5642      5645      5644      5642      5645
      5646      5649      5650      5646      5649      5651      5646      5649      5652
      5647      5646      5648      5647      5646      5649      5648      5646      5649
      5649      5652      5653      5649      5652      5654      5649      5652      5655
      5650      5649      5651      5650      5649      5652      5651      5649      5652
      5652      5655      5656      5652      5655      5657      5652      5655      5658
      5653      5652      5654      5653      5652      5655      5654      5652      5655
      5655      5658      5659      5655      5658      5660      5655      5658      5661
      5656      5655      5657      5656      5655      5658      5657      5655      5658
      5658      5661      5662      5658      5661      5663      5658      5661      5664
      5659      5658      5660      5659      5658      5661      5660      5658      5661
      5661      5664      5665      5661      5664      5666      5661      5664      5667
      5662      5661      5663      5662      5661      5664      5663      5661      5664
      5664      5667      5668      5664      5667      5669      5664      5667      5670
      5665      5664      5666      5665      5664      5667      5666      5664      5667
      5667      5670      5671      5667      5670      5672      5667      5670      5673
      5668      5667      5669      5668      5667      5670      5669      5667      5670
      5670      5673      5674      5670      5673      5675      5670      5673      5676
      5671      5670      5672      5671      5670      5673      5672      5670      5673
      5673      5676      5677      5673      5676      5678      5673      5676      5679
      5674      5673      5675      5674      5673      5676      5675      5673      5676
      5676      5679      5680      5676      5679      5681      5676      5679      5682
      5677      5676      5678      5677      5676      5679      5678      5676      5679
      5679      5682      5683      5679      5682      5684      5679      5682      5685
      5680      5679      5681      5680      5679      5682      5681      5679      5682
      5682      5685      5686      5682      5685      5687      5682      5685      5688
      5683      5682      5684      5683      5682      5685      5684      5682      5685
      5686      5685      5687      5686      5685      5688      5687      5685      5688
      5689      5690      5691      5689      5690      5692      5689      5690      5705
      5689      5693      5694      5689      5693      5695      5689      5693      5696
      5689      5697      5698      5689      5697      5699      5689      5697      5700
      5689      5701      5702      5689      5701      5703      5689      5701      5704
      5690      5689      5693      5690      5689      5697      5690      5689      5701
      5690      5705      5706      5690      5705      5707      5690      5705      5711
      5691      5690      5692      5691      5690      5705      5692      5690      5705
      5693      5689      5697      5693      5689      5701      5694      5693      5695
      5694      5693      5696      5695      5693      5696      5697      5689      5701
      5698      5697      5699      5698      5697      5700      5699      5697      5700
      5702      5701      5703      5702      5701      5704      5703      5701      5704
      5705      5711      5708      5706      5705      5707      5706      5705      5711
      5707      5705      5711      5708      5712      5713      5709      5708      5710
      5709      5708      5711      5709      5708      5712      5710      5708      5711
      5710      5708      5712      5711      5708      5712      5712      5713      5714
      5712      5713      5715      5712      5713      5716      5713      5716      5717
      5713      5716      5718      5713      5716      5724      5714      5713      5715
      5714      5713      5716      5715      5713      5716      5716      5718      5719
      5716      5724      5725      5716      5724      5726      5716      5724      5727
      5717      5716      5718      5717      5716      5724      5718      5716      5724
      5718      5719      5720      5718      5719      5721      5719      5721      5722
      5719      5721      5723      5719      5721      5733      5720      5719      5721
      5721      5733      5734      5721      5733      5735      5721      5733      5736
      5722      5721      5723      5722      5721      5733      5723      5721      5733
      5724      5727      5728      5725      5724      5726      5725      5724      5727
      5726      5724      5727      5727      5728      5729      5727      5728      5730
      5728      5730      5731      5728      5730      5732      5728      5730      5780
      5729      5728      5730      5730      5780      5781      5730      5780      5782
      5730      5780      5783      5731      5730      5732      5731      5730      5780
      5732      5730      5780      5733      5736      5737      5733      5736      5738
      5733      5736      5739      5734      5733      5735      5734      5733      5736
      5735      5733      5736      5736      5739      5740      5736      5739      5741
      5736      5739      5742      5737      5736      5738      5737      5736      5739
      5738      5736      5739      5739      5742      5743      5739      5742      5744
      5739      5742      5745      5740      5739      5741      5740      5739      5742
      5741      5739      5742      5742      5745      5746      5742      5745      5747
      5742      5745      5748      5743      5742      5744      5743      5742      5745
      5744      5742      5745      5745      5748      5749      5745      5748      5750
      5745      5748      5751      5746      5745      5747      5746      5745      5748
      5747      5745      5748      5748      5751      5752      5748      5751      5753
      5749      5748      5750      5749      5748      5751      5750      5748      5751
      5751      5753      5754      5751      5753      5755      5752      5751      5753
      5753      5755      5756      5753      5755      5757      5753      5755      5758
      5754      5753      5755      5755      5758      5759      5755      5758      5760
      5755      5758      5761      5756      5755      5757      5756      5755      5758
      5757      5755      5758      5758      5761      5762      5758      5761      5763
      5758      5761      5764      5759      5758      5760      5759      5758      5761
      5760      5758      5761      5761      5764      5765      5761      5764      5766
      5761      5764      5767      5762      5761      5763      5762      5761      5764
      5763      5761      5764      5764      5767      5768      5764      5767      5769
      5764      5767      5770      5765      5764      5766      5765      5764      5767
      5766      5764      5767      5767      5770      5771      5767      5770      5772
      5767      5770      5773      5768      5767      5769      5768      5767      5770
      5769      5767      5770      5770      5773      5774      5770      5773      5775
      5770      5773      5776      5771      5770      5772      5771      5770      5773
      5772      5770      5773      5773      5776      5777      5773      5776      5778
      5773      5776      5779      5774      5773      5775      5774      5773      5776
      5775      5773      5776      5777      5776      5778      5777      5776      5779
      5778      5776      5779      5780      5783      5784      5780      5783      5785
      5780      5783      5786      5781      5780      5782      5781      5780      5783
      5782      5780      5783      5783      5786      5787      5783      5786      5788
      5783      5786      5789      5784      5783      5785      5784      5783      5786
      5785      5783      5786      5786      5789      5790      5786      5789      5791
      5786      5789      5792      5787      5786      5788      5787      5786      5789
      5788      5786      5789      5789      5792      5793      5789      5792      5794
      5789      5792      5795      5790      5789      5791      5790      5789      5792
      5791      5789      5792      5792      5795      5796      5792      5795      5797
      5792      5795      5798      5793      5792      5794      5793      5792      5795
      5794      5792      5795      5795      5798      5799      5795      5798      5800
      5795      5798      5801      5796      5795      5797      5796      5795      5798
      5797      5795      5798      5798      5801      5802      5798      5801      5803
      5798      5801      5804      5799      5798      5800      5799      5798      5801
      5800      5798      5801      5801      5804      5805      5801      5804      5806
      5801      5804      5807      5802      5801      5803      5802      5801      5804
      5803      5801      5804      5804      5807      5808      5804      5807      5809
      5804      5807      5810      5805      5804      5806      5805      5804      5807
      5806      5804      5807      5807      5810      5811      5807      5810      5812
      5807      5810      5813      5808      5807      5809      5808      5807      5810
      5809      5807      5810      5810      5813      5814      5810      5813      5815
      5810      5813      5816      5811      5810      5812      5811      5810      5813
      5812      5810      5813      5813      5816      5817      5813      5816      5818
      5813      5816      5819      5814      5813      5815      5814      5813      5816
      5815      5813      5816      5816      5819      5820      5816      5819      5821
      5816      5819      5822      5817      5816      5818      5817      5816      5819
      5818      5816      5819      5820      5819      5821      5820      5819      5822
      5821      5819      5822      5823      5824      5825      5823      5824      5826
      5823      5824      5839      5823      5827      5828      5823      5827      5829
      5823      5827      5830      5823      5831      5832      5823      5831      5833
      5823      5831      5834      5823      5835      5836      5823      5835      5837
      5823      5835      5838      5824      5823      5827      5824      5823      5831
      5824      5823      5835      5824      5839      5840      5824      5839      5841
      5824      5839      5845      5825      5824      5826      5825      5824      5839
      5826      5824      5839      5827      5823      5831      5827      5823      5835
      5828      5827      5829      5828      5827      5830      5829      5827      5830
      5831      5823      5835      5832      5831      5833      5832      5831      5834
      5833      5831      5834      5836      5835      5837      5836      5835      5838
      5837      5835      5838      5839      5845      5842      5840      5839      5841
      5840      5839      5845      5841      5839      5845      5842      5846      5847
      5843      5842      5844      5843      5842      5845      5843      5842      5846
      5844      5842      5845      5844      5842      5846      5845      5842      5846
      5846      5847      5848      5846      5847      5849      5846      5847      5850
      5847      5850      5851      5847      5850      5852      5847      5850      5858
      5848      5847      5849      5848      5847      5850      5849      5847      5850
      5850      5852      5853      5850      5858      5859      5850      5858      5860
      5850      5858      5861      5851      5850      5852      5851      5850      5858
      5852      5850      5858      5852      5853      5854      5852      5853      5855
      5853      5855      5856      5853      5855      5857      5853      5855      5867
      5854      5853      5855      5855      5867      5868      5855      5867      5869
      5855      5867      5870      5856      5855      5857      5856      5855      5867
      5857      5855      5867      5858      5861      5862      5859      5858      5860
      5859      5858      5861      5860      5858      5861      5861      5862      5863
      5861      5862      5864      5862      5864      5865      5862      5864      5866
      5862      5864      5914      5863      5862      5864      5864      5914      5915
      5864      5914      5916      5864      5914      5917      5865      5864      5866
      5865      5864      5914      5866      5864      5914      5867      5870      5871
      5867      5870      5872      5867      5870      5873      5868      5867      5869
      5868      5867      5870      5869      5867      5870      5870      5873      5874
      5870      5873      5875      5870      5873      5876      5871      5870      5872
      5871      5870      5873      5872      5870      5873      5873      5876      5877
      5873      5876      5878      5873      5876      5879      5874      5873      5875
      5874      5873      5876      5875      5873      5876      5876      5879      5880
      5876      5879      5881      5876      5879      5882      5877      5876      5878
      5877      5876      5879      5878      5876      5879      5879      5882      5883
      5879      5882      5884      5879      5882      5885      5880      5879      5881
      5880      5879      5882      5881      5879      5882      5882      5885      5886
      5882      5885      5887      5883      5882      5884      5883      5882      5885
      5884      5882      5885      5885      5887      5888      5885      5887      5889
      5886      5885      5887      5887      5889      5890      5887      5889      5891
      5887      5889      5892      5888      5887      5889      5889      5892      5893
      5889      5892      5894      5889      5892      5895      5890      5889      5891
      5890      5889      5892      5891      5889      5892      5892      5895      5896
      5892      5895      5897      5892      5895      5898      5893      5892      5894
      5893      5892      5895      5894      5892      5895      5895      5898      5899
      5895      5898      5900      5895      5898      5901      5896      5895      5897
      5896      5895      5898      5897      5895      5898      5898      5901      5902
      5898      5901      5903      5898      5901      5904      5899      5898      5900
      5899      5898      5901      5900      5898      5901      5901      5904      5905
      5901      5904      5906      5901      5904      5907      5902      5901      5903
      5902      5901      5904      5903      5901      5904      5904      5907      5908
      5904      5907      5909      5904      5907      5910      5905      5904      5906
      5905      5904      5907      5906      5904      5907      5907      5910      5911
      5907      5910      5912      5907      5910      5913      5908      5907      5909
      5908      5907      5910      5909      5907      5910      5911      5910      5912
      5911      5910      5913      5912      5910      5913      5914      5917      5918
      5914      5917      5919      5914      5917      5920      5915      5914      5916
      5915      5914      5917      5916      5914      5917      5917      5920      5921
      5917      5920      5922      5917      5920      5923      5918      5917      5919
      5918      5917      5920      5919      5917      5920      5920      5923      5924
      5920      5923      5925      5920      5923      5926      5921      5920      5922
      5921      5920      5923      5922      5920      5923      5923      5926      5927
      5923      5926      5928      5923      5926      5929      5924      5923      5925
      5924      5923      5926      5925      5923      5926      5926      5929      5930
      5926      5929      5931      5926      5929      5932      5927      5926      5928
      5927      5926      5929      5928      5926      5929      5929      5932      5933
      5929      5932      5934      5929      5932      5935      5930      5929      5931
      5930      5929      5932      5931      5929      5932      5932      5935      5936
      5932      5935      5937      5932      5935      5938      5933      5932      5934
      5933      5932      5935      5934      5932      5935      5935      5938      5939
      5935      5938      5940      5935      5938      5941      5936      5935      5937
      5936      5935      5938      5937      5935      5938      5938      5941      5942
      5938      5941      5943      5938      5941      5944      5939      5938      5940
      5939      5938      5941      5940      5938      5941      5941      5944      5945
      5941      5944      5946      5941      5944      5947      5942      5941      5943
      5942      5941      5944      5943      5941      5944      5944      5947      5948
      5944      5947      5949      5944      5947      5950      5945      5944      5946
      5945      5944      5947      5946      5944      5947      5947      5950      5951
      5947      5950      5952      5947      5950      5953      5948      5947      5949
      5948      5947      5950      5949      5947      5950      5950      5953      5954
      5950      5953      5955      5950      5953      5956      5951      5950      5952
      5951      5950      5953      5952      5950      5953      5954      5953      5955
      5954      5953      5956      5955      5953      5956      5957      5958      5959
      5957      5958      5960      5957      5958      5973      5957      5961      5962
      5957      5961      5963      5957      5961      5964      5957      5965      5966
      5957      5965      5967      5957      5965      5968      5957      5969      5970
      5957      5969      5971      5957      5969      5972      5958      5957      5961
      5958      5957      5965      5958      5957      5969      5958      5973      5974
      5958      5973      5975      5958      5973      5979      5959      5958      5960
      5959      5958      5973      5960      5958      5973      5961      5957      5965
      5961      5957      5969      5962      5961      5963      5962      5961      5964
      5963      5961      5964      5965      5957      5969      5966      5965      5967
      5966      5965      5968      5967      5965      5968      5970      5969      5971
      5970      5969      5972      5971      5969      5972      5973      5979      5976
      5974      5973      5975      5974      5973      5979      5975      5973      5979
      5976      5980      5981      5977      5976      5978      5977      5976      5979
      5977      5976      5980      5978      5976      5979      5978      5976      5980
      5979      5976      5980      5980      5981      5982      5980      5981      5983
      5980      5981      5984      5981      5984      5985      5981      5984      5986
      5981      5984      5992      5982      5981      5983      5982      5981      5984
      5983      5981      5984      5984      5986      5987      5984      5992      5993
      5984      5992      5994      5984      5992      5995      5985      5984      5986
      5985      5984      5992      5986      5984      5992      5986      5987      5988
      5986      5987      5989      5987      5989      5990      5987      5989      5991
      5987      5989      6001      5988      5987      5989      5989      6001      6002
      5989      6001      6003      5989      6001      6004      5990      5989      5991
      5990      5989      6001      5991      5989      6001      5992      5995      5996
      5993      5992      5994      5993      5992      5995      5994      5992      5995
      5995      5996      5997      5995      5996      5998      5996      5998      5999
      5996      5998      6000      5996      5998      6048      5997      5996      5998
      5998      6048      6049      5998      6048      6050      5998      6048      6051
      5999      5998      6000      5999      5998      6048      6000      5998      6048
      6001      6004      6005      6001      6004      6006      6001      6004      6007
      6002      6001      6003      6002      6001      6004      6003      6001      6004
      6004      6007      6008      6004      6007      6009      6004      6007      6010
      6005      6004      6006      6005      6004      6007      6006      6004      6007
      6007      6010      6011      6007      6010      6012      6007      6010      6013
      6008      6007      6009      6008      6007      6010      6009      6007      6010
      6010      6013      6014      6010      6013      6015      6010      6013      6016
      6011      6010      6012      6011      6010      6013      6012      6010      6013
      6013      6016      6017      6013      6016      6018      6013      6016      6019
      6014      6013      6015      6014      6013      6016      6015      6013      6016
      6016      6019      6020      6016      6019      6021      6017      6016      6018
      6017      6016      6019      6018      6016      6019      6019      6021      6022
      6019      6021      6023      6020      6019      6021      6021      6023      6024
      6021      6023      6025      6021      6023      6026      6022      6021      6023
      6023      6026      6027      6023      6026      6028      6023      6026      6029
      6024      6023      6025      6024      6023      6026      6025      6023      6026
      6026      6029      6030      6026      6029      6031      6026      6029      6032
      6027      6026      6028      6027      6026      6029      6028      6026      6029
      6029      6032      6033      6029      6032      6034      6029      6032      6035
      6030      6029      6031      6030      6029      6032      6031      6029      6032
      6032      6035      6036      6032      6035      6037      6032      6035      6038
      6033      6032      6034      6033      6032      6035      6034      6032      6035
      6035      6038      6039      6035      6038      6040      6035      6038      6041
      6036      6035      6037      6036      6035      6038      6037      6035      6038
      6038      6041      6042      6038      6041      6043      6038      6041      6044
      6039      6038      6040      6039      6038      6041      6040      6038      6041
      6041      6044      6045      6041      6044      6046      6041      6044      6047
      6042      6041      6043      6042      6041      6044      6043      6041      6044
      6045      6044      6046      6045      6044      6047      6046      6044      6047
      6048      6051      6052      6048      6051      6053      6048      6051      6054
      6049      6048      6050      6049      6048      6051      6050      6048      6051
      6051      6054      6055      6051      6054      6056      6051      6054      6057
      6052      6051      6053      6052      6051      6054      6053      6051      6054
      6054      6057      6058      6054      6057      6059      6054      6057      6060
      6055      6054      6056      6055      6054      6057      6056      6054      6057
      6057      6060      6061      6057      6060      6062      6057      6060      6063
      6058      6057      6059      6058      6057      6060      6059      6057      6060
      6060      6063      6064      6060      6063      6065      6060      6063      6066
      6061      6060      6062      6061      6060      6063      6062      6060      6063
      6063      6066      6067      6063      6066      6068      6063      6066      6069
      6064      6063      6065      6064      6063      6066      6065      6063      6066
      6066      6069      6070      6066      6069      6071      6066      6069      6072
      6067      6066      6068      6067      6066      6069      6068      6066      6069
      6069      6072      6073      6069      6072      6074      6069      6072      6075
      6070      6069      6071      6070      6069      6072      6071      6069      6072
      6072      6075      6076      6072      6075      6077      6072      6075      6078
      6073      6072      6074      6073      6072      6075      6074      6072      6075
      6075      6078      6079      6075      6078      6080      6075      6078      6081
      6076      6075      6077      6076      6075      6078      6077      6075      6078
      6078      6081      6082      6078      6081      6083      6078      6081      6084
      6079      6078      6080      6079      6078      6081      6080      6078      6081
      6081      6084      6085      6081      6084      6086      6081      6084      6087
      6082      6081      6083      6082      6081      6084      6083      6081      6084
      6084      6087      6088      6084      6087      6089      6084      6087      6090
      6085      6084      6086      6085      6084      6087      6086      6084      6087
      6088      6087      6089      6088      6087      6090      6089      6087      6090
      6091      6095      6096      6091      6095      6097      6091      6095      6098
      6092      6091      6093      6092      6091      6094      6092      6091      6095
      6093      6091      6094      6093      6091      6095      6094      6091      6095
      6095      6098      6099      6095      6098      6100      6095      6098      6105
      6096      6095      6097      6096      6095      6098      6097      6095      6098
      6098      6105      6101      6099      6098      6100      6099      6098      6105
      6100      6098      6105      6101      6104      6106      6102      6101      6103
      6102      6101      6104      6102      6101      6105      6103      6101      6104
      6103      6101      6105      6104      6101      6105      6104      6106      6107
      6104      6106      6108      6104      6106      6109      6106      6109      6110
      6106      6109      6111      6106      6109      6117      6107      6106      6108
      6107      6106      6109      6108      6106      6109      6109      6111      6112
      6109      6117      6118      6109      6117      6119      6109      6117      6120
      6110      6109      6111      6110      6109      6117      6111      6109      6117
      6111      6112      6113      6111      6112      6114      6112      6114      6115
      6112      6114      6116      6112      6114      6126      6113      6112      6114
      6114      6126      6127      6114      6126      6128      6114      6126      6129
      6115      6114      6116      6115      6114      6126      6116      6114      6126
      6117      6120      6121      6118      6117      6119      6118      6117      6120
      6119      6117      6120      6120      6121      6122      6120      6121      6123
      6121      6123      6124      6121      6123      6125      6121      6123      6173
      6122      6121      6123      6123      6173      6174      6123      6173      6175
      6123      6173      6176      6124      6123      6125      6124      6123      6173
      6125      6123      6173      6126      6129      6130      6126      6129      6131
      6126      6129      6132      6127      6126      6128      6127      6126      6129
      6128      6126      6129      6129      6132      6133      6129      6132      6134
      6129      6132      6135      6130      6129      6131      6130      6129      6132
      6131      6129      6132      6132      6135      6136      6132      6135      6137
      6132      6135      6138      6133      6132      6134      6133      6132      6135
      6134      6132      6135      6135      6138      6139      6135      6138      6140
      6135      6138      6141      6136      6135      6137      6136      6135      6138
      6137      6135      6138      6138      6141      6142      6138      6141      6143
      6138      6141      6144      6139      6138      6140      6139      6138      6141
      6140      6138      6141      6141      6144      6145      6141      6144      6146
      6142      6141      6143      6142      6141      6144      6143      6141      6144
      6144      6146      6147      6144      6146      6148      6145      6144      6146
      6146      6148      6149      6146      6148      6150      6146      6148      6151
      6147      6146      6148      6148      6151      6152      6148      6151      6153
      6148      6151      6154      6149      6148      6150      6149      6148      6151
      6150      6148      6151      6151      6154      6155      6151      6154      6156
      6151      6154      6157      6152      6151      6153      6152      6151      6154
      6153      6151      6154      6154      6157      6158      6154      6157      6159
      6154      6157      6160      6155      6154      6156      6155      6154      6157
      6156      6154      6157      6157      6160      6161      6157      6160      6162
      6157      6160      6163      6158      6157      6159      6158      6157      6160
      6159      6157      6160      6160      6163      6164      6160      6163      6165
      6160      6163      6166      6161      6160      6162      6161      6160      6163
      6162      6160      6163      6163      6166      6167      6163      6166      6168
      6163      6166      6169      6164      6163      6165      6164      6163      6166
      6165      6163      6166      6166      6169      6170      6166      6169      6171
      6166      6169      6172      6167      6166      6168      6167      6166      6169
      6168      6166      6169      6170      6169      6171      6170      6169      6172
      6171      6169      6172      6173      6176      6177      6173      6176      6178
      6173      6176      6179      6174      6173      6175      6174      6173      6176
      6175      6173      6176      6176      6179      6180      6176      6179      6181
      6176      6179      6182      6177      6176      6178      6177      6176      6179
      6178      6176      6179      6179      6182      6183      6179      6182      6184
      6179      6182      6185      6180      6179      6181      6180      6179      6182
      6181      6179      6182      6182      6185      6186      6182      6185      6187
      6182      6185      6188      6183      6182      6184      6183      6182      6185
      6184      6182      6185      6185      6188      6189      6185      6188      6190
      6185      6188      6191      6186      6185      6187      6186      6185      6188
      6187      6185      6188      6188      6191      6192      6188      6191      6193
      6188      6191      6194      6189      6188      6190      6189      6188      6191
      6190      6188      6191      6191      6194      6195      6191      6194      6196
      6191      6194      6197      6192      6191      6193      6192      6191      6194
      6193      6191      6194      6194      6197      6198      6194      6197      6199
      6194      6197      6200      6195      6194      6196      6195      6194      6197
      6196      6194      6197      6197      6200      6201      6197      6200      6202
      6197      6200      6203      6198      6197      6199      6198      6197      6200
      6199      6197      6200      6200      6203      6204      6200      6203      6205
      6200      6203      6206      6201      6200      6202      6201      6200      6203
      6202      6200      6203      6203      6206      6207      6203      6206      6208
      6203      6206      6209      6204      6203      6205      6204      6203      6206
      6205      6203      6206      6206      6209      6210      6206      6209      6211
      6206      6209      6212      6207      6206      6208      6207      6206      6209
      6208      6206      6209      6209      6212      6213      6209      6212      6214
      6209      6212      6215      6210      6209      6211      6210      6209      6212
      6211      6209      6212      6213      6212      6214      6213      6212      6215
      6214      6212      6215      6216      6220      6221      6216      6220      6222
      6216      6220      6223      6217      6216      6218      6217      6216      6219
      6217      6216      6220      6218      6216      6219      6218      6216      6220
      6219      6216      6220      6220      6223      6224      6220      6223      6225
      6220      6223      6230      6221      6220      6222      6221      6220      6223
      6222      6220      6223      6223      6230      6226      6224      6223      6225
      6224      6223      6230      6225      6223      6230      6226      6229      6231
      6227      6226      6228      6227      6226      6229      6227      6226      6230
      6228      6226      6229      6228      6226      6230      6229      6226      6230
      6229      6231      6232      6229      6231      6233      6229      6231      6234
      6231      6234      6235      6231      6234      6236      6231      6234      6242
      6232      6231      6233      6232      6231      6234      6233      6231      6234
      6234      6236      6237      6234      6242      6243      6234      6242      6244
      6234      6242      6245      6235      6234      6236      6235      6234      6242
      6236      6234      6242      6236      6237      6238      6236      6237      6239
      6237      6239      6240      6237      6239      6241      6237      6239      6251
      6238      6237      6239      6239      6251      6252      6239      6251      6253
      6239      6251      6254      6240      6239      6241      6240      6239      6251
      6241      6239      6251      6242      6245      6246      6243      6242      6244
      6243      6242      6245      6244      6242      6245      6245      6246      6247
      6245      6246      6248      6246      6248      6249      6246      6248      6250
      6246      6248      6298      6247      6246      6248      6248      6298      6299
      6248      6298      6300      6248      6298      6301      6249      6248      6250
      6249      6248      6298      6250      6248      6298      6251      6254      6255
      6251      6254      6256      6251      6254      6257      6252      6251      6253
      6252      6251      6254      6253      6251      6254      6254      6257      6258
      6254      6257      6259      6254      6257      6260      6255      6254      6256
      6255      6254      6257      6256      6254      6257      6257      6260      6261
      6257      6260      6262      6257      6260      6263      6258      6257      6259
      6258      6257      6260      6259      6257      6260      6260      6263      6264
      6260      6263      6265      6260      6263      6266      6261      6260      6262
      6261      6260      6263      6262      6260      6263      6263      6266      6267
      6263      6266      6268      6263      6266      6269      6264      6263      6265
      6264      6263      6266      6265      6263      6266      6266      6269      6270
      6266      6269      6271      6267      6266      6268      6267      6266      6269
      6268      6266      6269      6269      6271      6272      6269      6271      6273
      6270      6269      6271      6271      6273      6274      6271      6273      6275
      6271      6273      6276      6272      6271      6273      6273      6276      6277
      6273      6276      6278      6273      6276      6279      6274      6273      6275
      6274      6273      6276      6275      6273      6276      6276      6279      6280
      6276      6279      6281      6276      6279      6282      6277      6276      6278
      6277      6276      6279      6278      6276      6279      6279      6282      6283
      6279      6282      6284      6279      6282      6285      6280      6279      6281
      6280      6279      6282      6281      6279      6282      6282      6285      6286
      6282      6285      6287      6282      6285      6288      6283      6282      6284
      6283      6282      6285      6284      6282      6285      6285      6288      6289
      6285      6288      6290      6285      6288      6291      6286      6285      6287
      6286      6285      6288      6287      6285      6288      6288      6291      6292
      6288      6291      6293      6288      6291      6294      6289      6288      6290
      6289      6288      6291      6290      6288      6291      6291      6294      6295
      6291      6294      6296      6291      6294      6297      6292      6291      6293
      6292      6291      6294      6293      6291      6294      6295      6294      6296
      6295      6294      6297      6296      6294      6297      6298      6301      6302
      6298      6301      6303      6298      6301      6304      6299      6298      6300
      6299      6298      6301      6300      6298      6301      6301      6304      6305
      6301      6304      6306      6301      6304      6307      6302      6301      6303
      6302      6301      6304      6303      6301      6304      6304      6307      6308
      6304      6307      6309      6304      6307      6310      6305      6304      6306
      6305      6304      6307      6306      6304      6307      6307      6310      6311
      6307      6310      6312      6307      6310      6313      6308      6307      6309
      6308      6307      6310      6309      6307      6310      6310      6313      6314
      6310      6313      6315      6310      6313      6316      6311      6310      6312
      6311      6310      6313      6312      6310      6313      6313      6316      6317
      6313      6316      6318      6313      6316      6319      6314      6313      6315
      6314      6313      6316      6315      6313      6316      6316      6319      6320
      6316      6319      6321      6316      6319      6322      6317      6316      6318
      6317      6316      6319      6318      6316      6319      6319      6322      6323
      6319      6322      6324      6319      6322      6325      6320      6319      6321
      6320      6319      6322      6321      6319      6322      6322      6325      6326
      6322      6325      6327      6322      6325      6328      6323      6322      6324
      6323      6322      6325      6324      6322      6325      6325      6328      6329
      6325      6328      6330      6325      6328      6331      6326      6325      6327
      6326      6325      6328      6327      6325      6328      6328      6331      6332
      6328      6331      6333      6328      6331      6334      6329      6328      6330
      6329      6328      6331      6330      6328      6331      6331      6334      6335
      6331      6334      6336      6331      6334      6337      6332      6331      6333
      6332      6331      6334      6333      6331      6334      6334      6337      6338
      6334      6337      6339      6334      6337      6340      6335      6334      6336
      6335      6334      6337      6336      6334      6337      6338      6337      6339
      6338      6337      6340      6339      6337      6340      6341      6345      6346
      6341      6345      6347      6341      6345      6348      6342      6341      6343
      6342      6341      6344      6342      6341      6345      6343      6341      6344
      6343      6341      6345      6344      6341      6345      6345      6348      6349
      6345      6348      6350      6345      6348      6355      6346      6345      6347
      6346      6345      6348      6347      6345      6348      6348      6355      6351
      6349      6348      6350      6349      6348      6355      6350      6348      6355
      6351      6354      6356      6352      6351      6353      6352      6351      6354
      6352      6351      6355      6353      6351      6354      6353      6351      6355
      6354      6351      6355      6354      6356      6357      6354      6356      6358
      6354      6356      6359      6356      6359      6360      6356      6359      6361
      6356      6359      6367      6357      6356      6358      6357      6356      6359
      6358      6356      6359      6359      6361      6362      6359      6367      6368
      6359      6367      6369      6359      6367      6370      6360      6359      6361
      6360      6359      6367      6361      6359      6367      6361      6362      6363
      6361      6362      6364      6362      6364      6365      6362      6364      6366
      6362      6364      6376      6363      6362      6364      6364      6376      6377
      6364      6376      6378      6364      6376      6379      6365      6364      6366
      6365      6364      6376      6366      6364      6376      6367      6370      6371
      6368      6367      6369      6368      6367      6370      6369      6367      6370
      6370      6371      6372      6370      6371      6373      6371      6373      6374
      6371      6373      6375      6371      6373      6423      6372      6371      6373
      6373      6423      6424      6373      6423      6425      6373      6423      6426
      6374      6373      6375      6374      6373      6423      6375      6373      6423
      6376      6379      6380      6376      6379      6381      6376      6379      6382
      6377      6376      6378      6377      6376      6379      6378      6376      6379
      6379      6382      6383      6379      6382      6384      6379      6382      6385
      6380      6379      6381      6380      6379      6382      6381      6379      6382
      6382      6385      6386      6382      6385      6387      6382      6385      6388
      6383      6382      6384      6383      6382      6385      6384      6382      6385
      6385      6388      6389      6385      6388      6390      6385      6388      6391
      6386      6385      6387      6386      6385      6388      6387      6385      6388
      6388      6391      6392      6388      6391      6393      6388      6391      6394
      6389      6388      6390      6389      6388      6391      6390      6388      6391
      6391      6394      6395      6391      6394      6396      6392      6391      6393
      6392      6391      6394      6393      6391      6394      6394      6396      6397
      6394      6396      6398      6395      6394      6396      6396      6398      6399
      6396      6398      6400      6396      6398      6401      6397      6396      6398
      6398      6401      6402      6398      6401      6403      6398      6401      6404
      6399      6398      6400      6399      6398      6401      6400      6398      6401
      6401      6404      6405      6401      6404      6406      6401      6404      6407
      6402      6401      6403      6402      6401      6404      6403      6401      6404
      6404      6407      6408      6404      6407      6409      6404      6407      6410
      6405      6404      6406      6405      6404      6407      6406      6404      6407
      6407      6410      6411      6407      6410      6412      6407      6410      6413
      6408      6407      6409      6408      6407      6410      6409      6407      6410
      6410      6413      6414      6410      6413      6415      6410      6413      6416
      6411      6410      6412      6411      6410      6413      6412      6410      6413
      6413      6416      6417      6413      6416      6418      6413      6416      6419
      6414      6413      6415      6414      6413      6416      6415      6413      6416
      6416      6419      6420      6416      6419      6421      6416      6419      6422
      6417      6416      6418      6417      6416      6419      6418      6416      6419
      6420      6419      6421      6420      6419      6422      6421      6419      6422
      6423      6426      6427      6423      6426      6428      6423      6426      6429
      6424      6423      6425      6424      6423      6426      6425      6423      6426
      6426      6429      6430      6426      6429      6431      6426      6429      6432
      6427      6426      6428      6427      6426      6429      6428      6426      6429
      6429      6432      6433      6429      6432      6434      6429      6432      6435
      6430      6429      6431      6430      6429      6432      6431      6429      6432
      6432      6435      6436      6432      6435      6437      6432      6435      6438
      6433      6432      6434      6433      6432      6435      6434      6432      6435
      6435      6438      6439      6435      6438      6440      6435      6438      6441
      6436      6435      6437      6436      6435      6438      6437      6435      6438
      6438      6441      6442      6438      6441      6443      6438      6441      6444
      6439      6438      6440      6439      6438      6441      6440      6438      6441
      6441      6444      6445      6441      6444      6446      6441      6444      6447
      6442      6441      6443      6442      6441      6444      6443      6441      6444
      6444      6447      6448      6444      6447      6449      6444      6447      6450
      6445      6444      6446      6445      6444      6447      6446      6444      6447
      6447      6450      6451      6447      6450      6452      6447      6450      6453
      6448      6447      6449      6448      6447      6450      6449      6447      6450
      6450      6453      6454      6450      6453      6455      6450      6453      6456
      6451      6450      6452      6451      6450      6453      6452      6450      6453
      6453      6456      6457      6453      6456      6458      6453      6456      6459
      6454      6453      6455      6454      6453      6456      6455      6453      6456
      6456      6459      6460      6456      6459      6461      6456      6459      6462
      6457      6456      6458      6457      6456      6459      6458      6456      6459
      6459      6462      6463      6459      6462      6464      6459      6462      6465
      6460      6459      6461      6460      6459      6462      6461      6459      6462
      6463      6462      6464      6463      6462      6465      6464      6462      6465
      6466      6467      6468      6466      6467      6469      6466      6467      6482
      6466      6470      6471      6466      6470      6472      6466      6470      6473
      6466      6474      6475      6466      6474      6476      6466      6474      6477
      6466      6478      6479      6466      6478      6480      6466      6478      6481
      6467      6466      6470      6467      6466      6474      6467      6466      6478
      6467      6482      6483      6467      6482      6484      6467      6482      6488
      6468      6467      6469      6468      6467      6482      6469      6467      6482
      6470      6466      6474      6470      6466      6478      6471      6470      6472
      6471      6470      6473      6472      6470      6473      6474      6466      6478
      6475      6474      6476      6475      6474      6477      6476      6474      6477
      6479      6478      6480      6479      6478      6481      6480      6478      6481
      6482      6488      6485      6483      6482      6484      6483      6482      6488
      6484      6482      6488      6485      6489      6490      6486      6485      6487
      6486      6485      6488      6486      6485      6489      6487      6485      6488
      6487      6485      6489      6488      6485      6489      6489      6490      6491
      6489      6490      6492      6489      6490      6493      6490      6493      6494
      6490      6493      6495      6490      6493      6501      6491      6490      6492
      6491      6490      6493      6492      6490      6493      6493      6495      6496
      6493      6501      6502      6493      6501      6503      6493      6501      6504
      6494      6493      6495      6494      6493      6501      6495      6493      6501
      6495      6496      6497      6495      6496      6498      6496      6498      6499
      6496      6498      6500      6496      6498      6510      6497      6496      6498
      6498      6510      6511      6498      6510      6512      6498      6510      6513
      6499      6498      6500      6499      6498      6510      6500      6498      6510
      6501      6504      6505      6502      6501      6503      6502      6501      6504
      6503      6501      6504      6504      6505      6506      6504      6505      6507
      6505      6507      6508      6505      6507      6509      6505      6507      6557
      6506      6505      6507      6507      6557      6558      6507      6557      6559
      6507      6557      6560      6508      6507      6509      6508      6507      6557
      6509      6507      6557      6510      6513      6514      6510      6513      6515
      6510      6513      6516      6511      6510      6512      6511      6510      6513
      6512      6510      6513      6513      6516      6517      6513      6516      6518
      6513      6516      6519      6514      6513      6515      6514      6513      6516
      6515      6513      6516      6516      6519      6520      6516      6519      6521
      6516      6519      6522      6517      6516      6518      6517      6516      6519
      6518      6516      6519      6519      6522      6523      6519      6522      6524
      6519      6522      6525      6520      6519      6521      6520      6519      6522
      6521      6519      6522      6522      6525      6526      6522      6525      6527
      6522      6525      6528      6523      6522      6524      6523      6522      6525
      6524      6522      6525      6525      6528      6529      6525      6528      6530
      6526      6525      6527      6526      6525      6528      6527      6525      6528
      6528      6530      6531      6528      6530      6532      6529      6528      6530
      6530      6532      6533      6530      6532      6534      6530      6532      6535
      6531      6530      6532      6532      6535      6536      6532      6535      6537
      6532      6535      6538      6533      6532      6534      6533      6532      6535
      6534      6532      6535      6535      6538      6539      6535      6538      6540
      6535      6538      6541      6536      6535      6537      6536      6535      6538
      6537      6535      6538      6538      6541      6542      6538      6541      6543
      6538      6541      6544      6539      6538      6540      6539      6538      6541
      6540      6538      6541      6541      6544      6545      6541      6544      6546
      6541      6544      6547      6542      6541      6543      6542      6541      6544
      6543      6541      6544      6544      6547      6548      6544      6547      6549
      6544      6547      6550      6545      6544      6546      6545      6544      6547
      6546      6544      6547      6547      6550      6551      6547      6550      6552
      6547      6550      6553      6548      6547      6549      6548      6547      6550
      6549      6547      6550      6550      6553      6554      6550      6553      6555
      6550      6553      6556      6551      6550      6552      6551      6550      6553
      6552      6550      6553      6554      6553      6555      6554      6553      6556
      6555      6553      6556      6557      6560      6561      6557      6560      6562
      6557      6560      6563      6558      6557      6559      6558      6557      6560
      6559      6557      6560      6560      6563      6564      6560      6563      6565
      6560      6563      6566      6561      6560      6562      6561      6560      6563
      6562      6560      6563      6563      6566      6567      6563      6566      6568
      6563      6566      6569      6564      6563      6565      6564      6563      6566
      6565      6563      6566      6566      6569      6570      6566      6569      6571
      6566      6569      6572      6567      6566      6568      6567      6566      6569
      6568      6566      6569      6569      6572      6573      6569      6572      6574
      6569      6572      6575      6570      6569      6571      6570      6569      6572
      6571      6569      6572      6572      6575      6576      6572      6575      6577
      6572      6575      6578      6573      6572      6574      6573      6572      6575
      6574      6572      6575      6575      6578      6579      6575      6578      6580
      6575      6578      6581      6576      6575      6577      6576      6575      6578
      6577      6575      6578      6578      6581      6582      6578      6581      6583
      6578      6581      6584      6579      6578      6580      6579      6578      6581
      6580      6578      6581      6581      6584      6585      6581      6584      6586
      6581      6584      6587      6582      6581      6583      6582      6581      6584
      6583      6581      6584      6584      6587      6588      6584      6587      6589
      6584      6587      6590      6585      6584      6586      6585      6584      6587
      6586      6584      6587      6587      6590      6591      6587      6590      6592
      6587      6590      6593      6588      6587      6589      6588      6587      6590
      6589      6587      6590      6590      6593      6594      6590      6593      6595
      6590      6593      6596      6591      6590      6592      6591      6590      6593
      6592      6590      6593      6593      6596      6597      6593      6596      6598
      6593      6596      6599      6594      6593      6595      6594      6593      6596
      6595      6593      6596      6597      6596      6598      6597      6596      6599
      6598      6596      6599      6600      6601      6602      6600      6601      6603
      6600      6601      6616      6600      6604      6605      6600      6604      6606
      6600      6604      6607      6600      6608      6609      6600      6608      6610
      6600      6608      6611      6600      6612      6613      6600      6612      6614
      6600      6612      6615      6601      6600      6604      6601      6600      6608
      6601      6600      6612      6601      6616      6617      6601      6616      6618
      6601      6616      6622      6602      6601      6603      6602      6601      6616
      6603      6601      6616      6604      6600      6608      6604      6600      6612
      6605      6604      6606      6605      6604      6607      6606      6604      6607
      6608      6600      6612      6609      6608      6610      6609      6608      6611
      6610      6608      6611      6613      6612      6614      6613      6612      6615
      6614      6612      6615      6616      6622      6619      6617      6616      6618
      6617      6616      6622      6618      6616      6622      6619      6623      6624
      6620      6619      6621      6620      6619      6622      6620      6619      6623
      6621      6619      6622      6621      6619      6623      6622      6619      6623
      6623      6624      6625      6623      6624      6626      6623      6624      6627
      6624      6627      6628      6624      6627      6629      6624      6627      6635
      6625      6624      6626      6625      6624      6627      6626      6624      6627
      6627      6629      6630      6627      6635      6636      6627      6635      6637
      6627      6635      6638      6628      6627      6629      6628      6627      6635
      6629      6627      6635      6629      6630      6631      6629      6630      6632
      6630      6632      6633      6630      6632      6634      6630      6632      6644
      6631      6630      6632      6632      6644      6645      6632      6644      6646
      6632      6644      6647      6633      6632      6634      6633      6632      6644
      6634      6632      6644      6635      6638      6639      6636      6635      6637
      6636      6635      6638      6637      6635      6638      6638      6639      6640
      6638      6639      6641      6639      6641      6642      6639      6641      6643
      6639      6641      6691      6640      6639      6641      6641      6691      6692
      6641      6691      6693      6641      6691      6694      6642      6641      6643
      6642      6641      6691      6643      6641      6691      6644      6647      6648
      6644      6647      6649      6644      6647      6650      6645      6644      6646
      6645      6644      6647      6646      6644      6647      6647      6650      6651
      6647      6650      6652      6647      6650      6653      6648      6647      6649
      6648      6647      6650      6649      6647      6650      6650      6653      6654
      6650      6653      6655      6650      6653      6656      6651      6650      6652
      6651      6650      6653      6652      6650      6653      6653      6656      6657
      6653      6656      6658      6653      6656      6659      6654      6653      6655
      6654      6653      6656      6655      6653      6656      6656      6659      6660
      6656      6659      6661      6656      6659      6662      6657      6656      6658
      6657      6656      6659      6658      6656      6659      6659      6662      6663
      6659      6662      6664      6660      6659      6661      6660      6659      6662
      6661      6659      6662      6662      6664      6665      6662      6664      6666
      6663      6662      6664      6664      6666      6667      6664      6666      6668
      6664      6666      6669      6665      6664      6666      6666      6669      6670
      6666      6669      6671      6666      6669      6672      6667      6666      6668
      6667      6666      6669      6668      6666      6669      6669      6672      6673
      6669      6672      6674      6669      6672      6675      6670      6669      6671
      6670      6669      6672      6671      6669      6672      6672      6675      6676
      6672      6675      6677      6672      6675      6678      6673      6672      6674
      6673      6672      6675      6674      6672      6675      6675      6678      6679
      6675      6678      6680      6675      6678      6681      6676      6675      6677
      6676      6675      6678      6677      6675      6678      6678      6681      6682
      6678      6681      6683      6678      6681      6684      6679      6678      6680
      6679      6678      6681      6680      6678      6681      6681      6684      6685
      6681      6684      6686      6681      6684      6687      6682      6681      6683
      6682      6681      6684      6683      6681      6684      6684      6687      6688
      6684      6687      6689      6684      6687      6690      6685      6684      6686
      6685      6684      6687      6686      6684      6687      6688      6687      6689
      6688      6687      6690      6689      6687      6690      6691      6694      6695
      6691      6694      6696      6691      6694      6697      6692      6691      6693
      6692      6691      6694      6693      6691      6694      6694      6697      6698
      6694      6697      6699      6694      6697      6700      6695      6694      6696
      6695      6694      6697      6696      6694      6697      6697      6700      6701
      6697      6700      6702      6697      6700      6703      6698      6697      6699
      6698      6697      6700      6699      6697      6700      6700      6703      6704
      6700      6703      6705      6700      6703      6706      6701      6700      6702
      6701      6700      6703      6702      6700      6703      6703      6706      6707
      6703      6706      6708      6703      6706      6709      6704      6703      6705
      6704      6703      6706      6705      6703      6706      6706      6709      6710
      6706      6709      6711      6706      6709      6712      6707      6706      6708
      6707      6706      6709      6708      6706      6709      6709      6712      6713
      6709      6712      6714      6709      6712      6715      6710      6709      6711
      6710      6709      6712      6711      6709      6712      6712      6715      6716
      6712      6715      6717      6712      6715      6718      6713      6712      6714
      6713      6712      6715      6714      6712      6715      6715      6718      6719
      6715      6718      6720      6715      6718      6721      6716      6715      6717
      6716      6715      6718      6717      6715      6718      6718      6721      6722
      6718      6721      6723      6718      6721      6724      6719      6718      6720
      6719      6718      6721      6720      6718      6721      6721      6724      6725
      6721      6724      6726      6721      6724      6727      6722      6721      6723
      6722      6721      6724      6723      6721      6724      6724      6727      6728
      6724      6727      6729      6724      6727      6730      6725      6724      6726
      6725      6724      6727      6726      6724      6727      6727      6730      6731
      6727      6730      6732      6727      6730      6733      6728      6727      6729
      6728      6727      6730      6729      6727      6730      6731      6730      6732
      6731      6730      6733      6732      6730      6733      6734      6738      6739
      6734      6738      6740      6734      6738      6741      6735      6734      6736
      6735      6734      6737      6735      6734      6738      6736      6734      6737
      6736      6734      6738      6737      6734      6738      6738      6741      6742
      6738      6741      6743      6738      6741      6748      6739      6738      6740
      6739      6738      6741      6740      6738      6741      6741      6748      6744
      6742      6741      6743      6742      6741      6748      6743      6741      6748
      6744      6747      6749      6745      6744      6746      6745      6744      6747
      6745      6744      6748      6746      6744      6747      6746      6744      6748
      6747      6744      6748      6747      6749      6750      6747      6749      6751
      6747      6749      6752      6749      6752      6753      6749      6752      6754
      6749      6752      6760      6750      6749      6751      6750      6749      6752
      6751      6749      6752      6752      6754      6755      6752      6760      6761
      6752      6760      6762      6752      6760      6763      6753      6752      6754
      6753      6752      6760      6754      6752      6760      6754      6755      6756
      6754      6755      6757      6755      6757      6758      6755      6757      6759
      6755      6757      6769      6756      6755      6757      6757      6769      6770
      6757      6769      6771      6757      6769      6772      6758      6757      6759
      6758      6757      6769      6759      6757      6769      6760      6763      6764
      6761      6760      6762      6761      6760      6763      6762      6760      6763
      6763      6764      6765      6763      6764      6766      6764      6766      6767
      6764      6766      6768      6764      6766      6816      6765      6764      6766
      6766      6816      6817      6766      6816      6818      6766      6816      6819
      6767      6766      6768      6767      6766      6816      6768      6766      6816
      6769      6772      6773      6769      6772      6774      6769      6772      6775
      6770      6769      6771      6770      6769      6772      6771      6769      6772
      6772      6775      6776      6772      6775      6777      6772      6775      6778
      6773      6772      6774      6773      6772      6775      6774      6772      6775
      6775      6778      6779      6775      6778      6780      6775      6778      6781
      6776      6775      6777      6776      6775      6778      6777      6775      6778
      6778      6781      6782      6778      6781      6783      6778      6781      6784
      6779      6778      6780      6779      6778      6781      6780      6778      6781
      6781      6784      6785      6781      6784      6786      6781      6784      6787
      6782      6781      6783      6782      6781      6784      6783      6781      6784
      6784      6787      6788      6784      6787      6789      6785      6784      6786
      6785      6784      6787      6786      6784      6787      6787      6789      6790
      6787      6789      6791      6788      6787      6789      6789      6791      6792
      6789      6791      6793      6789      6791      6794      6790      6789      6791
      6791      6794      6795      6791      6794      6796      6791      6794      6797
      6792      6791      6793      6792      6791      6794      6793      6791      6794
      6794      6797      6798      6794      6797      6799      6794      6797      6800
      6795      6794      6796      6795      6794      6797      6796      6794      6797
      6797      6800      6801      6797      6800      6802      6797      6800      6803
      6798      6797      6799      6798      6797      6800      6799      6797      6800
      6800      6803      6804      6800      6803      6805      6800      6803      6806
      6801      6800      6802      6801      6800      6803      6802      6800      6803
      6803      6806      6807      6803      6806      6808      6803      6806      6809
      6804      6803      6805      6804      6803      6806      6805      6803      6806
      6806      6809      6810      6806      6809      6811      6806      6809      6812
      6807      6806      6808      6807      6806      6809      6808      6806      6809
      6809      6812      6813      6809      6812      6814      6809      6812      6815
      6810      6809      6811      6810      6809      6812      6811      6809      6812
      6813      6812      6814      6813      6812      6815      6814      6812      6815
      6816      6819      6820      6816      6819      6821      6816      6819      6822
      6817      6816      6818      6817      6816      6819      6818      6816      6819
      6819      6822      6823      6819      6822      6824      6819      6822      6825
      6820      6819      6821      6820      6819      6822      6821      6819      6822
      6822      6825      6826      6822      6825      6827      6822      6825      6828
      6823      6822      6824      6823      6822      6825      6824      6822      6825
      6825      6828      6829      6825      6828      6830      6825      6828      6831
      6826      6825      6827      6826      6825      6828      6827      6825      6828
      6828      6831      6832      6828      6831      6833      6828      6831      6834
      6829      6828      6830      6829      6828      6831      6830      6828      6831
      6831      6834      6835      6831      6834      6836      6831      6834      6837
      6832      6831      6833      6832      6831      6834      6833      6831      6834
      6834      6837      6838      6834      6837      6839      6834      6837      6840
      6835      6834      6836      6835      6834      6837      6836      6834      6837
      6837      6840      6841      6837      6840      6842      6837      6840      6843
      6838      6837      6839      6838      6837      6840      6839      6837      6840
      6840      6843      6844      6840      6843      6845      6840      6843      6846
      6841      6840      6842      6841      6840      6843      6842      6840      6843
      6843      6846      6847      6843      6846      6848      6843      6846      6849
      6844      6843      6845      6844      6843      6846      6845      6843      6846
      6846      6849      6850      6846      6849      6851      6846      6849      6852
      6847      6846      6848      6847      6846      6849      6848      6846      6849
      6849      6852      6853      6849      6852      6854      6849      6852      6855
      6850      6849      6851      6850      6849      6852      6851      6849      6852
      6852      6855      6856      6852      6855      6857      6852      6855      6858
      6853      6852      6854      6853      6852      6855      6854      6852      6855
      6856      6855      6857      6856      6855      6858      6857      6855      6858
      6859      6863      6864      6859      6863      6865      6859      6863      6866
      6860      6859      6861      6860      6859      6862      6860      6859      6863
      6861      6859      6862      6861      6859      6863      6862      6859      6863
      6863      6866      6867      6863      6866      6868      6863      6866      6873
      6864      6863      6865      6864      6863      6866      6865      6863      6866
      6866      6873      6869      6867      6866      6868      6867      6866      6873
      6868      6866      6873      6869      6872      6874      6870      6869      6871
      6870      6869      6872      6870      6869      6873      6871      6869      6872
      6871      6869      6873      6872      6869      6873      6872      6874      6875
      6872      6874      6876      6872      6874      6877      6874      6877      6878
      6874      6877      6879      6874      6877      6885      6875      6874      6876
      6875      6874      6877      6876      6874      6877      6877      6879      6880
      6877      6885      6886      6877      6885      6887      6877      6885      6888
      6878      6877      6879      6878      6877      6885      6879      6877      6885
      6879      6880      6881      6879      6880      6882      6880      6882      6883
      6880      6882      6884      6880      6882      6894      6881      6880      6882
      6882      6894      6895      6882      6894      6896      6882      6894      6897
      6883      6882      6884      6883      6882      6894      6884      6882      6894
      6885      6888      6889      6886      6885      6887      6886      6885      6888
      6887      6885      6888      6888      6889      6890      6888      6889      6891
      6889      6891      6892      6889      6891      6893      6889      6891      6941
      6890      6889      6891      6891      6941      6942      6891      6941      6943
      6891      6941      6944      6892      6891      6893      6892      6891      6941
      6893      6891      6941      6894      6897      6898      6894      6897      6899
      6894      6897      6900      6895      6894      6896      6895      6894      6897
      6896      6894      6897      6897      6900      6901      6897      6900      6902
      6897      6900      6903      6898      6897      6899      6898      6897      6900
      6899      6897      6900      6900      6903      6904      6900      6903      6905
      6900      6903      6906      6901      6900      6902      6901      6900      6903
      6902      6900      6903      6903      6906      6907      6903      6906      6908
      6903      6906      6909      6904      6903      6905      6904      6903      6906
      6905      6903      6906      6906      6909      6910      6906      6909      6911
      6906      6909      6912      6907      6906      6908      6907      6906      6909
      6908      6906      6909      6909      6912      6913      6909      6912      6914
      6910      6909      6911      6910      6909      6912      6911      6909      6912
      6912      6914      6915      6912      6914      6916      6913      6912      6914
      6914      6916      6917      6914      6916      6918      6914      6916      6919
      6915      6914      6916      6916      6919      6920      6916      6919      6921
      6916      6919      6922      6917      6916      6918      6917      6916      6919
      6918      6916      6919      6919      6922      6923      6919      6922      6924
      6919      6922      6925      6920      6919      6921      6920      6919      6922
      6921      6919      6922      6922      6925      6926      6922      6925      6927
      6922      6925      6928      6923      6922      6924      6923      6922      6925
      6924      6922      6925      6925      6928      6929      6925      6928      6930
      6925      6928      6931      6926      6925      6927      6926      6925      6928
      6927      6925      6928      6928      6931      6932      6928      6931      6933
      6928      6931      6934      6929      6928      6930      6929      6928      6931
      6930      6928      6931      6931      6934      6935      6931      6934      6936
      6931      6934      6937      6932      6931      6933      6932      6931      6934
      6933      6931      6934      6934      6937      6938      6934      6937      6939
      6934      6937      6940      6935      6934      6936      6935      6934      6937
      6936      6934      6937      6938      6937      6939      6938      6937      6940
      6939      6937      6940      6941      6944      6945      6941      6944      6946
      6941      6944      6947      6942      6941      6943      6942      6941      6944
      6943      6941      6944      6944      6947      6948      6944      6947      6949
      6944      6947      6950      6945      6944      6946      6945      6944      6947
      6946      6944      6947      6947      6950      6951      6947      6950      6952
      6947      6950      6953      6948      6947      6949      6948      6947      6950
      6949      6947      6950      6950      6953      6954      6950      6953      6955
      6950      6953      6956      6951      6950      6952      6951      6950      6953
      6952      6950      6953      6953      6956      6957      6953      6956      6958
      6953      6956      6959      6954      6953      6955      6954      6953      6956
      6955      6953      6956      6956      6959      6960      6956      6959      6961
      6956      6959      6962      6957      6956      6958      6957      6956      6959
      6958      6956      6959      6959      6962      6963      6959      6962      6964
      6959      6962      6965      6960      6959      6961      6960      6959      6962
      6961      6959      6962      6962      6965      6966      6962      6965      6967
      6962      6965      6968      6963      6962      6964      6963      6962      6965
      6964      6962      6965      6965      6968      6969      6965      6968      6970
      6965      6968      6971      6966      6965      6967      6966      6965      6968
      6967      6965      6968      6968      6971      6972      6968      6971      6973
      6968      6971      6974      6969      6968      6970      6969      6968      6971
      6970      6968      6971      6971      6974      6975      6971      6974      6976
      6971      6974      6977      6972      6971      6973      6972      6971      6974
      6973      6971      6974      6974      6977      6978      6974      6977      6979
      6974      6977      6980      6975      6974      6976      6975      6974      6977
      6976      6974      6977      6977      6980      6981      6977      6980      6982
      6977      6980      6983      6978      6977      6979      6978      6977      6980
      6979      6977      6980      6981      6980      6982      6981      6980      6983
      6982      6980      6983      6984      6985      6986      6984      6985      6987
      6984      6985      7000      6984      6988      6989      6984      6988      6990
      6984      6988      6991      6984      6992      6993      6984      6992      6994
      6984      6992      6995      6984      6996      6997      6984      6996      6998
      6984      6996      6999      6985      6984      6988      6985      6984      6992
      6985      6984      6996      6985      7000      7001      6985      7000      7002
      6985      7000      7006      6986      6985      6987      6986      6985      7000
      6987      6985      7000      6988      6984      6992      6988      6984      6996
      6989      6988      6990      6989      6988      6991      6990      6988      6991
      6992      6984      6996      6993      6992      6994      6993      6992      6995
      6994      6992      6995      6997      6996      6998      6997      6996      6999
      6998      6996      6999      7000      7006      7003      7001      7000      7002
      7001      7000      7006      7002      7000      7006      7003      7007      7008
      7004      7003      7005      7004      7003      7006      7004      7003      7007
      7005      7003      7006      7005      7003      7007      7006      7003      7007
      7007      7008      7009      7007      7008      7010      7007      7008      7011
      7008      7011      7012      7008      7011      7013      7008      7011      7019
      7009      7008      7010      7009      7008      7011      7010      7008      7011
      7011      7013      7014      7011      7019      7020      7011      7019      7021
      7011      7019      7022      7012      7011      7013      7012      7011      7019
      7013      7011      7019      7013      7014      7015      7013      7014      7016
      7014      7016      7017      7014      7016      7018      7014      7016      7028
      7015      7014      7016      7016      7028      7029      7016      7028      7030
      7016      7028      7031      7017      7016      7018      7017      7016      7028
      7018      7016      7028      7019      7022      7023      7020      7019      7021
      7020      7019      7022      7021      7019      7022      7022      7023      7024
      7022      7023      7025      7023      7025      7026      7023      7025      7027
      7023      7025      7075      7024      7023      7025      7025      7075      7076
      7025      7075      7077      7025      7075      7078      7026      7025      7027
      7026      7025      7075      7027      7025      7075      7028      7031      7032
      7028      7031      7033      7028      7031      7034      7029      7028      7030
      7029      7028      7031      7030      7028      7031      7031      7034      7035
      7031      7034      7036      7031      7034      7037      7032      7031      7033
      7032      7031      7034      7033      7031      7034      7034      7037      7038
      7034      7037      7039      7034      7037      7040      7035      7034      7036
      7035      7034      7037      7036      7034      7037      7037      7040      7041
      7037      7040      7042      7037      7040      7043      7038      7037      7039
      7038      7037      7040      7039      7037      7040      7040      7043      7044
      7040      7043      7045      7040      7043      7046      7041      7040      7042
      7041      7040      7043      7042      7040      7043      7043      7046      7047
      7043      7046      7048      7044      7043      7045      7044      7043      7046
      7045      7043      7046      7046      7048      7049      7046      7048      7050
      7047      7046      7048      7048      7050      7051      7048      7050      7052
      7048      7050      7053      7049      7048      7050      7050      7053      7054
      7050      7053      7055      7050      7053      7056      7051      7050      7052
      7051      7050      7053      7052      7050      7053      7053      7056      7057
      7053      7056      7058      7053      7056      7059      7054      7053      7055
      7054      7053      7056      7055      7053      7056      7056      7059      7060
      7056      7059      7061      7056      7059      7062      7057      7056      7058
      7057      7056      7059      7058      7056      7059      7059      7062      7063
      7059      7062      7064      7059      7062      7065      7060      7059      7061
      7060      7059      7062      7061      7059      7062      7062      7065      7066
      7062      7065      7067      7062      7065      7068      7063      7062      7064
      7063      7062      7065      7064      7062      7065      7065      7068      7069
      7065      7068      7070      7065      7068      7071      7066      7065      7067
      7066      7065      7068      7067      7065      7068      7068      7071      7072
      7068      7071      7073      7068      7071      7074      7069      7068      7070
      7069      7068      7071      7070      7068      7071      7072      7071      7073
      7072      7071      7074      7073      7071      7074      7075      7078      7079
      7075      7078      7080      7075      7078      7081      7076      7075      7077
      7076      7075      7078      7077      7075      7078      7078      7081      7082
      7078      7081      7083      7078      7081      7084      7079      7078      7080
      7079      7078      7081      7080      7078      7081      7081      7084      7085
      7081      7084      7086      7081      7084      7087      7082      7081      7083
      7082      7081      7084      7083      7081      7084      7084      7087      7088
      7084      7087      7089      7084      7087      7090      7085      7084      7086
      7085      7084      7087      7086      7084      7087      7087      7090      7091
      7087      7090      7092      7087      7090      7093      7088      7087      7089
      7088      7087      7090      7089      7087      7090      7090      7093      7094
      7090      7093      7095      7090      7093      7096      7091      7090      7092
      7091      7090      7093      7092      7090      7093      7093      7096      7097
      7093      7096      7098      7093      7096      7099      7094      7093      7095
      7094      7093      7096      7095      7093      7096      7096      7099      7100
      7096      7099      7101      7096      7099      7102      7097      7096      7098
      7097      7096      7099      7098      7096      7099      7099      7102      7103
      7099      7102      7104      7099      7102      7105      7100      7099      7101
      7100      7099      7102      7101      7099      7102      7102      7105      7106
      7102      7105      7107      7102      7105      7108      7103      7102      7104
      7103      7102      7105      7104      7102      7105      7105      7108      7109
      7105      7108      7110      7105      7108      7111      7106      7105      7107
      7106      7105      7108      7107      7105      7108      7108      7111      7112
      7108      7111      7113      7108      7111      7114      7109      7108      7110
      7109      7108      7111      7110      7108      7111      7111      7114      7115
      7111      7114      7116      7111      7114      7117      7112      7111      7113
      7112      7111      7114      7113      7111      7114      7115      7114      7116
      7115      7114      7117      7116      7114      7117      7118      7122      7123
      7118      7122      7124      7118      7122      7125      7119      7118      7120
      7119      7118      7121      7119      7118      7122      7120      7118      7121
      7120      7118      7122      7121      7118      7122      7122      7125      7126
      7122      7125      7127      7122      7125      7132      7123      7122      7124
      7123      7122      7125      7124      7122      7125      7125      7132      7128
      7126      7125      7127      7126      7125      7132      7127      7125      7132
      7128      7131      7133      7129      7128      7130      7129      7128      7131
      7129      7128      7132      7130      7128      7131      7130      7128      7132
      7131      7128      7132      7131      7133      7134      7131      7133      7135
      7131      7133      7136      7133      7136      7137      7133      7136      7138
      7133      7136      7144      7134      7133      7135      7134      7133      7136
      7135      7133      7136      7136      7138      7139      7136      7144      7145
      7136      7144      7146      7136      7144      7147      7137      7136      7138
      7137      7136      7144      7138      7136      7144      7138      7139      7140
      7138      7139      7141      7139      7141      7142      7139      7141      7143
      7139      7141      7153      7140      7139      7141      7141      7153      7154
      7141      7153      7155      7141      7153      7156      7142      7141      7143
      7142      7141      7153      7143      7141      7153      7144      7147      7148
      7145      7144      7146      7145      7144      7147      7146      7144      7147
      7147      7148      7149      7147      7148      7150      7148      7150      7151
      7148      7150      7152      7148      7150      7200      7149      7148      7150
      7150      7200      7201      7150      7200      7202      7150      7200      7203
      7151      7150      7152      7151      7150      7200      7152      7150      7200
      7153      7156      7157      7153      7156      7158      7153      7156      7159
      7154      7153      7155      7154      7153      7156      7155      7153      7156
      7156      7159      7160      7156      7159      7161      7156      7159      7162
      7157      7156      7158      7157      7156      7159      7158      7156      7159
      7159      7162      7163      7159      7162      7164      7159      7162      7165
      7160      7159      7161      7160      7159      7162      7161      7159      7162
      7162      7165      7166      7162      7165      7167      7162      7165      7168
      7163      7162      7164      7163      7162      7165      7164      7162      7165
      7165      7168      7169      7165      7168      7170      7165      7168      7171
      7166      7165      7167      7166      7165      7168      7167      7165      7168
      7168      7171      7172      7168      7171      7173      7169      7168      7170
      7169      7168      7171      7170      7168      7171      7171      7173      7174
      7171      7173      7175      7172      7171      7173      7173      7175      7176
      7173      7175      7177      7173      7175      7178      7174      7173      7175
      7175      7178      7179      7175      7178      7180      7175      7178      7181
      7176      7175      7177      7176      7175      7178      7177      7175      7178
      7178      7181      7182      7178      7181      7183      7178      7181      7184
      7179      7178      7180      7179      7178      7181      7180      7178      7181
      7181      7184      7185      7181      7184      7186      7181      7184      7187
      7182      7181      7183      7182      7181      7184      7183      7181      7184
      7184      7187      7188      7184      7187      7189      7184      7187      7190
      7185      7184      7186      7185      7184      7187      7186      7184      7187
      7187      7190      7191      7187      7190      7192      7187      7190      7193
      7188      7187      7189      7188      7187      7190      7189      7187      7190
      7190      7193      7194      7190      7193      7195      7190      7193      7196
      7191      7190      7192      7191      7190      7193      7192      7190      7193
      7193      7196      7197      7193      7196      7198      7193      7196      7199
      7194      7193      7195      7194      7193      7196      7195      7193      7196
      7197      7196      7198      7197      7196      7199      7198      7196      7199
      7200      7203      7204      7200      7203      7205      7200      7203      7206
      7201      7200      7202      7201      7200      7203      7202      7200      7203
      7203      7206      7207      7203      7206      7208      7203      7206      7209
      7204      7203      7205      7204      7203      7206      7205      7203      7206
      7206      7209      7210      7206      7209      7211      7206      7209      7212
      7207      7206      7208      7207      7206      7209      7208      7206      7209
      7209      7212      7213      7209      7212      7214      7209      7212      7215
      7210      7209      7211      7210      7209      7212      7211      7209      7212
      7212      7215      7216      7212      7215      7217      7212      7215      7218
      7213      7212      7214      7213      7212      7215      7214      7212      7215
      7215      7218      7219      7215      7218      7220      7215      7218      7221
      7216      7215      7217      7216      7215      7218      7217      7215      7218
      7218      7221      7222      7218      7221      7223      7218      7221      7224
      7219      7218      7220      7219      7218      7221      7220      7218      7221
      7221      7224      7225      7221      7224      7226      7221      7224      7227
      7222      7221      7223      7222      7221      7224      7223      7221      7224
      7224      7227      7228      7224      7227      7229      7224      7227      7230
      7225      7224      7226      7225      7224      7227      7226      7224      7227
      7227      7230      7231      7227      7230      7232      7227      7230      7233
      7228      7227      7229      7228      7227      7230      7229      7227      7230
      7230      7233      7234      7230      7233      7235      7230      7233      7236
      7231      7230      7232      7231      7230      7233      7232      7230      7233
      7233      7236      7237      7233      7236      7238      7233      7236      7239
      7234      7233      7235      7234      7233      7236      7235      7233      7236
      7236      7239      7240      7236      7239      7241      7236      7239      7242
      7237      7236      7238      7237      7236      7239      7238      7236      7239
      7240      7239      7241      7240      7239      7242      7241      7239      7242
      7243      7244      7245      7243      7244      7246      7243      7244      7259
      7243      7247      7248      7243      7247      7249      7243      7247      7250
      7243      7251      7252      7243      7251      7253      7243      7251      7254
      7243      7255      7256      7243      7255      7257      7243      7255      7258
      7244      7243      7247      7244      7243      7251      7244      7243      7255
      7244      7259      7260      7244      7259      7261      7244      7259      7265
      7245      7244      7246      7245      7244      7259      7246      7244      7259
      7247      7243      7251      7247      7243      7255      7248      7247      7249
      7248      7247      7250      7249      7247      7250      7251      7243      7255
      7252      7251      7253      7252      7251      7254      7253      7251      7254
      7256      7255      7257      7256      7255      7258      7257      7255      7258
      7259      7265      7262      7260      7259      7261      7260      7259      7265
      7261      7259      7265      7262      7266      7267      7263      7262      7264
      7263      7262      7265      7263      7262      7266      7264      7262      7265
      7264      7262      7266      7265      7262      7266      7266      7267      7268
      7266      7267      7269      7266      7267      7270      7267      7270      7271
      7267      7270      7272      7267      7270      7278      7268      7267      7269
      7268      7267      7270      7269      7267      7270      7270      7272      7273
      7270      7278      7279      7270      7278      7280      7270      7278      7281
      7271      7270      7272      7271      7270      7278      7272      7270      7278
      7272      7273      7274      7272      7273      7275      7273      7275      7276
      7273      7275      7277      7273      7275      7287      7274      7273      7275
      7275      7287      7288      7275      7287      7289      7275      7287      7290
      7276      7275      7277      7276      7275      7287      7277      7275      7287
      7278      7281      7282      7279      7278      7280      7279      7278      7281
      7280      7278      7281      7281      7282      7283      7281      7282      7284
      7282      7284      7285      7282      7284      7286      7282      7284      7334
      7283      7282      7284      7284      7334      7335      7284      7334      7336
      7284      7334      7337      7285      7284      7286      7285      7284      7334
      7286      7284      7334      7287      7290      7291      7287      7290      7292
      7287      7290      7293      7288      7287      7289      7288      7287      7290
      7289      7287      7290      7290      7293      7294      7290      7293      7295
      7290      7293      7296      7291      7290      7292      7291      7290      7293
      7292      7290      7293      7293      7296      7297      7293      7296      7298
      7293      7296      7299      7294      7293      7295      7294      7293      7296
      7295      7293      7296      7296      7299      7300      7296      7299      7301
      7296      7299      7302      7297      7296      7298      7297      7296      7299
      7298      7296      7299      7299      7302      7303      7299      7302      7304
      7299      7302      7305      7300      7299      7301      7300      7299      7302
      7301      7299      7302      7302      7305      7306      7302      7305      7307
      7303      7302      7304      7303      7302      7305      7304      7302      7305
      7305      7307      7308      7305      7307      7309      7306      7305      7307
      7307      7309      7310      7307      7309      7311      7307      7309      7312
      7308      7307      7309      7309      7312      7313      7309      7312      7314
      7309      7312      7315      7310      7309      7311      7310      7309      7312
      7311      7309      7312      7312      7315      7316      7312      7315      7317
      7312      7315      7318      7313      7312      7314      7313      7312      7315
      7314      7312      7315      7315      7318      7319      7315      7318      7320
      7315      7318      7321      7316      7315      7317      7316      7315      7318
      7317      7315      7318      7318      7321      7322      7318      7321      7323
      7318      7321      7324      7319      7318      7320      7319      7318      7321
      7320      7318      7321      7321      7324      7325      7321      7324      7326
      7321      7324      7327      7322      7321      7323      7322      7321      7324
      7323      7321      7324      7324      7327      7328      7324      7327      7329
      7324      7327      7330      7325      7324      7326      7325      7324      7327
      7326      7324      7327      7327      7330      7331      7327      7330      7332
      7327      7330      7333      7328      7327      7329      7328      7327      7330
      7329      7327      7330      7331      7330      7332      7331      7330      7333
      7332      7330      7333      7334      7337      7338      7334      7337      7339
      7334      7337      7340      7335      7334      7336      7335      7334      7337
      7336      7334      7337      7337      7340      7341      7337      7340      7342
      7337      7340      7343      7338      7337      7339      7338      7337      7340
      7339      7337      7340      7340      7343      7344      7340      7343      7345
      7340      7343      7346      7341      7340      7342      7341      7340      7343
      7342      7340      7343      7343      7346      7347      7343      7346      7348
      7343      7346      7349      7344      7343      7345      7344      7343      7346
      7345      7343      7346      7346      7349      7350      7346      7349      7351
      7346      7349      7352      7347      7346      7348      7347      7346      7349
      7348      7346      7349      7349      7352      7353      7349      7352      7354
      7349      7352      7355      7350      7349      7351      7350      7349      7352
      7351      7349      7352      7352      7355      7356      7352      7355      7357
      7352      7355      7358      7353      7352      7354      7353      7352      7355
      7354      7352      7355      7355      7358      7359      7355      7358      7360
      7355      7358      7361      7356      7355      7357      7356      7355      7358
      7357      7355      7358      7358      7361      7362      7358      7361      7363
      7358      7361      7364      7359      7358      7360      7359      7358      7361
      7360      7358      7361      7361      7364      7365      7361      7364      7366
      7361      7364      7367      7362      7361      7363      7362      7361      7364
      7363      7361      7364      7364      7367      7368      7364      7367      7369
      7364      7367      7370      7365      7364      7366      7365      7364      7367
      7366      7364      7367      7367      7370      7371      7367      7370      7372
      7367      7370      7373      7368      7367      7369      7368      7367      7370
      7369      7367      7370      7370      7373      7374      7370      7373      7375
      7370      7373      7376      7371      7370      7372      7371      7370      7373
      7372      7370      7373      7374      7373      7375      7374      7373      7376
      7375      7373      7376      7377      7378      7379      7377      7378      7380
      7377      7378      7393      7377      7381      7382      7377      7381      7383
      7377      7381      7384      7377      7385      7386      7377      7385      7387
      7377      7385      7388      7377      7389      7390      7377      7389      7391
      7377      7389      7392      7378      7377      7381      7378      7377      7385
      7378      7377      7389      7378      7393      7394      7378      7393      7395
      7378      7393      7399      7379      7378      7380      7379      7378      7393
      7380      7378      7393      7381      7377      7385      7381      7377      7389
      7382      7381      7383      7382      7381      7384      7383      7381      7384
      7385      7377      7389      7386      7385      7387      7386      7385      7388
      7387      7385      7388      7390      7389      7391      7390      7389      7392
      7391      7389      7392      7393      7399      7396      7394      7393      7395
      7394      7393      7399      7395      7393      7399      7396      7400      7401
      7397      7396      7398      7397      7396      7399      7397      7396      7400
      7398      7396      7399      7398      7396      7400      7399      7396      7400
      7400      7401      7402      7400      7401      7403      7400      7401      7404
      7401      7404      7405      7401      7404      7406      7401      7404      7412
      7402      7401      7403      7402      7401      7404      7403      7401      7404
      7404      7406      7407      7404      7412      7413      7404      7412      7414
      7404      7412      7415      7405      7404      7406      7405      7404      7412
      7406      7404      7412      7406      7407      7408      7406      7407      7409
      7407      7409      7410      7407      7409      7411      7407      7409      7421
      7408      7407      7409      7409      7421      7422      7409      7421      7423
      7409      7421      7424      7410      7409      7411      7410      7409      7421
      7411      7409      7421      7412      7415      7416      7413      7412      7414
      7413      7412      7415      7414      7412      7415      7415      7416      7417
      7415      7416      7418      7416      7418      7419      7416      7418      7420
      7416      7418      7468      7417      7416      7418      7418      7468      7469
      7418      7468      7470      7418      7468      7471      7419      7418      7420
      7419      7418      7468      7420      7418      7468      7421      7424      7425
      7421      7424      7426      7421      7424      7427      7422      7421      7423
      7422      7421      7424      7423      7421      7424      7424      7427      7428
      7424      7427      7429      7424      7427      7430      7425      7424      7426
      7425      7424      7427      7426      7424      7427      7427      7430      7431
      7427      7430      7432      7427      7430      7433      7428      7427      7429
      7428      7427      7430      7429      7427      7430      7430      7433      7434
      7430      7433      7435      7430      7433      7436      7431      7430      7432
      7431      7430      7433      7432      7430      7433      7433      7436      7437
      7433      7436      7438      7433      7436      7439      7434      7433      7435
      7434      7433      7436      7435      7433      7436      7436      7439      7440
      7436      7439      7441      7437      7436      7438      7437      7436      7439
      7438      7436      7439      7439      7441      7442      7439      7441      7443
      7440      7439      7441      7441      7443      7444      7441      7443      7445
      7441      7443      7446      7442      7441      7443      7443      7446      7447
      7443      7446      7448      7443      7446      7449      7444      7443      7445
      7444      7443      7446      7445      7443      7446      7446      7449      7450
      7446      7449      7451      7446      7449      7452      7447      7446      7448
      7447      7446      7449      7448      7446      7449      7449      7452      7453
      7449      7452      7454      7449      7452      7455      7450      7449      7451
      7450      7449      7452      7451      7449      7452      7452      7455      7456
      7452      7455      7457      7452      7455      7458      7453      7452      7454
      7453      7452      7455      7454      7452      7455      7455      7458      7459
      7455      7458      7460      7455      7458      7461      7456      7455      7457
      7456      7455      7458      7457      7455      7458      7458      7461      7462
      7458      7461      7463      7458      7461      7464      7459      7458      7460
      7459      7458      7461      7460      7458      7461      7461      7464      7465
      7461      7464      7466      7461      7464      7467      7462      7461      7463
      7462      7461      7464      7463      7461      7464      7465      7464      7466
      7465      7464      7467      7466      7464      7467      7468      7471      7472
      7468      7471      7473      7468      7471      7474      7469      7468      7470
      7469      7468      7471      7470      7468      7471      7471      7474      7475
      7471      7474      7476      7471      7474      7477      7472      7471      7473
      7472      7471      7474      7473      7471      7474      7474      7477      7478
      7474      7477      7479      7474      7477      7480      7475      7474      7476
      7475      7474      7477      7476      7474      7477      7477      7480      7481
      7477      7480      7482      7477      7480      7483      7478      7477      7479
      7478      7477      7480      7479      7477      7480      7480      7483      7484
      7480      7483      7485      7480      7483      7486      7481      7480      7482
      7481      7480      7483      7482      7480      7483      7483      7486      7487
      7483      7486      7488      7483      7486      7489      7484      7483      7485
      7484      7483      7486      7485      7483      7486      7486      7489      7490
      7486      7489      7491      7486      7489      7492      7487      7486      7488
      7487      7486      7489      7488      7486      7489      7489      7492      7493
      7489      7492      7494      7489      7492      7495      7490      7489      7491
      7490      7489      7492      7491      7489      7492      7492      7495      7496
      7492      7495      7497      7492      7495      7498      7493      7492      7494
      7493      7492      7495      7494      7492      7495      7495      7498      7499
      7495      7498      7500      7495      7498      7501      7496      7495      7497
      7496      7495      7498      7497      7495      7498      7498      7501      7502
      7498      7501      7503      7498      7501      7504      7499      7498      7500
      7499      7498      7501      7500      7498      7501      7501      7504      7505
      7501      7504      7506      7501      7504      7507      7502      7501      7503
      7502      7501      7504      7503      7501      7504      7504      7507      7508
      7504      7507      7509      7504      7507      7510      7505      7504      7506
      7505      7504      7507      7506      7504      7507      7508      7507      7509
      7508      7507      7510      7509      7507      7510      7511      7512      7513
      7511      7512      7514      7511      7512      7527      7511      7515      7516
      7511      7515      7517      7511      7515      7518      7511      7519      7520
      7511      7519      7521      7511      7519      7522      7511      7523      7524
      7511      7523      7525      7511      7523      7526      7512      7511      7515
      7512      7511      7519      7512      7511      7523      7512      7527      7528
      7512      7527      7529      7512      7527      7533      7513      7512      7514
      7513      7512      7527      7514      7512      7527      7515      7511      7519
      7515      7511      7523      7516      7515      7517      7516      7515      7518
      7517      7515      7518      7519      7511      7523      7520      7519      7521
      7520      7519      7522      7521      7519      7522      7524      7523      7525
      7524      7523      7526      7525      7523      7526      7527      7533      7530
      7528      7527      7529      7528      7527      7533      7529      7527      7533
      7530      7534      7535      7531      7530      7532      7531      7530      7533
      7531      7530      7534      7532      7530      7533      7532      7530      7534
      7533      7530      7534      7534      7535      7536      7534      7535      7537
      7534      7535      7538      7535      7538      7539      7535      7538      7540
      7535      7538      7546      7536      7535      7537      7536      7535      7538
      7537      7535      7538      7538      7540      7541      7538      7546      7547
      7538      7546      7548      7538      7546      7549      7539      7538      7540
      7539      7538      7546      7540      7538      7546      7540      7541      7542
      7540      7541      7543      7541      7543      7544      7541      7543      7545
      7541      7543      7555      7542      7541      7543      7543      7555      7556
      7543      7555      7557      7543      7555      7558      7544      7543      7545
      7544      7543      7555      7545      7543      7555      7546      7549      7550
      7547      7546      7548      7547      7546      7549      7548      7546      7549
      7549      7550      7551      7549      7550      7552      7550      7552      7553
      7550      7552      7554      7550      7552      7602      7551      7550      7552
      7552      7602      7603      7552      7602      7604      7552      7602      7605
      7553      7552      7554      7553      7552      7602      7554      7552      7602
      7555      7558      7559      7555      7558      7560      7555      7558      7561
      7556      7555      7557      7556      7555      7558      7557      7555      7558
      7558      7561      7562      7558      7561      7563      7558      7561      7564
      7559      7558      7560      7559      7558      7561      7560      7558      7561
      7561      7564      7565      7561      7564      7566      7561      7564      7567
      7562      7561      7563      7562      7561      7564      7563      7561      7564
      7564      7567      7568      7564      7567      7569      7564      7567      7570
      7565      7564      7566      7565      7564      7567      7566      7564      7567
      7567      7570      7571      7567      7570      7572      7567      7570      7573
      7568      7567      7569      7568      7567      7570      7569      7567      7570
      7570      7573      7574      7570      7573      7575      7571      7570      7572
      7571      7570      7573      7572      7570      7573      7573      7575      7576
      7573      7575      7577      7574      7573      7575      7575      7577      7578
      7575      7577      7579      7575      7577      7580      7576      7575      7577
      7577      7580      7581      7577      7580      7582      7577      7580      7583
      7578      7577      7579      7578      7577      7580      7579      7577      7580
      7580      7583      7584      7580      7583      7585      7580      7583      7586
      7581      7580      7582      7581      7580      7583      7582      7580      7583
      7583      7586      7587      7583      7586      7588      7583      7586      7589
      7584      7583      7585      7584      7583      7586      7585      7583      7586
      7586      7589      7590      7586      7589      7591      7586      7589      7592
      7587      7586      7588      7587      7586      7589      7588      7586      7589
      7589      7592      7593      7589      7592      7594      7589      7592      7595
      7590      7589      7591      7590      7589      7592      7591      7589      7592
      7592      7595      7596      7592      7595      7597      7592      7595      7598
      7593      7592      7594      7593      7592      7595      7594      7592      7595
      7595      7598      7599      7595      7598      7600      7595      7598      7601
      7596      7595      7597      7596      7595      7598      7597      7595      7598
      7599      7598      7600      7599      7598      7601      7600      7598      7601
      7602      7605      7606      7602      7605      7607      7602      7605      7608
      7603      7602      7604      7603      7602      7605      7604      7602      7605
      7605      7608      7609      7605      7608      7610      7605      7608      7611
      7606      7605      7607      7606      7605      7608      7607      7605      7608
      7608      7611      7612      7608      7611      7613      7608      7611      7614
      7609      7608      7610      7609      7608      7611      7610      7608      7611
      7611      7614      7615      7611      7614      7616      7611      7614      7617
      7612      7611      7613      7612      7611      7614      7613      7611      7614
      7614      7617      7618      7614      7617      7619      7614      7617      7620
      7615      7614      7616      7615      7614      7617      7616      7614      7617
      7617      7620      7621      7617      7620      7622      7617      7620      7623
      7618      7617      7619      7618      7617      7620      7619      7617      7620
      7620      7623      7624      7620      7623      7625      7620      7623      7626
      7621      7620      7622      7621      7620      7623      7622      7620      7623
      7623      7626      7627      7623      7626      7628      7623      7626      7629
      7624      7623      7625      7624      7623      7626      7625      7623      7626
      7626      7629      7630      7626      7629      7631      7626      7629      7632
      7627      7626      7628      7627      7626      7629      7628      7626      7629
      7629      7632      7633      7629      7632      7634      7629      7632      7635
      7630      7629      7631      7630      7629      7632      7631      7629      7632
      7632      7635      7636      7632      7635      7637      7632      7635      7638
      7633      7632      7634      7633      7632      7635      7634      7632      7635
      7635      7638      7639      7635      7638      7640      7635      7638      7641
      7636      7635      7637      7636      7635      7638      7637      7635      7638
      7638      7641      7642      7638      7641      7643      7638      7641      7644
      7639      7638      7640      7639      7638      7641      7640      7638      7641
      7642      7641      7643      7642      7641      7644      7643      7641      7644
      7645      7646      7647      7645      7646      7648      7645      7646      7661
      7645      7649      7650      7645      7649      7651      7645      7649      7652
      7645      7653      7654      7645      7653      7655      7645      7653      7656
      7645      7657      7658      7645      7657      7659      7645      7657      7660
      7646      7645      7649      7646      7645      7653      7646      7645      7657
      7646      7661      7662      7646      7661      7663      7646      7661      7667
      7647      7646      7648      7647      7646      7661      7648      7646      7661
      7649      7645      7653      7649      7645      7657      7650      7649      7651
      7650      7649      7652      7651      7649      7652      7653      7645      7657
      7654      7653      7655      7654      7653      7656      7655      7653      7656
      7658      7657      7659      7658      7657      7660      7659      7657      7660
      7661      7667      7664      7662      7661      7663      7662      7661      7667
      7663      7661      7667      7664      7668      7669      7665      7664      7666
      7665      7664      7667      7665      7664      7668      7666      7664      7667
      7666      7664      7668      7667      7664      7668      7668      7669      7670
      7668      7669      7671      7668      7669      7672      7669      7672      7673
      7669      7672      7674      7669      7672      7680      7670      7669      7671
      7670      7669      7672      7671      7669      7672      7672      7674      7675
      7672      7680      7681      7672      7680      7682      7672      7680      7683
      7673      7672      7674      7673      7672      7680      7674      7672      7680
      7674      7675      7676      7674      7675      7677      7675      7677      7678
      7675      7677      7679      7675      7677      7689      7676      7675      7677
      7677      7689      7690      7677      7689      7691      7677      7689      7692
      7678      7677      7679      7678      7677      7689      7679      7677      7689
      7680      7683      7684      7681      7680      7682      7681      7680      7683
      7682      7680      7683      7683      7684      7685      7683      7684      7686
      7684      7686      7687      7684      7686      7688      7684      7686      7736
      7685      7684      7686      7686      7736      7737      7686      7736      7738
      7686      7736      7739      7687      7686      7688      7687      7686      7736
      7688      7686      7736      7689      7692      7693      7689      7692      7694
      7689      7692      7695      7690      7689      7691      7690      7689      7692
      7691      7689      7692      7692      7695      7696      7692      7695      7697
      7692      7695      7698      7693      7692      7694      7693      7692      7695
      7694      7692      7695      7695      7698      7699      7695      7698      7700
      7695      7698      7701      7696      7695      7697      7696      7695      7698
      7697      7695      7698      7698      7701      7702      7698      7701      7703
      7698      7701      7704      7699      7698      7700      7699      7698      7701
      7700      7698      7701      7701      7704      7705      7701      7704      7706
      7701      7704      7707      7702      7701      7703      7702      7701      7704
      7703      7701      7704      7704      7707      7708      7704      7707      7709
      7705      7704      7706      7705      7704      7707      7706      7704      7707
      7707      7709      7710      7707      7709      7711      7708      7707      7709
      7709      7711      7712      7709      7711      7713      7709      7711      7714
      7710      7709      7711      7711      7714      7715      7711      7714      7716
      7711      7714      7717      7712      7711      7713      7712      7711      7714
      7713      7711      7714      7714      7717      7718      7714      7717      7719
      7714      7717      7720      7715      7714      7716      7715      7714      7717
      7716      7714      7717      7717      7720      7721      7717      7720      7722
      7717      7720      7723      7718      7717      7719      7718      7717      7720
      7719      7717      7720      7720      7723      7724      7720      7723      7725
      7720      7723      7726      7721      7720      7722      7721      7720      7723
      7722      7720      7723      7723      7726      7727      7723      7726      7728
      7723      7726      7729      7724      7723      7725      7724      7723      7726
      7725      7723      7726      7726      7729      7730      7726      7729      7731
      7726      7729      7732      7727      7726      7728      7727      7726      7729
      7728      7726      7729      7729      7732      7733      7729      7732      7734
      7729      7732      7735      7730      7729      7731      7730      7729      7732
      7731      7729      7732      7733      7732      7734      7733      7732      7735
      7734      7732      7735      7736      7739      7740      7736      7739      7741
      7736      7739      7742      7737      7736      7738      7737      7736      7739
      7738      7736      7739      7739      7742      7743      7739      7742      7744
      7739      7742      7745      7740      7739      7741      7740      7739      7742
      7741      7739      7742      7742      7745      7746      7742      7745      7747
      7742      7745      7748      7743      7742      7744      7743      7742      7745
      7744      7742      7745      7745      7748      7749      7745      7748      7750
      7745      7748      7751      7746      7745      7747      7746      7745      7748
      7747      7745      7748      7748      7751      7752      7748      7751      7753
      7748      7751      7754      7749      7748      7750      7749      7748      7751
      7750      7748      7751      7751      7754      7755      7751      7754      7756
      7751      7754      7757      7752      7751      7753      7752      7751      7754
      7753      7751      7754      7754      7757      7758      7754      7757      7759
      7754      7757      7760      7755      7754      7756      7755      7754      7757
      7756      7754      7757      7757      7760      7761      7757      7760      7762
      7757      7760      7763      7758      7757      7759      7758      7757      7760
      7759      7757      7760      7760      7763      7764      7760      7763      7765
      7760      7763      7766      7761      7760      7762      7761      7760      7763
      7762      7760      7763      7763      7766      7767      7763      7766      7768
      7763      7766      7769      7764      7763      7765      7764      7763      7766
      7765      7763      7766      7766      7769      7770      7766      7769      7771
      7766      7769      7772      7767      7766      7768      7767      7766      7769
      7768      7766      7769      7769      7772      7773      7769      7772      7774
      7769      7772      7775      7770      7769      7771      7770      7769      7772
      7771      7769      7772      7772      7775      7776      7772      7775      7777
      7772      7775      7778      7773      7772      7774      7773      7772      7775
      7774      7772      7775      7776      7775      7777      7776      7775      7778
      7777      7775      7778      7779      7780      7781      7779      7780      7782
      7779      7780      7795      7779      7783      7784      7779      7783      7785
      7779      7783      7786      7779      7787      7788      7779      7787      7789
      7779      7787      7790      7779      7791      7792      7779      7791      7793
      7779      7791      7794      7780      7779      7783      7780      7779      7787
      7780      7779      7791      7780      7795      7796      7780      7795      7797
      7780      7795      7801      7781      7780      7782      7781      7780      7795
      7782      7780      7795      7783      7779      7787      7783      7779      7791
      7784      7783      7785      7784      7783      7786      7785      7783      7786
      7787      7779      7791      7788      7787      7789      7788      7787      7790
      7789      7787      7790      7792      7791      7793      7792      7791      7794
      7793      7791      7794      7795      7801      7798      7796      7795      7797
      7796      7795      7801      7797      7795      7801      7798      7802      7803
      7799      7798      7800      7799      7798      7801      7799      7798      7802
      7800      7798      7801      7800      7798      7802      7801      7798      7802
      7802      7803      7804      7802      7803      7805      7802      7803      7806
      7803      7806      7807      7803      7806      7808      7803      7806      7814
      7804      7803      7805      7804      7803      7806      7805      7803      7806
      7806      7808      7809      7806      7814      7815      7806      7814      7816
      7806      7814      7817      7807      7806      7808      7807      7806      7814
      7808      7806      7814      7808      7809      7810      7808      7809      7811
      7809      7811      7812      7809      7811      7813      7809      7811      7823
      7810      7809      7811      7811      7823      7824      7811      7823      7825
      7811      7823      7826      7812      7811      7813      7812      7811      7823
      7813      7811      7823      7814      7817      7818      7815      7814      7816
      7815      7814      7817      7816      7814      7817      7817      7818      7819
      7817      7818      7820      7818      7820      7821      7818      7820      7822
      7818      7820      7870      7819      7818      7820      7820      7870      7871
      7820      7870      7872      7820      7870      7873      7821      7820      7822
      7821      7820      7870      7822      7820      7870      7823      7826      7827
      7823      7826      7828      7823      7826      7829      7824      7823      7825
      7824      7823      7826      7825      7823      7826      7826      7829      7830
      7826      7829      7831      7826      7829      7832      7827      7826      7828
      7827      7826      7829      7828      7826      7829      7829      7832      7833
      7829      7832      7834      7829      7832      7835      7830      7829      7831
      7830      7829      7832      7831      7829      7832      7832      7835      7836
      7832      7835      7837      7832      7835      7838      7833      7832      7834
      7833      7832      7835      7834      7832      7835      7835      7838      7839
      7835      7838      7840      7835      7838      7841      7836      7835      7837
      7836      7835      7838      7837      7835      7838      7838      7841      7842
      7838      7841      7843      7839      7838      7840      7839      7838      7841
      7840      7838      7841      7841      7843      7844      7841      7843      7845
      7842      7841      7843      7843      7845      7846      7843      7845      7847
      7843      7845      7848      7844      7843      7845      7845      7848      7849
      7845      7848      7850      7845      7848      7851      7846      7845      7847
      7846      7845      7848      7847      7845      7848      7848      7851      7852
      7848      7851      7853      7848      7851      7854      7849      7848      7850
      7849      7848      7851      7850      7848      7851      7851      7854      7855
      7851      7854      7856      7851      7854      7857      7852      7851      7853
      7852      7851      7854      7853      7851      7854      7854      7857      7858
      7854      7857      7859      7854      7857      7860      7855      7854      7856
      7855      7854      7857      7856      7854      7857      7857      7860      7861
      7857      7860      7862      7857      7860      7863      7858      7857      7859
      7858      7857      7860      7859      7857      7860      7860      7863      7864
      7860      7863      7865      7860      7863      7866      7861      7860      7862
      7861      7860      7863      7862      7860      7863      7863      7866      7867
      7863      7866      7868      7863      7866      7869      7864      7863      7865
      7864      7863      7866      7865      7863      7866      7867      7866      7868
      7867      7866      7869      7868      7866      7869      7870      7873      7874
      7870      7873      7875      7870      7873      7876      7871      7870      7872
      7871      7870      7873      7872      7870      7873      7873      7876      7877
      7873      7876      7878      7873      7876      7879      7874      7873      7875
      7874      7873      7876      7875      7873      7876      7876      7879      7880
      7876      7879      7881      7876      7879      7882      7877      7876      7878
      7877      7876      7879      7878      7876      7879      7879      7882      7883
      7879      7882      7884      7879      7882      7885      7880      7879      7881
      7880      7879      7882      7881      7879      7882      7882      7885      7886
      7882      7885      7887      7882      7885      7888      7883      7882      7884
      7883      7882      7885      7884      7882      7885      7885      7888      7889
      7885      7888      7890      7885      7888      7891      7886      7885      7887
      7886      7885      7888      7887      7885      7888      7888      7891      7892
      7888      7891      7893      7888      7891      7894      7889      7888      7890
      7889      7888      7891      7890      7888      7891      7891      7894      7895
      7891      7894      7896      7891      7894      7897      7892      7891      7893
      7892      7891      7894      7893      7891      7894      7894      7897      7898
      7894      7897      7899      7894      7897      7900      7895      7894      7896
      7895      7894      7897      7896      7894      7897      7897      7900      7901
      7897      7900      7902      7897      7900      7903      7898      7897      7899
      7898      7897      7900      7899      7897      7900      7900      7903      7904
      7900      7903      7905      7900      7903      7906      7901      7900      7902
      7901      7900      7903      7902      7900      7903      7903      7906      7907
      7903      7906      7908      7903      7906      7909      7904      7903      7905
      7904      7903      7906      7905      7903      7906      7906      7909      7910
      7906      7909      7911      7906      7909      7912      7907      7906      7908
      7907      7906      7909      7908      7906      7909      7910      7909      7911
      7910      7909      7912      7911      7909      7912      7913      7914      7915
      7913      7914      7916      7913      7914      7929      7913      7917      7918
      7913      7917      7919      7913      7917      7920      7913      7921      7922
      7913      7921      7923      7913      7921      7924      7913      7925      7926
      7913      7925      7927      7913      7925      7928      7914      7913      7917
      7914      7913      7921      7914      7913      7925      7914      7929      7930
      7914      7929      7931      7914      7929      7935      7915      7914      7916
      7915      7914      7929      7916      7914      7929      7917      7913      7921
      7917      7913      7925      7918      7917      7919      7918      7917      7920
      7919      7917      7920      7921      7913      7925      7922      7921      7923
      7922      7921      7924      7923      7921      7924      7926      7925      7927
      7926      7925      7928      7927      7925      7928      7929      7935      7932
      7930      7929      7931      7930      7929      7935      7931      7929      7935
      7932      7936      7937      7933      7932      7934      7933      7932      7935
      7933      7932      7936      7934      7932      7935      7934      7932      7936
      7935      7932      7936      7936      7937      7938      7936      7937      7939
      7936      7937      7940      7937      7940      7941      7937      7940      7942
      7937      7940      7948      7938      7937      7939      7938      7937      7940
      7939      7937      7940      7940      7942      7943      7940      7948      7949
      7940      7948      7950      7940      7948      7951      7941      7940      7942
      7941      7940      7948      7942      7940      7948      7942      7943      7944
      7942      7943      7945      7943      7945      7946      7943      7945      7947
      7943      7945      7957      7944      7943      7945      7945      7957      7958
      7945      7957      7959      7945      7957      7960      7946      7945      7947
      7946      7945      7957      7947      7945      7957      7948      7951      7952
      7949      7948      7950      7949      7948      7951      7950      7948      7951
      7951      7952      7953      7951      7952      7954      7952      7954      7955
      7952      7954      7956      7952      7954      8004      7953      7952      7954
      7954      8004      8005      7954      8004      8006      7954      8004      8007
      7955      7954      7956      7955      7954      8004      7956      7954      8004
      7957      7960      7961      7957      7960      7962      7957      7960      7963
      7958      7957      7959      7958      7957      7960      7959      7957      7960
      7960      7963      7964      7960      7963      7965      7960      7963      7966
      7961      7960      7962      7961      7960      7963      7962      7960      7963
      7963      7966      7967      7963      7966      7968      7963      7966      7969
      7964      7963      7965      7964      7963      7966      7965      7963      7966
      7966      7969      7970      7966      7969      7971      7966      7969      7972
      7967      7966      7968      7967      7966      7969      7968      7966      7969
      7969      7972      7973      7969      7972      7974      7969      7972      7975
      7970      7969      7971      7970      7969      7972      7971      7969      7972
      7972      7975      7976      7972      7975      7977      7973      7972      7974
      7973      7972      7975      7974      7972      7975      7975      7977      7978
      7975      7977      7979      7976      7975      7977      7977      7979      7980
      7977      7979      7981      7977      7979      7982      7978      7977      7979
      7979      7982      7983      7979      7982      7984      7979      7982      7985
      7980      7979      7981      7980      7979      7982      7981      7979      7982
      7982      7985      7986      7982      7985      7987      7982      7985      7988
      7983      7982      7984      7983      7982      7985      7984      7982      7985
      7985      7988      7989      7985      7988      7990      7985      7988      7991
      7986      7985      7987      7986      7985      7988      7987      7985      7988
      7988      7991      7992      7988      7991      7993      7988      7991      7994
      7989      7988      7990      7989      7988      7991      7990      7988      7991
      7991      7994      7995      7991      7994      7996      7991      7994      7997
      7992      7991      7993      7992      7991      7994      7993      7991      7994
      7994      7997      7998      7994      7997      7999      7994      7997      8000
      7995      7994      7996      7995      7994      7997      7996      7994      7997
      7997      8000      8001      7997      8000      8002      7997      8000      8003
      7998      7997      7999      7998      7997      8000      7999      7997      8000
      8001      8000      8002      8001      8000      8003      8002      8000      8003
      8004      8007      8008      8004      8007      8009      8004      8007      8010
      8005      8004      8006      8005      8004      8007      8006      8004      8007
      8007      8010      8011      8007      8010      8012      8007      8010      8013
      8008      8007      8009      8008      8007      8010      8009      8007      8010
      8010      8013      8014      8010      8013      8015      8010      8013      8016
      8011      8010      8012      8011      8010      8013      8012      8010      8013
      8013      8016      8017      8013      8016      8018      8013      8016      8019
      8014      8013      8015      8014      8013      8016      8015      8013      8016
      8016      8019      8020      8016      8019      8021      8016      8019      8022
      8017      8016      8018      8017      8016      8019      8018      8016      8019
      8019      8022      8023      8019      8022      8024      8019      8022      8025
      8020      8019      8021      8020      8019      8022      8021      8019      8022
      8022      8025      8026      8022      8025      8027      8022      8025      8028
      8023      8022      8024      8023      8022      8025      8024      8022      8025
      8025      8028      8029      8025      8028      8030      8025      8028      8031
      8026      8025      8027      8026      8025      8028      8027      8025      8028
      8028      8031      8032      8028      8031      8033      8028      8031      8034
      8029      8028      8030      8029      8028      8031      8030      8028      8031
      8031      8034      8035      8031      8034      8036      8031      8034      8037
      8032      8031      8033      8032      8031      8034      8033      8031      8034
      8034      8037      8038      8034      8037      8039      8034      8037      8040
      8035      8034      8036      8035      8034      8037      8036      8034      8037
      8037      8040      8041      8037      8040      8042      8037      8040      8043
      8038      8037      8039      8038      8037      8040      8039      8037      8040
      8040      8043      8044      8040      8043      8045      8040      8043      8046
      8041      8040      8042      8041      8040      8043      8042      8040      8043
      8044      8043      8045      8044      8043      8046      8045      8043      8046
      8047      8051      8052      8047      8051      8053      8047      8051      8054
      8048      8047      8049      8048      8047      8050      8048      8047      8051
      8049      8047      8050      8049      8047      8051      8050      8047      8051
      8051      8054      8055      8051      8054      8056      8051      8054      8061
      8052      8051      8053      8052      8051      8054      8053      8051      8054
      8054      8061      8057      8055      8054      8056      8055      8054      8061
      8056      8054      8061      8057      8060      8062      8058      8057      8059
      8058      8057      8060      8058      8057      8061      8059      8057      8060
      8059      8057      8061      8060      8057      8061      8060      8062      8063
      8060      8062      8064      8060      8062      8065      8062      8065      8066
      8062      8065      8067      8062      8065      8073      8063      8062      8064
      8063      8062      8065      8064      8062      8065      8065      8067      8068
      8065      8073      8074      8065      8073      8075      8065      8073      8076
      8066      8065      8067      8066      8065      8073      8067      8065      8073
      8067      8068      8069      8067      8068      8070      8068      8070      8071
      8068      8070      8072      8068      8070      8082      8069      8068      8070
      8070      8082      8083      8070      8082      8084      8070      8082      8085
      8071      8070      8072      8071      8070      8082      8072      8070      8082
      8073      8076      8077      8074      8073      8075      8074      8073      8076
      8075      8073      8076      8076      8077      8078      8076      8077      8079
      8077      8079      8080      8077      8079      8081      8077      8079      8129
      8078      8077      8079      8079      8129      8130      8079      8129      8131
      8079      8129      8132      8080      8079      8081      8080      8079      8129
      8081      8079      8129      8082      8085      8086      8082      8085      8087
      8082      8085      8088      8083      8082      8084      8083      8082      8085
      8084      8082      8085      8085      8088      8089      8085      8088      8090
      8085      8088      8091      8086      8085      8087      8086      8085      8088
      8087      8085      8088      8088      8091      8092      8088      8091      8093
      8088      8091      8094      8089      8088      8090      8089      8088      8091
      8090      8088      8091      8091      8094      8095      8091      8094      8096
      8091      8094      8097      8092      8091      8093      8092      8091      8094
      8093      8091      8094      8094      8097      8098      8094      8097      8099
      8094      8097      8100      8095      8094      8096      8095      8094      8097
      8096      8094      8097      8097      8100      8101      8097      8100      8102
      8098      8097      8099      8098      8097      8100      8099      8097      8100
      8100      8102      8103      8100      8102      8104      8101      8100      8102
      8102      8104      8105      8102      8104      8106      8102      8104      8107
      8103      8102      8104      8104      8107      8108      8104      8107      8109
      8104      8107      8110      8105      8104      8106      8105      8104      8107
      8106      8104      8107      8107      8110      8111      8107      8110      8112
      8107      8110      8113      8108      8107      8109      8108      8107      8110
      8109      8107      8110      8110      8113      8114      8110      8113      8115
      8110      8113      8116      8111      8110      8112      8111      8110      8113
      8112      8110      8113      8113      8116      8117      8113      8116      8118
      8113      8116      8119      8114      8113      8115      8114      8113      8116
      8115      8113      8116      8116      8119      8120      8116      8119      8121
      8116      8119      8122      8117      8116      8118      8117      8116      8119
      8118      8116      8119      8119      8122      8123      8119      8122      8124
      8119      8122      8125      8120      8119      8121      8120      8119      8122
      8121      8119      8122      8122      8125      8126      8122      8125      8127
      8122      8125      8128      8123      8122      8124      8123      8122      8125
      8124      8122      8125      8126      8125      8127      8126      8125      8128
      8127      8125      8128      8129      8132      8133      8129      8132      8134
      8129      8132      8135      8130      8129      8131      8130      8129      8132
      8131      8129      8132      8132      8135      8136      8132      8135      8137
      8132      8135      8138      8133      8132      8134      8133      8132      8135
      8134      8132      8135      8135      8138      8139      8135      8138      8140
      8135      8138      8141      8136      8135      8137      8136      8135      8138
      8137      8135      8138      8138      8141      8142      8138      8141      8143
      8138      8141      8144      8139      8138      8140      8139      8138      8141
      8140      8138      8141      8141      8144      8145      8141      8144      8146
      8141      8144      8147      8142      8141      8143      8142      8141      8144
      8143      8141      8144      8144      8147      8148      8144      8147      8149
      8144      8147      8150      8145      8144      8146      8145      8144      8147
      8146      8144      8147      8147      8150      8151      8147      8150      8152
      8147      8150      8153      8148      8147      8149      8148      8147      8150
      8149      8147      8150      8150      8153      8154      8150      8153      8155
      8150      8153      8156      8151      8150      8152      8151      8150      8153
      8152      8150      8153      8153      8156      8157      8153      8156      8158
      8153      8156      8159      8154      8153      8155      8154      8153      8156
      8155      8153      8156      8156      8159      8160      8156      8159      8161
      8156      8159      8162      8157      8156      8158      8157      8156      8159
      8158      8156      8159      8159      8162      8163      8159      8162      8164
      8159      8162      8165      8160      8159      8161      8160      8159      8162
      8161      8159      8162      8162      8165      8166      8162      8165      8167
      8162      8165      8168      8163      8162      8164      8163      8162      8165
      8164      8162      8165      8165      8168      8169      8165      8168      8170
      8165      8168      8171      8166      8165      8167      8166      8165      8168
      8167      8165      8168      8169      8168      8170      8169      8168      8171
      8170      8168      8171      8172      8176      8177      8172      8176      8178
      8172      8176      8179      8173      8172      8174      8173      8172      8175
      8173      8172      8176      8174      8172      8175      8174      8172      8176
      8175      8172      8176      8176      8179      8180      8176      8179      8181
      8176      8179      8186      8177      8176      8178      8177      8176      8179
      8178      8176      8179      8179      8186      8182      8180      8179      8181
      8180      8179      8186      8181      8179      8186      8182      8185      8187
      8183      8182      8184      8183      8182      8185      8183      8182      8186
      8184      8182      8185      8184      8182      8186      8185      8182      8186
      8185      8187      8188      8185      8187      8189      8185      8187      8190
      8187      8190      8191      8187      8190      8192      8187      8190      8198
      8188      8187      8189      8188      8187      8190      8189      8187      8190
      8190      8192      8193      8190      8198      8199      8190      8198      8200
      8190      8198      8201      8191      8190      8192      8191      8190      8198
      8192      8190      8198      8192      8193      8194      8192      8193      8195
      8193      8195      8196      8193      8195      8197      8193      8195      8207
      8194      8193      8195      8195      8207      8208      8195      8207      8209
      8195      8207      8210      8196      8195      8197      8196      8195      8207
      8197      8195      8207      8198      8201      8202      8199      8198      8200
      8199      8198      8201      8200      8198      8201      8201      8202      8203
      8201      8202      8204      8202      8204      8205      8202      8204      8206
      8202      8204      8254      8203      8202      8204      8204      8254      8255
      8204      8254      8256      8204      8254      8257      8205      8204      8206
      8205      8204      8254      8206      8204      8254      8207      8210      8211
      8207      8210      8212      8207      8210      8213      8208      8207      8209
      8208      8207      8210      8209      8207      8210      8210      8213      8214
      8210      8213      8215      8210      8213      8216      8211      8210      8212
      8211      8210      8213      8212      8210      8213      8213      8216      8217
      8213      8216      8218      8213      8216      8219      8214      8213      8215
      8214      8213      8216      8215      8213      8216      8216      8219      8220
      8216      8219      8221      8216      8219      8222      8217      8216      8218
      8217      8216      8219      8218      8216      8219      8219      8222      8223
      8219      8222      8224      8219      8222      8225      8220      8219      8221
      8220      8219      8222      8221      8219      8222      8222      8225      8226
      8222      8225      8227      8223      8222      8224      8223      8222      8225
      8224      8222      8225      8225      8227      8228      8225      8227      8229
      8226      8225      8227      8227      8229      8230      8227      8229      8231
      8227      8229      8232      8228      8227      8229      8229      8232      8233
      8229      8232      8234      8229      8232      8235      8230      8229      8231
      8230      8229      8232      8231      8229      8232      8232      8235      8236
      8232      8235      8237      8232      8235      8238      8233      8232      8234
      8233      8232      8235      8234      8232      8235      8235      8238      8239
      8235      8238      8240      8235      8238      8241      8236      8235      8237
      8236      8235      8238      8237      8235      8238      8238      8241      8242
      8238      8241      8243      8238      8241      8244      8239      8238      8240
      8239      8238      8241      8240      8238      8241      8241      8244      8245
      8241      8244      8246      8241      8244      8247      8242      8241      8243
      8242      8241      8244      8243      8241      8244      8244      8247      8248
      8244      8247      8249      8244      8247      8250      8245      8244      8246
      8245      8244      8247      8246      8244      8247      8247      8250      8251
      8247      8250      8252      8247      8250      8253      8248      8247      8249
      8248      8247      8250      8249      8247      8250      8251      8250      8252
      8251      8250      8253      8252      8250      8253      8254      8257      8258
      8254      8257      8259      8254      8257      8260      8255      8254      8256
      8255      8254      8257      8256      8254      8257      8257      8260      8261
      8257      8260      8262      8257      8260      8263      8258      8257      8259
      8258      8257      8260      8259      8257      8260      8260      8263      8264
      8260      8263      8265      8260      8263      8266      8261      8260      8262
      8261      8260      8263      8262      8260      8263      8263      8266      8267
      8263      8266      8268      8263      8266      8269      8264      8263      8265
      8264      8263      8266      8265      8263      8266      8266      8269      8270
      8266      8269      8271      8266      8269      8272      8267      8266      8268
      8267      8266      8269      8268      8266      8269      8269      8272      8273
      8269      8272      8274      8269      8272      8275      8270      8269      8271
      8270      8269      8272      8271      8269      8272      8272      8275      8276
      8272      8275      8277      8272      8275      8278      8273      8272      8274
      8273      8272      8275      8274      8272      8275      8275      8278      8279
      8275      8278      8280      8275      8278      8281      8276      8275      8277
      8276      8275      8278      8277      8275      8278      8278      8281      8282
      8278      8281      8283      8278      8281      8284      8279      8278      8280
      8279      8278      8281      8280      8278      8281      8281      8284      8285
      8281      8284      8286      8281      8284      8287      8282      8281      8283
      8282      8281      8284      8283      8281      8284      8284      8287      8288
      8284      8287      8289      8284      8287      8290      8285      8284      8286
      8285      8284      8287      8286      8284      8287      8287      8290      8291
      8287      8290      8292      8287      8290      8293      8288      8287      8289
      8288      8287      8290      8289      8287      8290      8290      8293      8294
      8290      8293      8295      8290      8293      8296      8291      8290      8292
      8291      8290      8293      8292      8290      8293      8294      8293      8295
      8294      8293      8296      8295      8293      8296      8297      8298      8299
      8297      8298      8300      8297      8298      8313      8297      8301      8302
      8297      8301      8303      8297      8301      8304      8297      8305      8306
      8297      8305      8307      8297      8305      8308      8297      8309      8310
      8297      8309      8311      8297      8309      8312      8298      8297      8301
      8298      8297      8305      8298      8297      8309      8298      8313      8314
      8298      8313      8315      8298      8313      8319      8299      8298      8300
      8299      8298      8313      8300      8298      8313      8301      8297      8305
      8301      8297      8309      8302      8301      8303      8302      8301      8304
      8303      8301      8304      8305      8297      8309      8306      8305      8307
      8306      8305      8308      8307      8305      8308      8310      8309      8311
      8310      8309      8312      8311      8309      8312      8313      8319      8316
      8314      8313      8315      8314      8313      8319      8315      8313      8319
      8316      8320      8321      8317      8316      8318      8317      8316      8319
      8317      8316      8320      8318      8316      8319      8318      8316      8320
      8319      8316      8320      8320      8321      8322      8320      8321      8323
      8320      8321      8324      8321      8324      8325      8321      8324      8326
      8321      8324      8332      8322      8321      8323      8322      8321      8324
      8323      8321      8324      8324      8326      8327      8324      8332      8333
      8324      8332      8334      8324      8332      8335      8325      8324      8326
      8325      8324      8332      8326      8324      8332      8326      8327      8328
      8326      8327      8329      8327      8329      8330      8327      8329      8331
      8327      8329      8341      8328      8327      8329      8329      8341      8342
      8329      8341      8343      8329      8341      8344      8330      8329      8331
      8330      8329      8341      8331      8329      8341      8332      8335      8336
      8333      8332      8334      8333      8332      8335      8334      8332      8335
      8335      8336      8337      8335      8336      8338      8336      8338      8339
      8336      8338      8340      8336      8338      8388      8337      8336      8338
      8338      8388      8389      8338      8388      8390      8338      8388      8391
      8339      8338      8340      8339      8338      8388      8340      8338      8388
      8341      8344      8345      8341      8344      8346      8341      8344      8347
      8342      8341      8343      8342      8341      8344      8343      8341      8344
      8344      8347      8348      8344      8347      8349      8344      8347      8350
      8345      8344      8346      8345      8344      8347      8346      8344      8347
      8347      8350      8351      8347      8350      8352      8347      8350      8353
      8348      8347      8349      8348      8347      8350      8349      8347      8350
      8350      8353      8354      8350      8353      8355      8350      8353      8356
      8351      8350      8352      8351      8350      8353      8352      8350      8353
      8353      8356      8357      8353      8356      8358      8353      8356      8359
      8354      8353      8355      8354      8353      8356      8355      8353      8356
      8356      8359      8360      8356      8359      8361      8357      8356      8358
      8357      8356      8359      8358      8356      8359      8359      8361      8362
      8359      8361      8363      8360      8359      8361      8361      8363      8364
      8361      8363      8365      8361      8363      8366      8362      8361      8363
      8363      8366      8367      8363      8366      8368      8363      8366      8369
      8364      8363      8365      8364      8363      8366      8365      8363      8366
      8366      8369      8370      8366      8369      8371      8366      8369      8372
      8367      8366      8368      8367      8366      8369      8368      8366      8369
      8369      8372      8373      8369      8372      8374      8369      8372      8375
      8370      8369      8371      8370      8369      8372      8371      8369      8372
      8372      8375      8376      8372      8375      8377      8372      8375      8378
      8373      8372      8374      8373      8372      8375      8374      8372      8375
      8375      8378      8379      8375      8378      8380      8375      8378      8381
      8376      8375      8377      8376      8375      8378      8377      8375      8378
      8378      8381      8382      8378      8381      8383      8378      8381      8384
      8379      8378      8380      8379      8378      8381      8380      8378      8381
      8381      8384      8385      8381      8384      8386      8381      8384      8387
      8382      8381      8383      8382      8381      8384      8383      8381      8384
      8385      8384      8386      8385      8384      8387      8386      8384      8387
      8388      8391      8392      8388      8391      8393      8388      8391      8394
      8389      8388      8390      8389      8388      8391      8390      8388      8391
      8391      8394      8395      8391      8394      8396      8391      8394      8397
      8392      8391      8393      8392      8391      8394      8393      8391      8394
      8394      8397      8398      8394      8397      8399      8394      8397      8400
      8395      8394      8396      8395      8394      8397      8396      8394      8397
      8397      8400      8401      8397      8400      8402      8397      8400      8403
      8398      8397      8399      8398      8397      8400      8399      8397      8400
      8400      8403      8404      8400      8403      8405      8400      8403      8406
      8401      8400      8402      8401      8400      8403      8402      8400      8403
      8403      8406      8407      8403      8406      8408      8403      8406      8409
      8404      8403      8405      8404      8403      8406      8405      8403      8406
      8406      8409      8410      8406      8409      8411      8406      8409      8412
      8407      8406      8408      8407      8406      8409      8408      8406      8409
      8409      8412      8413      8409      8412      8414      8409      8412      8415
      8410      8409      8411      8410      8409      8412      8411      8409      8412
      8412      8415      8416      8412      8415      8417      8412      8415      8418
      8413      8412      8414      8413      8412      8415      8414      8412      8415
      8415      8418      8419      8415      8418      8420      8415      8418      8421
      8416      8415      8417      8416      8415      8418      8417      8415      8418
      8418      8421      8422      8418      8421      8423      8418      8421      8424
      8419      8418      8420      8419      8418      8421      8420      8418      8421
      8421      8424      8425      8421      8424      8426      8421      8424      8427
      8422      8421      8423      8422      8421      8424      8423      8421      8424
      8424      8427      8428      8424      8427      8429      8424      8427      8430
      8425      8424      8426      8425      8424      8427      8426      8424      8427
      8428      8427      8429      8428      8427      8430      8429      8427      8430
      8431      8435      8436      8431      8435      8437      8431      8435      8438
      8432      8431      8433      8432      8431      8434      8432      8431      8435
      8433      8431      8434      8433      8431      8435      8434      8431      8435
      8435      8438      8439      8435      8438      8440      8435      8438      8445
      8436      8435      8437      8436      8435      8438      8437      8435      8438
      8438      8445      8441      8439      8438      8440      8439      8438      8445
      8440      8438      8445      8441      8444      8446      8442      8441      8443
      8442      8441      8444      8442      8441      8445      8443      8441      8444
      8443      8441      8445      8444      8441      8445      8444      8446      8447
      8444      8446      8448      8444      8446      8449      8446      8449      8450
      8446      8449      8451      8446      8449      8457      8447      8446      8448
      8447      8446      8449      8448      8446      8449      8449      8451      8452
      8449      8457      8458      8449      8457      8459      8449      8457      8460
      8450      8449      8451      8450      8449      8457      8451      8449      8457
      8451      8452      8453      8451      8452      8454      8452      8454      8455
      8452      8454      8456      8452      8454      8466      8453      8452      8454
      8454      8466      8467      8454      8466      8468      8454      8466      8469
      8455      8454      8456      8455      8454      8466      8456      8454      8466
      8457      8460      8461      8458      8457      8459      8458      8457      8460
      8459      8457      8460      8460      8461      8462      8460      8461      8463
      8461      8463      8464      8461      8463      8465      8461      8463      8513
      8462      8461      8463      8463      8513      8514      8463      8513      8515
      8463      8513      8516      8464      8463      8465      8464      8463      8513
      8465      8463      8513      8466      8469      8470      8466      8469      8471
      8466      8469      8472      8467      8466      8468      8467      8466      8469
      8468      8466      8469      8469      8472      8473      8469      8472      8474
      8469      8472      8475      8470      8469      8471      8470      8469      8472
      8471      8469      8472      8472      8475      8476      8472      8475      8477
      8472      8475      8478      8473      8472      8474      8473      8472      8475
      8474      8472      8475      8475      8478      8479      8475      8478      8480
      8475      8478      8481      8476      8475      8477      8476      8475      8478
      8477      8475      8478      8478      8481      8482      8478      8481      8483
      8478      8481      8484      8479      8478      8480      8479      8478      8481
      8480      8478      8481      8481      8484      8485      8481      8484      8486
      8482      8481      8483      8482      8481      8484      8483      8481      8484
      8484      8486      8487      8484      8486      8488      8485      8484      8486
      8486      8488      8489      8486      8488      8490      8486      8488      8491
      8487      8486      8488      8488      8491      8492      8488      8491      8493
      8488      8491      8494      8489      8488      8490      8489      8488      8491
      8490      8488      8491      8491      8494      8495      8491      8494      8496
      8491      8494      8497      8492      8491      8493      8492      8491      8494
      8493      8491      8494      8494      8497      8498      8494      8497      8499
      8494      8497      8500      8495      8494      8496      8495      8494      8497
      8496      8494      8497      8497      8500      8501      8497      8500      8502
      8497      8500      8503      8498      8497      8499      8498      8497      8500
      8499      8497      8500      8500      8503      8504      8500      8503      8505
      8500      8503      8506      8501      8500      8502      8501      8500      8503
      8502      8500      8503      8503      8506      8507      8503      8506      8508
      8503      8506      8509      8504      8503      8505      8504      8503      8506
      8505      8503      8506      8506      8509      8510      8506      8509      8511
      8506      8509      8512      8507      8506      8508      8507      8506      8509
      8508      8506      8509      8510      8509      8511      8510      8509      8512
      8511      8509      8512      8513      8516      8517      8513      8516      8518
      8513      8516      8519      8514      8513      8515      8514      8513      8516
      8515      8513      8516      8516      8519      8520      8516      8519      8521
      8516      8519      8522      8517      8516      8518      8517      8516      8519
      8518      8516      8519      8519      8522      8523      8519      8522      8524
      8519      8522      8525      8520      8519      8521      8520      8519      8522
      8521      8519      8522      8522      8525      8526      8522      8525      8527
      8522      8525      8528      8523      8522      8524      8523      8522      8525
      8524      8522      8525      8525      8528      8529      8525      8528      8530
      8525      8528      8531      8526      8525      8527      8526      8525      8528
      8527      8525      8528      8528      8531      8532      8528      8531      8533
      8528      8531      8534      8529      8528      8530      8529      8528      8531
      8530      8528      8531      8531      8534      8535      8531      8534      8536
      8531      8534      8537      8532      8531      8533      8532      8531      8534
      8533      8531      8534      8534      8537      8538      8534      8537      8539
      8534      8537      8540      8535      8534      8536      8535      8534      8537
      8536      8534      8537      8537      8540      8541      8537      8540      8542
      8537      8540      8543      8538      8537      8539      8538      8537      8540
      8539      8537      8540      8540      8543      8544      8540      8543      8545
      8540      8543      8546      8541      8540      8542      8541      8540      8543
      8542      8540      8543      8543      8546      8547      8543      8546      8548
      8543      8546      8549      8544      8543      8545      8544      8543      8546
      8545      8543      8546      8546      8549      8550      8546      8549      8551
      8546      8549      8552      8547      8546      8548      8547      8546      8549
      8548      8546      8549      8549      8552      8553      8549      8552      8554
      8549      8552      8555      8550      8549      8551      8550      8549      8552
      8551      8549      8552      8553      8552      8554      8553      8552      8555
      8554      8552      8555      8556      8560      8561      8556      8560      8562
      8556      8560      8563      8557      8556      8558      8557      8556      8559
      8557      8556      8560      8558      8556      8559      8558      8556      8560
      8559      8556      8560      8560      8563      8564      8560      8563      8565
      8560      8563      8570      8561      8560      8562      8561      8560      8563
      8562      8560      8563      8563      8570      8566      8564      8563      8565
      8564      8563      8570      8565      8563      8570      8566      8569      8571
      8567      8566      8568      8567      8566      8569      8567      8566      8570
      8568      8566      8569      8568      8566      8570      8569      8566      8570
      8569      8571      8572      8569      8571      8573      8569      8571      8574
      8571      8574      8575      8571      8574      8576      8571      8574      8582
      8572      8571      8573      8572      8571      8574      8573      8571      8574
      8574      8576      8577      8574      8582      8583      8574      8582      8584
      8574      8582      8585      8575      8574      8576      8575      8574      8582
      8576      8574      8582      8576      8577      8578      8576      8577      8579
      8577      8579      8580      8577      8579      8581      8577      8579      8591
      8578      8577      8579      8579      8591      8592      8579      8591      8593
      8579      8591      8594      8580      8579      8581      8580      8579      8591
      8581      8579      8591      8582      8585      8586      8583      8582      8584
      8583      8582      8585      8584      8582      8585      8585      8586      8587
      8585      8586      8588      8586      8588      8589      8586      8588      8590
      8586      8588      8638      8587      8586      8588      8588      8638      8639
      8588      8638      8640      8588      8638      8641      8589      8588      8590
      8589      8588      8638      8590      8588      8638      8591      8594      8595
      8591      8594      8596      8591      8594      8597      8592      8591      8593
      8592      8591      8594      8593      8591      8594      8594      8597      8598
      8594      8597      8599      8594      8597      8600      8595      8594      8596
      8595      8594      8597      8596      8594      8597      8597      8600      8601
      8597      8600      8602      8597      8600      8603      8598      8597      8599
      8598      8597      8600      8599      8597      8600      8600      8603      8604
      8600      8603      8605      8600      8603      8606      8601      8600      8602
      8601      8600      8603      8602      8600      8603      8603      8606      8607
      8603      8606      8608      8603      8606      8609      8604      8603      8605
      8604      8603      8606      8605      8603      8606      8606      8609      8610
      8606      8609      8611      8607      8606      8608      8607      8606      8609
      8608      8606      8609      8609      8611      8612      8609      8611      8613
      8610      8609      8611      8611      8613      8614      8611      8613      8615
      8611      8613      8616      8612      8611      8613      8613      8616      8617
      8613      8616      8618      8613      8616      8619      8614      8613      8615
      8614      8613      8616      8615      8613      8616      8616      8619      8620
      8616      8619      8621      8616      8619      8622      8617      8616      8618
      8617      8616      8619      8618      8616      8619      8619      8622      8623
      8619      8622      8624      8619      8622      8625      8620      8619      8621
      8620      8619      8622      8621      8619      8622      8622      8625      8626
      8622      8625      8627      8622      8625      8628      8623      8622      8624
      8623      8622      8625      8624      8622      8625      8625      8628      8629
      8625      8628      8630      8625      8628      8631      8626      8625      8627
      8626      8625      8628      8627      8625      8628      8628      8631      8632
      8628      8631      8633      8628      8631      8634      8629      8628      8630
      8629      8628      8631      8630      8628      8631      8631      8634      8635
      8631      8634      8636      8631      8634      8637      8632      8631      8633
      8632      8631      8634      8633      8631      8634      8635      8634      8636
      8635      8634      8637      8636      8634      8637      8638      8641      8642
      8638      8641      8643      8638      8641      8644      8639      8638      8640
      8639      8638      8641      8640      8638      8641      8641      8644      8645
      8641      8644      8646      8641      8644      8647      8642      8641      8643
      8642      8641      8644      8643      8641      8644      8644      8647      8648
      8644      8647      8649      8644      8647      8650      8645      8644      8646
      8645      8644      8647      8646      8644      8647      8647      8650      8651
      8647      8650      8652      8647      8650      8653      8648      8647      8649
      8648      8647      8650      8649      8647      8650      8650      8653      8654
      8650      8653      8655      8650      8653      8656      8651      8650      8652
      8651      8650      8653      8652      8650      8653      8653      8656      8657
      8653      8656      8658      8653      8656      8659      8654      8653      8655
      8654      8653      8656      8655      8653      8656      8656      8659      8660
      8656      8659      8661      8656      8659      8662      8657      8656      8658
      8657      8656      8659      8658      8656      8659      8659      8662      8663
      8659      8662      8664      8659      8662      8665      8660      8659      8661
      8660      8659      8662      8661      8659      8662      8662      8665      8666
      8662      8665      8667      8662      8665      8668      8663      8662      8664
      8663      8662      8665      8664      8662      8665      8665      8668      8669
      8665      8668      8670      8665      8668      8671      8666      8665      8667
      8666      8665      8668      8667      8665      8668      8668      8671      8672
      8668      8671      8673      8668      8671      8674      8669      8668      8670
      8669      8668      8671      8670      8668      8671      8671      8674      8675
      8671      8674      8676      8671      8674      8677      8672      8671      8673
      8672      8671      8674      8673      8671      8674      8674      8677      8678
      8674      8677      8679      8674      8677      8680      8675      8674      8676
      8675      8674      8677      8676      8674      8677      8678      8677      8679
      8678      8677      8680      8679      8677      8680      8681      8685      8686
      8681      8685      8687      8681      8685      8688      8682      8681      8683
      8682      8681      8684      8682      8681      8685      8683      8681      8684
      8683      8681      8685      8684      8681      8685      8685      8688      8689
      8685      8688      8690      8685      8688      8695      8686      8685      8687
      8686      8685      8688      8687      8685      8688      8688      8695      8691
      8689      8688      8690      8689      8688      8695      8690      8688      8695
      8691      8694      8696      8692      8691      8693      8692      8691      8694
      8692      8691      8695      8693      8691      8694      8693      8691      8695
      8694      8691      8695      8694      8696      8697      8694      8696      8698
      8694      8696      8699      8696      8699      8700      8696      8699      8701
      8696      8699      8707      8697      8696      8698      8697      8696      8699
      8698      8696      8699      8699      8701      8702      8699      8707      8708
      8699      8707      8709      8699      8707      8710      8700      8699      8701
      8700      8699      8707      8701      8699      8707      8701      8702      8703
      8701      8702      8704      8702      8704      8705      8702      8704      8706
      8702      8704      8716      8703      8702      8704      8704      8716      8717
      8704      8716      8718      8704      8716      8719      8705      8704      8706
      8705      8704      8716      8706      8704      8716      8707      8710      8711
      8708      8707      8709      8708      8707      8710      8709      8707      8710
      8710      8711      8712      8710      8711      8713      8711      8713      8714
      8711      8713      8715      8711      8713      8763      8712      8711      8713
      8713      8763      8764      8713      8763      8765      8713      8763      8766
      8714      8713      8715      8714      8713      8763      8715      8713      8763
      8716      8719      8720      8716      8719      8721      8716      8719      8722
      8717      8716      8718      8717      8716      8719      8718      8716      8719
      8719      8722      8723      8719      8722      8724      8719      8722      8725
      8720      8719      8721      8720      8719      8722      8721      8719      8722
      8722      8725      8726      8722      8725      8727      8722      8725      8728
      8723      8722      8724      8723      8722      8725      8724      8722      8725
      8725      8728      8729      8725      8728      8730      8725      8728      8731
      8726      8725      8727      8726      8725      8728      8727      8725      8728
      8728      8731      8732      8728      8731      8733      8728      8731      8734
      8729      8728      8730      8729      8728      8731      8730      8728      8731
      8731      8734      8735      8731      8734      8736      8732      8731      8733
      8732      8731      8734      8733      8731      8734      8734      8736      8737
      8734      8736      8738      8735      8734      8736      8736      8738      8739
      8736      8738      8740      8736      8738      8741      8737      8736      8738
      8738      8741      8742      8738      8741      8743      8738      8741      8744
      8739      8738      8740      8739      8738      8741      8740      8738      8741
      8741      8744      8745      8741      8744      8746      8741      8744      8747
      8742      8741      8743      8742      8741      8744      8743      8741      8744
      8744      8747      8748      8744      8747      8749      8744      8747      8750
      8745      8744      8746      8745      8744      8747      8746      8744      8747
      8747      8750      8751      8747      8750      8752      8747      8750      8753
      8748      8747      8749      8748      8747      8750      8749      8747      8750
      8750      8753      8754      8750      8753      8755      8750      8753      8756
      8751      8750      8752      8751      8750      8753      8752      8750      8753
      8753      8756      8757      8753      8756      8758      8753      8756      8759
      8754      8753      8755      8754      8753      8756      8755      8753      8756
      8756      8759      8760      8756      8759      8761      8756      8759      8762
      8757      8756      8758      8757      8756      8759      8758      8756      8759
      8760      8759      8761      8760      8759      8762      8761      8759      8762
      8763      8766      8767      8763      8766      8768      8763      8766      8769
      8764      8763      8765      8764      8763      8766      8765      8763      8766
      8766      8769      8770      8766      8769      8771      8766      8769      8772
      8767      8766      8768      8767      8766      8769      8768      8766      8769
      8769      8772      8773      8769      8772      8774      8769      8772      8775
      8770      8769      8771      8770      8769      8772      8771      8769      8772
      8772      8775      8776      8772      8775      8777      8772      8775      8778
      8773      8772      8774      8773      8772      8775      8774      8772      8775
      8775      8778      8779      8775      8778      8780      8775      8778      8781
      8776      8775      8777      8776      8775      8778      8777      8775      8778
      8778      8781      8782      8778      8781      8783      8778      8781      8784
      8779      8778      8780      8779      8778      8781      8780      8778      8781
      8781      8784      8785      8781      8784      8786      8781      8784      8787
      8782      8781      8783      8782      8781      8784      8783      8781      8784
      8784      8787      8788      8784      8787      8789      8784      8787      8790
      8785      8784      8786      8785      8784      8787      8786      8784      8787
      8787      8790      8791      8787      8790      8792      8787      8790      8793
      8788      8787      8789      8788      8787      8790      8789      8787      8790
      8790      8793      8794      8790      8793      8795      8790      8793      8796
      8791      8790      8792      8791      8790      8793      8792      8790      8793
      8793      8796      8797      8793      8796      8798      8793      8796      8799
      8794      8793      8795      8794      8793      8796      8795      8793      8796
      8796      8799      8800      8796      8799      8801      8796      8799      8802
      8797      8796      8798      8797      8796      8799      8798      8796      8799
      8799      8802      8803      8799      8802      8804      8799      8802      8805
      8800      8799      8801      8800      8799      8802      8801      8799      8802
      8803      8802      8804      8803      8802      8805      8804      8802      8805
      8806      8807      8808      8806      8807      8809      8806      8807      8822
      8806      8810      8811      8806      8810      8812      8806      8810      8813
      8806      8814      8815      8806      8814      8816      8806      8814      8817
      8806      8818      8819      8806      8818      8820      8806      8818      8821
      8807      8806      8810      8807      8806      8814      8807      8806      8818
      8807      8822      8823      8807      8822      8824      8807      8822      8828
      8808      8807      8809      8808      8807      8822      8809      8807      8822
      8810      8806      8814      8810      8806      8818      8811      8810      8812
      8811      8810      8813      8812      8810      8813      8814      8806      8818
      8815      8814      8816      8815      8814      8817      8816      8814      8817
      8819      8818      8820      8819      8818      8821      8820      8818      8821
      8822      8828      8825      8823      8822      8824      8823      8822      8828
      8824      8822      8828      8825      8829      8830      8826      8825      8827
      8826      8825      8828      8826      8825      8829      8827      8825      8828
      8827      8825      8829      8828      8825      8829      8829      8830      8831
      8829      8830      8832      8829      8830      8833      8830      8833      8834
      8830      8833      8835      8830      8833      8841      8831      8830      8832
      8831      8830      8833      8832      8830      8833      8833      8835      8836
      8833      8841      8842      8833      8841      8843      8833      8841      8844
      8834      8833      8835      8834      8833      8841      8835      8833      8841
      8835      8836      8837      8835      8836      8838      8836      8838      8839
      8836      8838      8840      8836      8838      8850      8837      8836      8838
      8838      8850      8851      8838      8850      8852      8838      8850      8853
      8839      8838      8840      8839      8838      8850      8840      8838      8850
      8841      8844      8845      8842      8841      8843      8842      8841      8844
      8843      8841      8844      8844      8845      8846      8844      8845      8847
      8845      8847      8848      8845      8847      8849      8845      8847      8897
      8846      8845      8847      8847      8897      8898      8847      8897      8899
      8847      8897      8900      8848      8847      8849      8848      8847      8897
      8849      8847      8897      8850      8853      8854      8850      8853      8855
      8850      8853      8856      8851      8850      8852      8851      8850      8853
      8852      8850      8853      8853      8856      8857      8853      8856      8858
      8853      8856      8859      8854      8853      8855      8854      8853      8856
      8855      8853      8856      8856      8859      8860      8856      8859      8861
      8856      8859      8862      8857      8856      8858      8857      8856      8859
      8858      8856      8859      8859      8862      8863      8859      8862      8864
      8859      8862      8865      8860      8859      8861      8860      8859      8862
      8861      8859      8862      8862      8865      8866      8862      8865      8867
      8862      8865      8868      8863      8862      8864      8863      8862      8865
      8864      8862      8865      8865      8868      8869      8865      8868      8870
      8866      8865      8867      8866      8865      8868      8867      8865      8868
      8868      8870      8871      8868      8870      8872      8869      8868      8870
      8870      8872      8873      8870      8872      8874      8870      8872      8875
      8871      8870      8872      8872      8875      8876      8872      8875      8877
      8872      8875      8878      8873      8872      8874      8873      8872      8875
      8874      8872      8875      8875      8878      8879      8875      8878      8880
      8875      8878      8881      8876      8875      8877      8876      8875      8878
      8877      8875      8878      8878      8881      8882      8878      8881      8883
      8878      8881      8884      8879      8878      8880      8879      8878      8881
      8880      8878      8881      8881      8884      8885      8881      8884      8886
      8881      8884      8887      8882      8881      8883      8882      8881      8884
      8883      8881      8884      8884      8887      8888      8884      8887      8889
      8884      8887      8890      8885      8884      8886      8885      8884      8887
      8886      8884      8887      8887      8890      8891      8887      8890      8892
      8887      8890      8893      8888      8887      8889      8888      8887      8890
      8889      8887      8890      8890      8893      8894      8890      8893      8895
      8890      8893      8896      8891      8890      8892      8891      8890      8893
      8892      8890      8893      8894      8893      8895      8894      8893      8896
      8895      8893      8896      8897      8900      8901      8897      8900      8902
      8897      8900      8903      8898      8897      8899      8898      8897      8900
      8899      8897      8900      8900      8903      8904      8900      8903      8905
      8900      8903      8906      8901      8900      8902      8901      8900      8903
      8902      8900      8903      8903      8906      8907      8903      8906      8908
      8903      8906      8909      8904      8903      8905      8904      8903      8906
      8905      8903      8906      8906      8909      8910      8906      8909      8911
      8906      8909      8912      8907      8906      8908      8907      8906      8909
      8908      8906      8909      8909      8912      8913      8909      8912      8914
      8909      8912      8915      8910      8909      8911      8910      8909      8912
      8911      8909      8912      8912      8915      8916      8912      8915      8917
      8912      8915      8918      8913      8912      8914      8913      8912      8915
      8914      8912      8915      8915      8918      8919      8915      8918      8920
      8915      8918      8921      8916      8915      8917      8916      8915      8918
      8917      8915      8918      8918      8921      8922      8918      8921      8923
      8918      8921      8924      8919      8918      8920      8919      8918      8921
      8920      8918      8921      8921      8924      8925      8921      8924      8926
      8921      8924      8927      8922      8921      8923      8922      8921      8924
      8923      8921      8924      8924      8927      8928      8924      8927      8929
      8924      8927      8930      8925      8924      8926      8925      8924      8927
      8926      8924      8927      8927      8930      8931      8927      8930      8932
      8927      8930      8933      8928      8927      8929      8928      8927      8930
      8929      8927      8930      8930      8933      8934      8930      8933      8935
      8930      8933      8936      8931      8930      8932      8931      8930      8933
      8932      8930      8933      8933      8936      8937      8933      8936      8938
      8933      8936      8939      8934      8933      8935      8934      8933      8936
      8935      8933      8936      8937      8936      8938      8937      8936      8939
      8938      8936      8939      8940      8944      8945      8940      8944      8946
      8940      8944      8947      8941      8940      8942      8941      8940      8943
      8941      8940      8944      8942      8940      8943      8942      8940      8944
      8943      8940      8944      8944      8947      8948      8944      8947      8949
      8944      8947      8954      8945      8944      8946      8945      8944      8947
      8946      8944      8947      8947      8954      8950      8948      8947      8949
      8948      8947      8954      8949      8947      8954      8950      8953      8955
      8951      8950      8952      8951      8950      8953      8951      8950      8954
      8952      8950      8953      8952      8950      8954      8953      8950      8954
      8953      8955      8956      8953      8955      8957      8953      8955      8958
      8955      8958      8959      8955      8958      8960      8955      8958      8966
      8956      8955      8957      8956      8955      8958      8957      8955      8958
      8958      8960      8961      8958      8966      8967      8958      8966      8968
      8958      8966      8969      8959      8958      8960      8959      8958      8966
      8960      8958      8966      8960      8961      8962      8960      8961      8963
      8961      8963      8964      8961      8963      8965      8961      8963      8975
      8962      8961      8963      8963      8975      8976      8963      8975      8977
      8963      8975      8978      8964      8963      8965      8964      8963      8975
      8965      8963      8975      8966      8969      8970      8967      8966      8968
      8967      8966      8969      8968      8966      8969      8969      8970      8971
      8969      8970      8972      8970      8972      8973      8970      8972      8974
      8970      8972      9022      8971      8970      8972      8972      9022      9023
      8972      9022      9024      8972      9022      9025      8973      8972      8974
      8973      8972      9022      8974      8972      9022      8975      8978      8979
      8975      8978      8980      8975      8978      8981      8976      8975      8977
      8976      8975      8978      8977      8975      8978      8978      8981      8982
      8978      8981      8983      8978      8981      8984      8979      8978      8980
      8979      8978      8981      8980      8978      8981      8981      8984      8985
      8981      8984      8986      8981      8984      8987      8982      8981      8983
      8982      8981      8984      8983      8981      8984      8984      8987      8988
      8984      8987      8989      8984      8987      8990      8985      8984      8986
      8985      8984      8987      8986      8984      8987      8987      8990      8991
      8987      8990      8992      8987      8990      8993      8988      8987      8989
      8988      8987      8990      8989      8987      8990      8990      8993      8994
      8990      8993      8995      8991      8990      8992      8991      8990      8993
      8992      8990      8993      8993      8995      8996      8993      8995      8997
      8994      8993      8995      8995      8997      8998      8995      8997      8999
      8995      8997      9000      8996      8995      8997      8997      9000      9001
      8997      9000      9002      8997      9000      9003      8998      8997      8999
      8998      8997      9000      8999      8997      9000      9000      9003      9004
      9000      9003      9005      9000      9003      9006      9001      9000      9002
      9001      9000      9003      9002      9000      9003      9003      9006      9007
      9003      9006      9008      9003      9006      9009      9004      9003      9005
      9004      9003      9006      9005      9003      9006      9006      9009      9010
      9006      9009      9011      9006      9009      9012      9007      9006      9008
      9007      9006      9009      9008      9006      9009      9009      9012      9013
      9009      9012      9014      9009      9012      9015      9010      9009      9011
      9010      9009      9012      9011      9009      9012      9012      9015      9016
      9012      9015      9017      9012      9015      9018      9013      9012      9014
      9013      9012      9015      9014      9012      9015      9015      9018      9019
      9015      9018      9020      9015      9018      9021      9016      9015      9017
      9016      9015      9018      9017      9015      9018      9019      9018      9020
      9019      9018      9021      9020      9018      9021      9022      9025      9026
      9022      9025      9027      9022      9025      9028      9023      9022      9024
      9023      9022      9025      9024      9022      9025      9025      9028      9029
      9025      9028      9030      9025      9028      9031      9026      9025      9027
      9026      9025      9028      9027      9025      9028      9028      9031      9032
      9028      9031      9033      9028      9031      9034      9029      9028      9030
      9029      9028      9031      9030      9028      9031      9031      9034      9035
      9031      9034      9036      9031      9034      9037      9032      9031      9033
      9032      9031      9034      9033      9031      9034      9034      9037      9038
      9034      9037      9039      9034      9037      9040      9035      9034      9036
      9035      9034      9037      9036      9034      9037      9037      9040      9041
      9037      9040      9042      9037      9040      9043      9038      9037      9039
      9038      9037      9040      9039      9037      9040      9040      9043      9044
      9040      9043      9045      9040      9043      9046      9041      9040      9042
      9041      9040      9043      9042      9040      9043      9043      9046      9047
      9043      9046      9048      9043      9046      9049      9044      9043      9045
      9044      9043      9046      9045      9043      9046      9046      9049      9050
      9046      9049      9051      9046      9049      9052      9047      9046      9048
      9047      9046      9049      9048      9046      9049      9049      9052      9053
      9049      9052      9054      9049      9052      9055      9050      9049      9051
      9050      9049      9052      9051      9049      9052      9052      9055      9056
      9052      9055      9057      9052      9055      9058      9053      9052      9054
      9053      9052      9055      9054      9052      9055      9055      9058      9059
      9055      9058      9060      9055      9058      9061      9056      9055      9057
      9056      9055      9058      9057      9055      9058      9058      9061      9062
      9058      9061      9063      9058      9061      9064      9059      9058      9060
      9059      9058      9061      9060      9058      9061      9062      9061      9063
      9062      9061      9064      9063      9061      9064      9065      9066      9067
      9065      9066      9068      9065      9066      9081      9065      9069      9070
      9065      9069      9071      9065      9069      9072      9065      9073      9074
      9065      9073      9075      9065      9073      9076      9065      9077      9078
      9065      9077      9079      9065      9077      9080      9066      9065      9069
      9066      9065      9073      9066      9065      9077      9066      9081      9082
      9066      9081      9083      9066      9081      9087      9067      9066      9068
      9067      9066      9081      9068      9066      9081      9069      9065      9073
      9069      9065      9077      9070      9069      9071      9070      9069      9072
      9071      9069      9072      9073      9065      9077      9074      9073      9075
      9074      9073      9076      9075      9073      9076      9078      9077      9079
      9078      9077      9080      9079      9077      9080      9081      9087      9084
      9082      9081      9083      9082      9081      9087      9083      9081      9087
      9084      9088      9089      9085      9084      9086      9085      9084      9087
      9085      9084      9088      9086      9084      9087      9086      9084      9088
      9087      9084      9088      9088      9089      9090      9088      9089      9091
      9088      9089      9092      9089      9092      9093      9089      9092      9094
      9089      9092      9100      9090      9089      9091      9090      9089      9092
      9091      9089      9092      9092      9094      9095      9092      9100      9101
      9092      9100      9102      9092      9100      9103      9093      9092      9094
      9093      9092      9100      9094      9092      9100      9094      9095      9096
      9094      9095      9097      9095      9097      9098      9095      9097      9099
      9095      9097      9109      9096      9095      9097      9097      9109      9110
      9097      9109      9111      9097      9109      9112      9098      9097      9099
      9098      9097      9109      9099      9097      9109      9100      9103      9104
      9101      9100      9102      9101      9100      9103      9102      9100      9103
      9103      9104      9105      9103      9104      9106      9104      9106      9107
      9104      9106      9108      9104      9106      9156      9105      9104      9106
      9106      9156      9157      9106      9156      9158      9106      9156      9159
      9107      9106      9108      9107      9106      9156      9108      9106      9156
      9109      9112      9113      9109      9112      9114      9109      9112      9115
      9110      9109      9111      9110      9109      9112      9111      9109      9112
      9112      9115      9116      9112      9115      9117      9112      9115      9118
      9113      9112      9114      9113      9112      9115      9114      9112      9115
      9115      9118      9119      9115      9118      9120      9115      9118      9121
      9116      9115      9117      9116      9115      9118      9117      9115      9118
      9118      9121      9122      9118      9121      9123      9118      9121      9124
      9119      9118      9120      9119      9118      9121      9120      9118      9121
      9121      9124      9125      9121      9124      9126      9121      9124      9127
      9122      9121      9123      9122      9121      9124      9123      9121      9124
      9124      9127      9128      9124      9127      9129      9125      9124      9126
      9125      9124      9127      9126      9124      9127      9127      9129      9130
      9127      9129      9131      9128      9127      9129      9129      9131      9132
      9129      9131      9133      9129      9131      9134      9130      9129      9131
      9131      9134      9135      9131      9134      9136      9131      9134      9137
      9132      9131      9133      9132      9131      9134      9133      9131      9134
      9134      9137      9138      9134      9137      9139      9134      9137      9140
      9135      9134      9136      9135      9134      9137      9136      9134      9137
      9137      9140      9141      9137      9140      9142      9137      9140      9143
      9138      9137      9139      9138      9137      9140      9139      9137      9140
      9140      9143      9144      9140      9143      9145      9140      9143      9146
      9141      9140      9142      9141      9140      9143      9142      9140      9143
      9143      9146      9147      9143      9146      9148      9143      9146      9149
      9144      9143      9145      9144      9143      9146      9145      9143      9146
      9146      9149      9150      9146      9149      9151      9146      9149      9152
      9147      9146      9148      9147      9146      9149      9148      9146      9149
      9149      9152      9153      9149      9152      9154      9149      9152      9155
      9150      9149      9151      9150      9149      9152      9151      9149      9152
      9153      9152      9154      9153      9152      9155      9154      9152      9155
      9156      9159      9160      9156      9159      9161      9156      9159      9162
      9157      9156      9158      9157      9156      9159      9158      9156      9159
      9159      9162      9163      9159      9162      9164      9159      9162      9165
      9160      9159      9161      9160      9159      9162      9161      9159      9162
      9162      9165      9166      9162      9165      9167      9162      9165      9168
      9163      9162      9164      9163      9162      9165      9164      9162      9165
      9165      9168      9169      9165      9168      9170      9165      9168      9171
      9166      9165      9167      9166      9165      9168      9167      9165      9168
      9168      9171      9172      9168      9171      9173      9168      9171      9174
      9169      9168      9170      9169      9168      9171      9170      9168      9171
      9171      9174      9175      9171      9174      9176      9171      9174      9177
      9172      9171      9173      9172      9171      9174      9173      9171      9174
      9174      9177      9178      9174      9177      9179      9174      9177      9180
      9175      9174      9176      9175      9174      9177      9176      9174      9177
      9177      9180      9181      9177      9180      9182      9177      9180      9183
      9178      9177      9179      9178      9177      9180      9179      9177      9180
      9180      9183      9184      9180      9183      9185      9180      9183      9186
      9181      9180      9182      9181      9180      9183      9182      9180      9183
      9183      9186      9187      9183      9186      9188      9183      9186      9189
      9184      9183      9185      9184      9183      9186      9185      9183      9186
      9186      9189      9190      9186      9189      9191      9186      9189      9192
      9187      9186      9188      9187      9186      9189      9188      9186      9189
      9189      9192      9193      9189      9192      9194      9189      9192      9195
      9190      9189      9191      9190      9189      9192      9191      9189      9192
      9192      9195      9196      9192      9195      9197      9192      9195      9198
      9193      9192      9194      9193      9192      9195      9194      9192      9195
      9196      9195      9197      9196      9195      9198      9197      9195      9198
      9199      9203      9204      9199      9203      9205      9199      9203      9206
      9200      9199      9201      9200      9199      9202      9200      9199      9203
      9201      9199      9202      9201      9199      9203      9202      9199      9203
      9203      9206      9207      9203      9206      9208      9203      9206      9213
      9204      9203      9205      9204      9203      9206      9205      9203      9206
      9206      9213      9209      9207      9206      9208      9207      9206      9213
      9208      9206      9213      9209      9212      9214      9210      9209      9211
      9210      9209      9212      9210      9209      9213      9211      9209      9212
      9211      9209      9213      9212      9209      9213      9212      9214      9215
      9212      9214      9216      9212      9214      9217      9214      9217      9218
      9214      9217      9219      9214      9217      9225      9215      9214      9216
      9215      9214      9217      9216      9214      9217      9217      9219      9220
      9217      9225      9226      9217      9225      9227      9217      9225      9228
      9218      9217      9219      9218      9217      9225      9219      9217      9225
      9219      9220      9221      9219      9220      9222      9220      9222      9223
      9220      9222      9224      9220      9222      9234      9221      9220      9222
      9222      9234      9235      9222      9234      9236      9222      9234      9237
      9223      9222      9224      9223      9222      9234      9224      9222      9234
      9225      9228      9229      9226      9225      9227      9226      9225      9228
      9227      9225      9228      9228      9229      9230      9228      9229      9231
      9229      9231      9232      9229      9231      9233      9229      9231      9281
      9230      9229      9231      9231      9281      9282      9231      9281      9283
      9231      9281      9284      9232      9231      9233      9232      9231      9281
      9233      9231      9281      9234      9237      9238      9234      9237      9239
      9234      9237      9240      9235      9234      9236      9235      9234      9237
      9236      9234      9237      9237      9240      9241      9237      9240      9242
      9237      9240      9243      9238      9237      9239      9238      9237      9240
      9239      9237      9240      9240      9243      9244      9240      9243      9245
      9240      9243      9246      9241      9240      9242      9241      9240      9243
      9242      9240      9243      9243      9246      9247      9243      9246      9248
      9243      9246      9249      9244      9243      9245      9244      9243      9246
      9245      9243      9246      9246      9249      9250      9246      9249      9251
      9246      9249      9252      9247      9246      9248      9247      9246      9249
      9248      9246      9249      9249      9252      9253      9249      9252      9254
      9250      9249      9251      9250      9249      9252      9251      9249      9252
      9252      9254      9255      9252      9254      9256      9253      9252      9254
      9254      9256      9257      9254      9256      9258      9254      9256      9259
      9255      9254      9256      9256      9259      9260      9256      9259      9261
      9256      9259      9262      9257      9256      9258      9257      9256      9259
      9258      9256      9259      9259      9262      9263      9259      9262      9264
      9259      9262      9265      9260      9259      9261      9260      9259      9262
      9261      9259      9262      9262      9265      9266      9262      9265      9267
      9262      9265      9268      9263      9262      9264      9263      9262      9265
      9264      9262      9265      9265      9268      9269      9265      9268      9270
      9265      9268      9271      9266      9265      9267      9266      9265      9268
      9267      9265      9268      9268      9271      9272      9268      9271      9273
      9268      9271      9274      9269      9268      9270      9269      9268      9271
      9270      9268      9271      9271      9274      9275      9271      9274      9276
      9271      9274      9277      9272      9271      9273      9272      9271      9274
      9273      9271      9274      9274      9277      9278      9274      9277      9279
      9274      9277      9280      9275      9274      9276      9275      9274      9277
      9276      9274      9277      9278      9277      9279      9278      9277      9280
      9279      9277      9280      9281      9284      9285      9281      9284      9286
      9281      9284      9287      9282      9281      9283      9282      9281      9284
      9283      9281      9284      9284      9287      9288      9284      9287      9289
      9284      9287      9290      9285      9284      9286      9285      9284      9287
      9286      9284      9287      9287      9290      9291      9287      9290      9292
      9287      9290      9293      9288      9287      9289      9288      9287      9290
      9289      9287      9290      9290      9293      9294      9290      9293      9295
      9290      9293      9296      9291      9290      9292      9291      9290      9293
      9292      9290      9293      9293      9296      9297      9293      9296      9298
      9293      9296      9299      9294      9293      9295      9294      9293      9296
      9295      9293      9296      9296      9299      9300      9296      9299      9301
      9296      9299      9302      9297      9296      9298      9297      9296      9299
      9298      9296      9299      9299      9302      9303      9299      9302      9304
      9299      9302      9305      9300      9299      9301      9300      9299      9302
      9301      9299      9302      9302      9305      9306      9302      9305      9307
      9302      9305      9308      9303      9302      9304      9303      9302      9305
      9304      9302      9305      9305      9308      9309      9305      9308      9310
      9305      9308      9311      9306      9305      9307      9306      9305      9308
      9307      9305      9308      9308      9311      9312      9308      9311      9313
      9308      9311      9314      9309      9308      9310      9309      9308      9311
      9310      9308      9311      9311      9314      9315      9311      9314      9316
      9311      9314      9317      9312      9311      9313      9312      9311      9314
      9313      9311      9314      9314      9317      9318      9314      9317      9319
      9314      9317      9320      9315      9314      9316      9315      9314      9317
      9316      9314      9317      9317      9320      9321      9317      9320      9322
      9317      9320      9323      9318      9317      9319      9318      9317      9320
      9319      9317      9320      9321      9320      9322      9321      9320      9323
      9322      9320      9323      9324      9328      9329      9324      9328      9330
      9324      9328      9331      9325      9324      9326      9325      9324      9327
      9325      9324      9328      9326      9324      9327      9326      9324      9328
      9327      9324      9328      9328      9331      9332      9328      9331      9333
      9328      9331      9338      9329      9328      9330      9329      9328      9331
      9330      9328      9331      9331      9338      9334      9332      9331      9333
      9332      9331      9338      9333      9331      9338      9334      9337      9339
      9335      9334      9336      9335      9334      9337      9335      9334      9338
      9336      9334      9337      9336      9334      9338      9337      9334      9338
      9337      9339      9340      9337      9339      9341      9337      9339      9342
      9339      9342      9343      9339      9342      9344      9339      9342      9350
      9340      9339      9341      9340      9339      9342      9341      9339      9342
      9342      9344      9345      9342      9350      9351      9342      9350      9352
      9342      9350      9353      9343      9342      9344      9343      9342      9350
      9344      9342      9350      9344      9345      9346      9344      9345      9347
      9345      9347      9348      9345      9347      9349      9345      9347      9359
      9346      9345      9347      9347      9359      9360      9347      9359      9361
      9347      9359      9362      9348      9347      9349      9348      9347      9359
      9349      9347      9359      9350      9353      9354      9351      9350      9352
      9351      9350      9353      9352      9350      9353      9353      9354      9355
      9353      9354      9356      9354      9356      9357      9354      9356      9358
      9354      9356      9406      9355      9354      9356      9356      9406      9407
      9356      9406      9408      9356      9406      9409      9357      9356      9358
      9357      9356      9406      9358      9356      9406      9359      9362      9363
      9359      9362      9364      9359      9362      9365      9360      9359      9361
      9360      9359      9362      9361      9359      9362      9362      9365      9366
      9362      9365      9367      9362      9365      9368      9363      9362      9364
      9363      9362      9365      9364      9362      9365      9365      9368      9369
      9365      9368      9370      9365      9368      9371      9366      9365      9367
      9366      9365      9368      9367      9365      9368      9368      9371      9372
      9368      9371      9373      9368      9371      9374      9369      9368      9370
      9369      9368      9371      9370      9368      9371      9371      9374      9375
      9371      9374      9376      9371      9374      9377      9372      9371      9373
      9372      9371      9374      9373      9371      9374      9374      9377      9378
      9374      9377      9379      9375      9374      9376      9375      9374      9377
      9376      9374      9377      9377      9379      9380      9377      9379      9381
      9378      9377      9379      9379      9381      9382      9379      9381      9383
      9379      9381      9384      9380      9379      9381      9381      9384      9385
      9381      9384      9386      9381      9384      9387      9382      9381      9383
      9382      9381      9384      9383      9381      9384      9384      9387      9388
      9384      9387      9389      9384      9387      9390      9385      9384      9386
      9385      9384      9387      9386      9384      9387      9387      9390      9391
      9387      9390      9392      9387      9390      9393      9388      9387      9389
      9388      9387      9390      9389      9387      9390      9390      9393      9394
      9390      9393      9395      9390      9393      9396      9391      9390      9392
      9391      9390      9393      9392      9390      9393      9393      9396      9397
      9393      9396      9398      9393      9396      9399      9394      9393      9395
      9394      9393      9396      9395      9393      9396      9396      9399      9400
      9396      9399      9401      9396      9399      9402      9397      9396      9398
      9397      9396      9399      9398      9396      9399      9399      9402      9403
      9399      9402      9404      9399      9402      9405      9400      9399      9401
      9400      9399      9402      9401      9399      9402      9403      9402      9404
      9403      9402      9405      9404      9402      9405      9406      9409      9410
      9406      9409      9411      9406      9409      9412      9407      9406      9408
      9407      9406      9409      9408      9406      9409      9409      9412      9413
      9409      9412      9414      9409      9412      9415      9410      9409      9411
      9410      9409      9412      9411      9409      9412      9412      9415      9416
      9412      9415      9417      9412      9415      9418      9413      9412      9414
      9413      9412      9415      9414      9412      9415      9415      9418      9419
      9415      9418      9420      9415      9418      9421      9416      9415      9417
      9416      9415      9418      9417      9415      9418      9418      9421      9422
      9418      9421      9423      9418      9421      9424      9419      9418      9420
      9419      9418      9421      9420      9418      9421      9421      9424      9425
      9421      9424      9426      9421      9424      9427      9422      9421      9423
      9422      9421      9424      9423      9421      9424      9424      9427      9428
      9424      9427      9429      9424      9427      9430      9425      9424      9426
      9425      9424      9427      9426      9424      9427      9427      9430      9431
      9427      9430      9432      9427      9430      9433      9428      9427      9429
      9428      9427      9430      9429      9427      9430      9430      9433      9434
      9430      9433      9435      9430      9433      9436      9431      9430      9432
      9431      9430      9433      9432      9430      9433      9433      9436      9437
      9433      9436      9438      9433      9436      9439      9434      9433      9435
      9434      9433      9436      9435      9433      9436      9436      9439      9440
      9436      9439      9441      9436      9439      9442      9437      9436      9438
      9437      9436      9439      9438      9436      9439      9439      9442      9443
      9439      9442      9444      9439      9442      9445      9440      9439      9441
      9440      9439      9442      9441      9439      9442      9442      9445      9446
      9442      9445      9447      9442      9445      9448      9443      9442      9444
      9443      9442      9445      9444      9442      9445      9446      9445      9447
      9446      9445      9448      9447      9445      9448      9449      9450      9451
      9449      9450      9452      9449      9450      9465      9449      9453      9454
      9449      9453      9455      9449      9453      9456      9449      9457      9458
      9449      9457      9459      9449      9457      9460      9449      9461      9462
      9449      9461      9463      9449      9461      9464      9450      9449      9453
      9450      9449      9457      9450      9449      9461      9450      9465      9466
      9450      9465      9467      9450      9465      9471      9451      9450      9452
      9451      9450      9465      9452      9450      9465      9453      9449      9457
      9453      9449      9461      9454      9453      9455      9454      9453      9456
      9455      9453      9456      9457      9449      9461      9458      9457      9459
      9458      9457      9460      9459      9457      9460      9462      9461      9463
      9462      9461      9464      9463      9461      9464      9465      9471      9468
      9466      9465      9467      9466      9465      9471      9467      9465      9471
      9468      9472      9473      9469      9468      9470      9469      9468      9471
      9469      9468      9472      9470      9468      9471      9470      9468      9472
      9471      9468      9472      9472      9473      9474      9472      9473      9475
      9472      9473      9476      9473      9476      9477      9473      9476      9478
      9473      9476      9484      9474      9473      9475      9474      9473      9476
      9475      9473      9476      9476      9478      9479      9476      9484      9485
      9476      9484      9486      9476      9484      9487      9477      9476      9478
      9477      9476      9484      9478      9476      9484      9478      9479      9480
      9478      9479      9481      9479      9481      9482      9479      9481      9483
      9479      9481      9493      9480      9479      9481      9481      9493      9494
      9481      9493      9495      9481      9493      9496      9482      9481      9483
      9482      9481      9493      9483      9481      9493      9484      9487      9488
      9485      9484      9486      9485      9484      9487      9486      9484      9487
      9487      9488      9489      9487      9488      9490      9488      9490      9491
      9488      9490      9492      9488      9490      9540      9489      9488      9490
      9490      9540      9541      9490      9540      9542      9490      9540      9543
      9491      9490      9492      9491      9490      9540      9492      9490      9540
      9493      9496      9497      9493      9496      9498      9493      9496      9499
      9494      9493      9495      9494      9493      9496      9495      9493      9496
      9496      9499      9500      9496      9499      9501      9496      9499      9502
      9497      9496      9498      9497      9496      9499      9498      9496      9499
      9499      9502      9503      9499      9502      9504      9499      9502      9505
      9500      9499      9501      9500      9499      9502      9501      9499      9502
      9502      9505      9506      9502      9505      9507      9502      9505      9508
      9503      9502      9504      9503      9502      9505      9504      9502      9505
      9505      9508      9509      9505      9508      9510      9505      9508      9511
      9506      9505      9507      9506      9505      9508      9507      9505      9508
      9508      9511      9512      9508      9511      9513      9509      9508      9510
      9509      9508      9511      9510      9508      9511      9511      9513      9514
      9511      9513      9515      9512      9511      9513      9513      9515      9516
      9513      9515      9517      9513      9515      9518      9514      9513      9515
      9515      9518      9519      9515      9518      9520      9515      9518      9521
      9516      9515      9517      9516      9515      9518      9517      9515      9518
      9518      9521      9522      9518      9521      9523      9518      9521      9524
      9519      9518      9520      9519      9518      9521      9520      9518      9521
      9521      9524      9525      9521      9524      9526      9521      9524      9527
      9522      9521      9523      9522      9521      9524      9523      9521      9524
      9524      9527      9528      9524      9527      9529      9524      9527      9530
      9525      9524      9526      9525      9524      9527      9526      9524      9527
      9527      9530      9531      9527      9530      9532      9527      9530      9533
      9528      9527      9529      9528      9527      9530      9529      9527      9530
      9530      9533      9534      9530      9533      9535      9530      9533      9536
      9531      9530      9532      9531      9530      9533      9532      9530      9533
      9533      9536      9537      9533      9536      9538      9533      9536      9539
      9534      9533      9535      9534      9533      9536      9535      9533      9536
      9537      9536      9538      9537      9536      9539      9538      9536      9539
      9540      9543      9544      9540      9543      9545      9540      9543      9546
      9541      9540      9542      9541      9540      9543      9542      9540      9543
      9543      9546      9547      9543      9546      9548      9543      9546      9549
      9544      9543      9545      9544      9543      9546      9545      9543      9546
      9546      9549      9550      9546      9549      9551      9546      9549      9552
      9547      9546      9548      9547      9546      9549      9548      9546      9549
      9549      9552      9553      9549      9552      9554      9549      9552      9555
      9550      9549      9551      9550      9549      9552      9551      9549      9552
      9552      9555      9556      9552      9555      9557      9552      9555      9558
      9553      9552      9554      9553      9552      9555      9554      9552      9555
      9555      9558      9559      9555      9558      9560      9555      9558      9561
      9556      9555      9557      9556      9555      9558      9557      9555      9558
      9558      9561      9562      9558      9561      9563      9558      9561      9564
      9559      9558      9560      9559      9558      9561      9560      9558      9561
      9561      9564      9565      9561      9564      9566      9561      9564      9567
      9562      9561      9563      9562      9561      9564      9563      9561      9564
      9564      9567      9568      9564      9567      9569      9564      9567      9570
      9565      9564      9566      9565      9564      9567      9566      9564      9567
      9567      9570      9571      9567      9570      9572      9567      9570      9573
      9568      9567      9569      9568      9567      9570      9569      9567      9570
      9570      9573      9574      9570      9573      9575      9570      9573      9576
      9571      9570      9572      9571      9570      9573      9572      9570      9573
      9573      9576      9577      9573      9576      9578      9573      9576      9579
      9574      9573      9575      9574      9573      9576      9575      9573      9576
      9576      9579      9580      9576      9579      9581      9576      9579      9582
      9577      9576      9578      9577      9576      9579      9578      9576      9579
      9580      9579      9581      9580      9579      9582      9581      9579      9582
      9583      9587      9588      9583      9587      9589      9583      9587      9590
      9584      9583      9585      9584      9583      9586      9584      9583      9587
      9585      9583      9586      9585      9583      9587      9586      9583      9587
      9587      9590      9591      9587      9590      9592      9587      9590      9597
      9588      9587      9589      9588      9587      9590      9589      9587      9590
      9590      9597      9593      9591      9590      9592      9591      9590      9597
      9592      9590      9597      9593      9596      9598      9594      9593      9595
      9594      9593      9596      9594      9593      9597      9595      9593      9596
      9595      9593      9597      9596      9593      9597      9596      9598      9599
      9596      9598      9600      9596      9598      9601      9598      9601      9602
      9598      9601      9603      9598      9601      9609      9599      9598      9600
      9599      9598      9601      9600      9598      9601      9601      9603      9604
      9601      9609      9610      9601      9609      9611      9601      9609      9612
      9602      9601      9603      9602      9601      9609      9603      9601      9609
      9603      9604      9605      9603      9604      9606      9604      9606      9607
      9604      9606      9608      9604      9606      9618      9605      9604      9606
      9606      9618      9619      9606      9618      9620      9606      9618      9621
      9607      9606      9608      9607      9606      9618      9608      9606      9618
      9609      9612      9613      9610      9609      9611      9610      9609      9612
      9611      9609      9612      9612      9613      9614      9612      9613      9615
      9613      9615      9616      9613      9615      9617      9613      9615      9665
      9614      9613      9615      9615      9665      9666      9615      9665      9667
      9615      9665      9668      9616      9615      9617      9616      9615      9665
      9617      9615      9665      9618      9621      9622      9618      9621      9623
      9618      9621      9624      9619      9618      9620      9619      9618      9621
      9620      9618      9621      9621      9624      9625      9621      9624      9626
      9621      9624      9627      9622      9621      9623      9622      9621      9624
      9623      9621      9624      9624      9627      9628      9624      9627      9629
      9624      9627      9630      9625      9624      9626      9625      9624      9627
      9626      9624      9627      9627      9630      9631      9627      9630      9632
      9627      9630      9633      9628      9627      9629      9628      9627      9630
      9629      9627      9630      9630      9633      9634      9630      9633      9635
      9630      9633      9636      9631      9630      9632      9631      9630      9633
      9632      9630      9633      9633      9636      9637      9633      9636      9638
      9634      9633      9635      9634      9633      9636      9635      9633      9636
      9636      9638      9639      9636      9638      9640      9637      9636      9638
      9638      9640      9641      9638      9640      9642      9638      9640      9643
      9639      9638      9640      9640      9643      9644      9640      9643      9645
      9640      9643      9646      9641      9640      9642      9641      9640      9643
      9642      9640      9643      9643      9646      9647      9643      9646      9648
      9643      9646      9649      9644      9643      9645      9644      9643      9646
      9645      9643      9646      9646      9649      9650      9646      9649      9651
      9646      9649      9652      9647      9646      9648      9647      9646      9649
      9648      9646      9649      9649      9652      9653      9649      9652      9654
      9649      9652      9655      9650      9649      9651      9650      9649      9652
      9651      9649      9652      9652      9655      9656      9652      9655      9657
      9652      9655      9658      9653      9652      9654      9653      9652      9655
      9654      9652      9655      9655      9658      9659      9655      9658      9660
      9655      9658      9661      9656      9655      9657      9656      9655      9658
      9657      9655      9658      9658      9661      9662      9658      9661      9663
      9658      9661      9664      9659      9658      9660      9659      9658      9661
      9660      9658      9661      9662      9661      9663      9662      9661      9664
      9663      9661      9664      9665      9668      9669      9665      9668      9670
      9665      9668      9671      9666      9665      9667      9666      9665      9668
      9667      9665      9668      9668      9671      9672      9668      9671      9673
      9668      9671      9674      9669      9668      9670      9669      9668      9671
      9670      9668      9671      9671      9674      9675      9671      9674      9676
      9671      9674      9677      9672      9671      9673      9672      9671      9674
      9673      9671      9674      9674      9677      9678      9674      9677      9679
      9674      9677      9680      9675      9674      9676      9675      9674      9677
      9676      9674      9677      9677      9680      9681      9677      9680      9682
      9677      9680      9683      9678      9677      9679      9678      9677      9680
      9679      9677      9680      9680      9683      9684      9680      9683      9685
      9680      9683      9686      9681      9680      9682      9681      9680      9683
      9682      9680      9683      9683      9686      9687      9683      9686      9688
      9683      9686      9689      9684      9683      9685      9684      9683      9686
      9685      9683      9686      9686      9689      9690      9686      9689      9691
      9686      9689      9692      9687      9686      9688      9687      9686      9689
      9688      9686      9689      9689      9692      9693      9689      9692      9694
      9689      9692      9695      9690      9689      9691      9690      9689      9692
      9691      9689      9692      9692      9695      9696      9692      9695      9697
      9692      9695      9698      9693      9692      9694      9693      9692      9695
      9694      9692      9695      9695      9698      9699      9695      9698      9700
      9695      9698      9701      9696      9695      9697      9696      9695      9698
      9697      9695      9698      9698      9701      9702      9698      9701      9703
      9698      9701      9704      9699      9698      9700      9699      9698      9701
      9700      9698      9701      9701      9704      9705      9701      9704      9706
      9701      9704      9707      9702      9701      9703      9702      9701      9704
      9703      9701      9704      9705      9704      9706      9705      9704      9707
      9706      9704      9707      9708      9712      9713      9708      9712      9714
      9708      9712      9715      9709      9708      9710      9709      9708      9711
      9709      9708      9712      9710      9708      9711      9710      9708      9712
      9711      9708      9712      9712      9715      9716      9712      9715      9717
      9712      9715      9722      9713      9712      9714      9713      9712      9715
      9714      9712      9715      9715      9722      9718      9716      9715      9717
      9716      9715      9722      9717      9715      9722      9718      9721      9723
      9719      9718      9720      9719      9718      9721      9719      9718      9722
      9720      9718      9721      9720      9718      9722      9721      9718      9722
      9721      9723      9724      9721      9723      9725      9721      9723      9726
      9723      9726      9727      9723      9726      9728      9723      9726      9734
      9724      9723      9725      9724      9723      9726      9725      9723      9726
      9726      9728      9729      9726      9734      9735      9726      9734      9736
      9726      9734      9737      9727      9726      9728      9727      9726      9734
      9728      9726      9734      9728      9729      9730      9728      9729      9731
      9729      9731      9732      9729      9731      9733      9729      9731      9743
      9730      9729      9731      9731      9743      9744      9731      9743      9745
      9731      9743      9746      9732      9731      9733      9732      9731      9743
      9733      9731      9743      9734      9737      9738      9735      9734      9736
      9735      9734      9737      9736      9734      9737      9737      9738      9739
      9737      9738      9740      9738      9740      9741      9738      9740      9742
      9738      9740      9790      9739      9738      9740      9740      9790      9791
      9740      9790      9792      9740      9790      9793      9741      9740      9742
      9741      9740      9790      9742      9740      9790      9743      9746      9747
      9743      9746      9748      9743      9746      9749      9744      9743      9745
      9744      9743      9746      9745      9743      9746      9746      9749      9750
      9746      9749      9751      9746      9749      9752      9747      9746      9748
      9747      9746      9749      9748      9746      9749      9749      9752      9753
      9749      9752      9754      9749      9752      9755      9750      9749      9751
      9750      9749      9752      9751      9749      9752      9752      9755      9756
      9752      9755      9757      9752      9755      9758      9753      9752      9754
      9753      9752      9755      9754      9752      9755      9755      9758      9759
      9755      9758      9760      9755      9758      9761      9756      9755      9757
      9756      9755      9758      9757      9755      9758      9758      9761      9762
      9758      9761      9763      9759      9758      9760      9759      9758      9761
      9760      9758      9761      9761      9763      9764      9761      9763      9765
      9762      9761      9763      9763      9765      9766      9763      9765      9767
      9763      9765      9768      9764      9763      9765      9765      9768      9769
      9765      9768      9770      9765      9768      9771      9766      9765      9767
      9766      9765      9768      9767      9765      9768      9768      9771      9772
      9768      9771      9773      9768      9771      9774      9769      9768      9770
      9769      9768      9771      9770      9768      9771      9771      9774      9775
      9771      9774      9776      9771      9774      9777      9772      9771      9773
      9772      9771      9774      9773      9771      9774      9774      9777      9778
      9774      9777      9779      9774      9777      9780      9775      9774      9776
      9775      9774      9777      9776      9774      9777      9777      9780      9781
      9777      9780      9782      9777      9780      9783      9778      9777      9779
      9778      9777      9780      9779      9777      9780      9780      9783      9784
      9780      9783      9785      9780      9783      9786      9781      9780      9782
      9781      9780      9783      9782      9780      9783      9783      9786      9787
      9783      9786      9788      9783      9786      9789      9784      9783      9785
      9784      9783      9786      9785      9783      9786      9787      9786      9788
      9787      9786      9789      9788      9786      9789      9790      9793      9794
      9790      9793      9795      9790      9793      9796      9791      9790      9792
      9791      9790      9793      9792      9790      9793      9793      9796      9797
      9793      9796      9798      9793      9796      9799      9794      9793      9795
      9794      9793      9796      9795      9793      9796      9796      9799      9800
      9796      9799      9801      9796      9799      9802      9797      9796      9798
      9797      9796      9799      9798      9796      9799      9799      9802      9803
      9799      9802      9804      9799      9802      9805      9800      9799      9801
      9800      9799      9802      9801      9799      9802      9802      9805      9806
      9802      9805      9807      9802      9805      9808      9803      9802      9804
      9803      9802      9805      9804      9802      9805      9805      9808      9809
      9805      9808      9810      9805      9808      9811      9806      9805      9807
      9806      9805      9808      9807      9805      9808      9808      9811      9812
      9808      9811      9813      9808      9811      9814      9809      9808      9810
      9809      9808      9811      9810      9808      9811      9811      9814      9815
      9811      9814      9816      9811      9814      9817      9812      9811      9813
      9812      9811      9814      9813      9811      9814      9814      9817      9818
      9814      9817      9819      9814      9817      9820      9815      9814      9816
      9815      9814      9817      9816      9814      9817      9817      9820      9821
      9817      9820      9822      9817      9820      9823      9818      9817      9819
      9818      9817      9820      9819      9817      9820      9820      9823      9824
      9820      9823      9825      9820      9823      9826      9821      9820      9822
      9821      9820      9823      9822      9820      9823      9823      9826      9827
      9823      9826      9828      9823      9826      9829      9824      9823      9825
      9824      9823      9826      9825      9823      9826      9826      9829      9830
      9826      9829      9831      9826      9829      9832      9827      9826      9828
      9827      9826      9829      9828      9826      9829      9830      9829      9831
      9830      9829      9832      9831      9829      9832      9833      9834      9835
      9833      9834      9836      9833      9834      9849      9833      9837      9838
      9833      9837      9839      9833      9837      9840      9833      9841      9842
      9833      9841      9843      9833      9841      9844      9833      9845      9846
      9833      9845      9847      9833      9845      9848      9834      9833      9837
      9834      9833      9841      9834      9833      9845      9834      9849      9850
      9834      9849      9851      9834      9849      9855      9835      9834      9836
      9835      9834      9849      9836      9834      9849      9837      9833      9841
      9837      9833      9845      9838      9837      9839      9838      9837      9840
      9839      9837      9840      9841      9833      9845      9842      9841      9843
      9842      9841      9844      9843      9841      9844      9846      9845      9847
      9846      9845      9848      9847      9845      9848      9849      9855      9852
      9850      9849      9851      9850      9849      9855      9851      9849      9855
      9852      9856      9857      9853      9852      9854      9853      9852      9855
      9853      9852      9856      9854      9852      9855      9854      9852      9856
      9855      9852      9856      9856      9857      9858      9856      9857      9859
      9856      9857      9860      9857      9860      9861      9857      9860      9862
      9857      9860      9868      9858      9857      9859      9858      9857      9860
      9859      9857      9860      9860      9862      9863      9860      9868      9869
      9860      9868      9870      9860      9868      9871      9861      9860      9862
      9861      9860      9868      9862      9860      9868      9862      9863      9864
      9862      9863      9865      9863      9865      9866      9863      9865      9867
      9863      9865      9877      9864      9863      9865      9865      9877      9878
      9865      9877      9879      9865      9877      9880      9866      9865      9867
      9866      9865      9877      9867      9865      9877      9868      9871      9872
      9869      9868      9870      9869      9868      9871      9870      9868      9871
      9871      9872      9873      9871      9872      9874      9872      9874      9875
      9872      9874      9876      9872      9874      9924      9873      9872      9874
      9874      9924      9925      9874      9924      9926      9874      9924      9927
      9875      9874      9876      9875      9874      9924      9876      9874      9924
      9877      9880      9881      9877      9880      9882      9877      9880      9883
      9878      9877      9879      9878      9877      9880      9879      9877      9880
      9880      9883      9884      9880      9883      9885      9880      9883      9886
      9881      9880      9882      9881      9880      9883      9882      9880      9883
      9883      9886      9887      9883      9886      9888      9883      9886      9889
      9884      9883      9885      9884      9883      9886      9885      9883      9886
      9886      9889      9890      9886      9889      9891      9886      9889      9892
      9887      9886      9888      9887      9886      9889      9888      9886      9889
      9889      9892      9893      9889      9892      9894      9889      9892      9895
      9890      9889      9891      9890      9889      9892      9891      9889      9892
      9892      9895      9896      9892      9895      9897      9893      9892      9894
      9893      9892      9895      9894      9892      9895      9895      9897      9898
      9895      9897      9899      9896      9895      9897      9897      9899      9900
      9897      9899      9901      9897      9899      9902      9898      9897      9899
      9899      9902      9903      9899      9902      9904      9899      9902      9905
      9900      9899      9901      9900      9899      9902      9901      9899      9902
      9902      9905      9906      9902      9905      9907      9902      9905      9908
      9903      9902      9904      9903      9902      9905      9904      9902      9905
      9905      9908      9909      9905      9908      9910      9905      9908      9911
      9906      9905      9907      9906      9905      9908      9907      9905      9908
      9908      9911      9912      9908      9911      9913      9908      9911      9914
      9909      9908      9910      9909      9908      9911      9910      9908      9911
      9911      9914      9915      9911      9914      9916      9911      9914      9917
      9912      9911      9913      9912      9911      9914      9913      9911      9914
      9914      9917      9918      9914      9917      9919      9914      9917      9920
      9915      9914      9916      9915      9914      9917      9916      9914      9917
      9917      9920      9921      9917      9920      9922      9917      9920      9923
      9918      9917      9919      9918      9917      9920      9919      9917      9920
      9921      9920      9922      9921      9920      9923      9922      9920      9923
      9924      9927      9928      9924      9927      9929      9924      9927      9930
      9925      9924      9926      9925      9924      9927      9926      9924      9927
      9927      9930      9931      9927      9930      9932      9927      9930      9933
      9928      9927      9929      9928      9927      9930      9929      9927      9930
      9930      9933      9934      9930      9933      9935      9930      9933      9936
      9931      9930      9932      9931      9930      9933      9932      9930      9933
      9933      9936      9937      9933      9936      9938      9933      9936      9939
      9934      9933      9935      9934      9933      9936      9935      9933      9936
      9936      9939      9940      9936      9939      9941      9936      9939      9942
      9937      9936      9938      9937      9936      9939      9938      9936      9939
      9939      9942      9943      9939      9942      9944      9939      9942      9945
      9940      9939      9941      9940      9939      9942      9941      9939      9942
      9942      9945      9946      9942      9945      9947      9942      9945      9948
      9943      9942      9944      9943      9942      9945      9944      9942      9945
      9945      9948      9949      9945      9948      9950      9945      9948      9951
      9946      9945      9947      9946      9945      9948      9947      9945      9948
      9948      9951      9952      9948      9951      9953      9948      9951      9954
      9949      9948      9950      9949      9948      9951      9950      9948      9951
      9951      9954      9955      9951      9954      9956      9951      9954      9957
      9952      9951      9953      9952      9951      9954      9953      9951      9954
      9954      9957      9958      9954      9957      9959      9954      9957      9960
      9955      9954      9956      9955      9954      9957      9956      9954      9957
      9957      9960      9961      9957      9960      9962      9957      9960      9963
      9958      9957      9959      9958      9957      9960      9959      9957      9960
      9960      9963      9964      9960      9963      9965      9960      9963      9966
      9961      9960      9962      9961      9960      9963      9962      9960      9963
      9964      9963      9965      9964      9963      9966      9965      9963      9966
      9967      9971      9972      9967      9971      9973      9967      9971      9974
      9968      9967      9969      9968      9967      9970      9968      9967      9971
      9969      9967      9970      9969      9967      9971      9970      9967      9971
      9971      9974      9975      9971      9974      9976      9971      9974      9981
      9972      9971      9973      9972      9971      9974      9973      9971      9974
      9974      9981      9977      9975      9974      9976      9975      9974      9981
      9976      9974      9981      9977      9980      9982      9978      9977      9979
      9978      9977      9980      9978      9977      9981      9979      9977      9980
      9979      9977      9981      9980      9977      9981      9980      9982      9983
      9980      9982      9984      9980      9982      9985      9982      9985      9986
      9982      9985      9987      9982      9985      9993      9983      9982      9984
      9983      9982      9985      9984      9982      9985      9985      9987      9988
      9985      9993      9994      9985      9993      9995      9985      9993      9996
      9986      9985      9987      9986      9985      9993      9987      9985      9993
      9987      9988      9989      9987      9988      9990      9988      9990      9991
      9988      9990      9992      9988      9990     10002      9989      9988      9990
      9990     10002     10003      9990     10002     10004      9990     10002     10005
      9991      9990      9992      9991      9990     10002      9992      9990     10002
      9993      9996      9997      9994      9993      9995      9994      9993      9996
      9995      9993      9996      9996      9997      9998      9996      9997      9999
      9997      9999     10000      9997      9999     10001      9997      9999     10049
      9998      9997      9999      9999     10049     10050      9999     10049     10051
      9999     10049     10052     10000      9999     10001     10000      9999     10049
     10001      9999     10049     10002     10005     10006     10002     10005     10007
     10002     10005     10008     10003     10002     10004     10003     10002     10005
     10004     10002     10005     10005     10008     10009     10005     10008     10010
     10005     10008     10011     10006     10005     10007     10006     10005     10008
     10007     10005     10008     10008     10011     10012     10008     10011     10013
     10008     10011     10014     10009     10008     10010     10009     10008     10011
     10010     10008     10011     10011     10014     10015     10011     10014     10016
     10011     10014     10017     10012     10011     10013     10012     10011     10014
     10013     10011     10014     10014     10017     10018     10014     10017     10019
     10014     10017     10020     10015     10014     10016     10015     10014     10017
     10016     10014     10017     10017     10020     10021     10017     10020     10022
     10018     10017     10019     10018     10017     10020     10019     10017     10020
     10020     10022     10023     10020     10022     10024     10021     10020     10022
     10022     10024     10025     10022     10024     10026     10022     10024     10027
     10023     10022     10024     10024     10027     10028     10024     10027     10029
     10024     10027     10030     10025     10024     10026     10025     10024     10027
     10026     10024     10027     10027     10030     10031     10027     10030     10032
     10027     10030     10033     10028     10027     10029     10028     10027     10030
     10029     10027     10030     10030     10033     10034     10030     10033     10035
     10030     10033     10036     10031     10030     10032     10031     10030     10033
     10032     10030     10033     10033     10036     10037     10033     10036     10038
     10033     10036     10039     10034     10033     10035     10034     10033     10036
     10035     10033     10036     10036     10039     10040     10036     10039     10041
     10036     10039     10042     10037     10036     10038     10037     10036     10039
     10038     10036     10039     10039     10042     10043     10039     10042     10044
     10039     10042     10045     10040     10039     10041     10040     10039     10042
     10041     10039     10042     10042     10045     10046     10042     10045     10047
     10042     10045     10048     10043     10042     10044     10043     10042     10045
     10044     10042     10045     10046     10045     10047     10046     10045     10048
     10047     10045     10048     10049     10052     10053     10049     10052     10054
     10049     10052     10055     10050     10049     10051     10050     10049     10052
     10051     10049     10052     10052     10055     10056     10052     10055     10057
     10052     10055     10058     10053     10052     10054     10053     10052     10055
     10054     10052     10055     10055     10058     10059     10055     10058     10060
     10055     10058     10061     10056     10055     10057     10056     10055     10058
     10057     10055     10058     10058     10061     10062     10058     10061     10063
     10058     10061     10064     10059     10058     10060     10059     10058     10061
     10060     10058     10061     10061     10064     10065     10061     10064     10066
     10061     10064     10067     10062     10061     10063     10062     10061     10064
     10063     10061     10064     10064     10067     10068     10064     10067     10069
     10064     10067     10070     10065     10064     10066     10065     10064     10067
     10066     10064     10067     10067     10070     10071     10067     10070     10072
     10067     10070     10073     10068     10067     10069     10068     10067     10070
     10069     10067     10070     10070     10073     10074     10070     10073     10075
     10070     10073     10076     10071     10070     10072     10071     10070     10073
     10072     10070     10073     10073     10076     10077     10073     10076     10078
     10073     10076     10079     10074     10073     10075     10074     10073     10076
     10075     10073     10076     10076     10079     10080     10076     10079     10081
     10076     10079     10082     10077     10076     10078     10077     10076     10079
     10078     10076     10079     10079     10082     10083     10079     10082     10084
     10079     10082     10085     10080     10079     10081     10080     10079     10082
     10081     10079     10082     10082     10085     10086     10082     10085     10087
     10082     10085     10088     10083     10082     10084     10083     10082     10085
     10084     10082     10085     10085     10088     10089     10085     10088     10090
     10085     10088     10091     10086     10085     10087     10086     10085     10088
     10087     10085     10088     10089     10088     10090     10089     10088     10091
     10090     10088     10091     10092     10096     10097     10092     10096     10098
     10092     10096     10099     10093     10092     10094     10093     10092     10095
     10093     10092     10096     10094     10092     10095     10094     10092     10096
     10095     10092     10096     10096     10099     10100     10096     10099     10101
     10096     10099     10106     10097     10096     10098     10097     10096     10099
     10098     10096     10099     10099     10106     10102     10100     10099     10101
     10100     10099     10106     10101     10099     10106     10102     10105     10107
     10103     10102     10104     10103     10102     10105     10103     10102     10106
     10104     10102     10105     10104     10102     10106     10105     10102     10106
     10105     10107     10108     10105     10107     10109     10105     10107     10110
     10107     10110     10111     10107     10110     10112     10107     10110     10118
     10108     10107     10109     10108     10107     10110     10109     10107     10110
     10110     10112     10113     10110     10118     10119     10110     10118     10120
     10110     10118     10121     10111     10110     10112     10111     10110     10118
     10112     10110     10118     10112     10113     10114     10112     10113     10115
     10113     10115     10116     10113     10115     10117     10113     10115     10127
     10114     10113     10115     10115     10127     10128     10115     10127     10129
     10115     10127     10130     10116     10115     10117     10116     10115     10127
     10117     10115     10127     10118     10121     10122     10119     10118     10120
     10119     10118     10121     10120     10118     10121     10121     10122     10123
     10121     10122     10124     10122     10124     10125     10122     10124     10126
     10122     10124     10174     10123     10122     10124     10124     10174     10175
     10124     10174     10176     10124     10174     10177     10125     10124     10126
     10125     10124     10174     10126     10124     10174     10127     10130     10131
     10127     10130     10132     10127     10130     10133     10128     10127     10129
     10128     10127     10130     10129     10127     10130     10130     10133     10134
     10130     10133     10135     10130     10133     10136     10131     10130     10132
     10131     10130     10133     10132     10130     10133     10133     10136     10137
     10133     10136     10138     10133     10136     10139     10134     10133     10135
     10134     10133     10136     10135     10133     10136     10136     10139     10140
     10136     10139     10141     10136     10139     10142     10137     10136     10138
     10137     10136     10139     10138     10136     10139     10139     10142     10143
     10139     10142     10144     10139     10142     10145     10140     10139     10141
     10140     10139     10142     10141     10139     10142     10142     10145     10146
     10142     10145     10147     10143     10142     10144     10143     10142     10145
     10144     10142     10145     10145     10147     10148     10145     10147     10149
     10146     10145     10147     10147     10149     10150     10147     10149     10151
     10147     10149     10152     10148     10147     10149     10149     10152     10153
     10149     10152     10154     10149     10152     10155     10150     10149     10151
     10150     10149     10152     10151     10149     10152     10152     10155     10156
     10152     10155     10157     10152     10155     10158     10153     10152     10154
     10153     10152     10155     10154     10152     10155     10155     10158     10159
     10155     10158     10160     10155     10158     10161     10156     10155     10157
     10156     10155     10158     10157     10155     10158     10158     10161     10162
     10158     10161     10163     10158     10161     10164     10159     10158     10160
     10159     10158     10161     10160     10158     10161     10161     10164     10165
     10161     10164     10166     10161     10164     10167     10162     10161     10163
     10162     10161     10164     10163     10161     10164     10164     10167     10168
     10164     10167     10169     10164     10167     10170     10165     10164     10166
     10165     10164     10167     10166     10164     10167     10167     10170     10171
     10167     10170     10172     10167     10170     10173     10168     10167     10169
     10168     10167     10170     10169     10167     10170     10171     10170     10172
     10171     10170     10173     10172     10170     10173     10174     10177     10178
     10174     10177     10179     10174     10177     10180     10175     10174     10176
     10175     10174     10177     10176     10174     10177     10177     10180     10181
     10177     10180     10182     10177     10180     10183     10178     10177     10179
     10178     10177     10180     10179     10177     10180     10180     10183     10184
     10180     10183     10185     10180     10183     10186     10181     10180     10182
     10181     10180     10183     10182     10180     10183     10183     10186     10187
     10183     10186     10188     10183     10186     10189     10184     10183     10185
     10184     10183     10186     10185     10183     10186     10186     10189     10190
     10186     10189     10191     10186     10189     10192     10187     10186     10188
     10187     10186     10189     10188     10186     10189     10189     10192     10193
     10189     10192     10194     10189     10192     10195     10190     10189     10191
     10190     10189     10192     10191     10189     10192     10192     10195     10196
     10192     10195     10197     10192     10195     10198     10193     10192     10194
     10193     10192     10195     10194     10192     10195     10195     10198     10199
     10195     10198     10200     10195     10198     10201     10196     10195     10197
     10196     10195     10198     10197     10195     10198     10198     10201     10202
     10198     10201     10203     10198     10201     10204     10199     10198     10200
     10199     10198     10201     10200     10198     10201     10201     10204     10205
     10201     10204     10206     10201     10204     10207     10202     10201     10203
     10202     10201     10204     10203     10201     10204     10204     10207     10208
     10204     10207     10209     10204     10207     10210     10205     10204     10206
     10205     10204     10207     10206     10204     10207     10207     10210     10211
     10207     10210     10212     10207     10210     10213     10208     10207     10209
     10208     10207     10210     10209     10207     10210     10210     10213     10214
     10210     10213     10215     10210     10213     10216     10211     10210     10212
     10211     10210     10213     10212     10210     10213     10214     10213     10215
     10214     10213     10216     10215     10213     10216     10217     10218     10219
     10217     10218     10220     10217     10218     10233     10217     10221     10222
     10217     10221     10223     10217     10221     10224     10217     10225     10226
     10217     10225     10227     10217     10225     10228     10217     10229     10230
     10217     10229     10231     10217     10229     10232     10218     10217     10221
     10218     10217     10225     10218     10217     10229     10218     10233     10234
     10218     10233     10235     10218     10233     10239     10219     10218     10220
     10219     10218     10233     10220     10218     10233     10221     10217     10225
     10221     10217     10229     10222     10221     10223     10222     10221     10224
     10223     10221     10224     10225     10217     10229     10226     10225     10227
     10226     10225     10228     10227     10225     10228     10230     10229     10231
     10230     10229     10232     10231     10229     10232     10233     10239     10236
     10234     10233     10235     10234     10233     10239     10235     10233     10239
     10236     10240     10241     10237     10236     10238     10237     10236     10239
     10237     10236     10240     10238     10236     10239     10238     10236     10240
     10239     10236     10240     10240     10241     10242     10240     10241     10243
     10240     10241     10244     10241     10244     10245     10241     10244     10246
     10241     10244     10252     10242     10241     10243     10242     10241     10244
     10243     10241     10244     10244     10246     10247     10244     10252     10253
     10244     10252     10254     10244     10252     10255     10245     10244     10246
     10245     10244     10252     10246     10244     10252     10246     10247     10248
     10246     10247     10249     10247     10249     10250     10247     10249     10251
     10247     10249     10261     10248     10247     10249     10249     10261     10262
     10249     10261     10263     10249     10261     10264     10250     10249     10251
     10250     10249     10261     10251     10249     10261     10252     10255     10256
     10253     10252     10254     10253     10252     10255     10254     10252     10255
     10255     10256     10257     10255     10256     10258     10256     10258     10259
     10256     10258     10260     10256     10258     10308     10257     10256     10258
     10258     10308     10309     10258     10308     10310     10258     10308     10311
     10259     10258     10260     10259     10258     10308     10260     10258     10308
     10261     10264     10265     10261     10264     10266     10261     10264     10267
     10262     10261     10263     10262     10261     10264     10263     10261     10264
     10264     10267     10268     10264     10267     10269     10264     10267     10270
     10265     10264     10266     10265     10264     10267     10266     10264     10267
     10267     10270     10271     10267     10270     10272     10267     10270     10273
     10268     10267     10269     10268     10267     10270     10269     10267     10270
     10270     10273     10274     10270     10273     10275     10270     10273     10276
     10271     10270     10272     10271     10270     10273     10272     10270     10273
     10273     10276     10277     10273     10276     10278     10273     10276     10279
     10274     10273     10275     10274     10273     10276     10275     10273     10276
     10276     10279     10280     10276     10279     10281     10277     10276     10278
     10277     10276     10279     10278     10276     10279     10279     10281     10282
     10279     10281     10283     10280     10279     10281     10281     10283     10284
     10281     10283     10285     10281     10283     10286     10282     10281     10283
     10283     10286     10287     10283     10286     10288     10283     10286     10289
     10284     10283     10285     10284     10283     10286     10285     10283     10286
     10286     10289     10290     10286     10289     10291     10286     10289     10292
     10287     10286     10288     10287     10286     10289     10288     10286     10289
     10289     10292     10293     10289     10292     10294     10289     10292     10295
     10290     10289     10291     10290     10289     10292     10291     10289     10292
     10292     10295     10296     10292     10295     10297     10292     10295     10298
     10293     10292     10294     10293     10292     10295     10294     10292     10295
     10295     10298     10299     10295     10298     10300     10295     10298     10301
     10296     10295     10297     10296     10295     10298     10297     10295     10298
     10298     10301     10302     10298     10301     10303     10298     10301     10304
     10299     10298     10300     10299     10298     10301     10300     10298     10301
     10301     10304     10305     10301     10304     10306     10301     10304     10307
     10302     10301     10303     10302     10301     10304     10303     10301     10304
     10305     10304     10306     10305     10304     10307     10306     10304     10307
     10308     10311     10312     10308     10311     10313     10308     10311     10314
     10309     10308     10310     10309     10308     10311     10310     10308     10311
     10311     10314     10315     10311     10314     10316     10311     10314     10317
     10312     10311     10313     10312     10311     10314     10313     10311     10314
     10314     10317     10318     10314     10317     10319     10314     10317     10320
     10315     10314     10316     10315     10314     10317     10316     10314     10317
     10317     10320     10321     10317     10320     10322     10317     10320     10323
     10318     10317     10319     10318     10317     10320     10319     10317     10320
     10320     10323     10324     10320     10323     10325     10320     10323     10326
     10321     10320     10322     10321     10320     10323     10322     10320     10323
     10323     10326     10327     10323     10326     10328     10323     10326     10329
     10324     10323     10325     10324     10323     10326     10325     10323     10326
     10326     10329     10330     10326     10329     10331     10326     10329     10332
     10327     10326     10328     10327     10326     10329     10328     10326     10329
     10329     10332     10333     10329     10332     10334     10329     10332     10335
     10330     10329     10331     10330     10329     10332     10331     10329     10332
     10332     10335     10336     10332     10335     10337     10332     10335     10338
     10333     10332     10334     10333     10332     10335     10334     10332     10335
     10335     10338     10339     10335     10338     10340     10335     10338     10341
     10336     10335     10337     10336     10335     10338     10337     10335     10338
     10338     10341     10342     10338     10341     10343     10338     10341     10344
     10339     10338     10340     10339     10338     10341     10340     10338     10341
     10341     10344     10345     10341     10344     10346     10341     10344     10347
     10342     10341     10343     10342     10341     10344     10343     10341     10344
     10344     10347     10348     10344     10347     10349     10344     10347     10350
     10345     10344     10346     10345     10344     10347     10346     10344     10347
     10348     10347     10349     10348     10347     10350     10349     10347     10350
     10351     10355     10356     10351     10355     10357     10351     10355     10358
     10352     10351     10353     10352     10351     10354     10352     10351     10355
     10353     10351     10354     10353     10351     10355     10354     10351     10355
     10355     10358     10359     10355     10358     10360     10355     10358     10365
     10356     10355     10357     10356     10355     10358     10357     10355     10358
     10358     10365     10361     10359     10358     10360     10359     10358     10365
     10360     10358     10365     10361     10364     10366     10362     10361     10363
     10362     10361     10364     10362     10361     10365     10363     10361     10364
     10363     10361     10365     10364     10361     10365     10364     10366     10367
     10364     10366     10368     10364     10366     10369     10366     10369     10370
     10366     10369     10371     10366     10369     10377     10367     10366     10368
     10367     10366     10369     10368     10366     10369     10369     10371     10372
     10369     10377     10378     10369     10377     10379     10369     10377     10380
     10370     10369     10371     10370     10369     10377     10371     10369     10377
     10371     10372     10373     10371     10372     10374     10372     10374     10375
     10372     10374     10376     10372     10374     10386     10373     10372     10374
     10374     10386     10387     10374     10386     10388     10374     10386     10389
     10375     10374     10376     10375     10374     10386     10376     10374     10386
     10377     10380     10381     10378     10377     10379     10378     10377     10380
     10379     10377     10380     10380     10381     10382     10380     10381     10383
     10381     10383     10384     10381     10383     10385     10381     10383     10433
     10382     10381     10383     10383     10433     10434     10383     10433     10435
     10383     10433     10436     10384     10383     10385     10384     10383     10433
     10385     10383     10433     10386     10389     10390     10386     10389     10391
     10386     10389     10392     10387     10386     10388     10387     10386     10389
     10388     10386     10389     10389     10392     10393     10389     10392     10394
     10389     10392     10395     10390     10389     10391     10390     10389     10392
     10391     10389     10392     10392     10395     10396     10392     10395     10397
     10392     10395     10398     10393     10392     10394     10393     10392     10395
     10394     10392     10395     10395     10398     10399     10395     10398     10400
     10395     10398     10401     10396     10395     10397     10396     10395     10398
     10397     10395     10398     10398     10401     10402     10398     10401     10403
     10398     10401     10404     10399     10398     10400     10399     10398     10401
     10400     10398     10401     10401     10404     10405     10401     10404     10406
     10402     10401     10403     10402     10401     10404     10403     10401     10404
     10404     10406     10407     10404     10406     10408     10405     10404     10406
     10406     10408     10409     10406     10408     10410     10406     10408     10411
     10407     10406     10408     10408     10411     10412     10408     10411     10413
     10408     10411     10414     10409     10408     10410     10409     10408     10411
     10410     10408     10411     10411     10414     10415     10411     10414     10416
     10411     10414     10417     10412     10411     10413     10412     10411     10414
     10413     10411     10414     10414     10417     10418     10414     10417     10419
     10414     10417     10420     10415     10414     10416     10415     10414     10417
     10416     10414     10417     10417     10420     10421     10417     10420     10422
     10417     10420     10423     10418     10417     10419     10418     10417     10420
     10419     10417     10420     10420     10423     10424     10420     10423     10425
     10420     10423     10426     10421     10420     10422     10421     10420     10423
     10422     10420     10423     10423     10426     10427     10423     10426     10428
     10423     10426     10429     10424     10423     10425     10424     10423     10426
     10425     10423     10426     10426     10429     10430     10426     10429     10431
     10426     10429     10432     10427     10426     10428     10427     10426     10429
     10428     10426     10429     10430     10429     10431     10430     10429     10432
     10431     10429     10432     10433     10436     10437     10433     10436     10438
     10433     10436     10439     10434     10433     10435     10434     10433     10436
     10435     10433     10436     10436     10439     10440     10436     10439     10441
     10436     10439     10442     10437     10436     10438     10437     10436     10439
     10438     10436     10439     10439     10442     10443     10439     10442     10444
     10439     10442     10445     10440     10439     10441     10440     10439     10442
     10441     10439     10442     10442     10445     10446     10442     10445     10447
     10442     10445     10448     10443     10442     10444     10443     10442     10445
     10444     10442     10445     10445     10448     10449     10445     10448     10450
     10445     10448     10451     10446     10445     10447     10446     10445     10448
     10447     10445     10448     10448     10451     10452     10448     10451     10453
     10448     10451     10454     10449     10448     10450     10449     10448     10451
     10450     10448     10451     10451     10454     10455     10451     10454     10456
     10451     10454     10457     10452     10451     10453     10452     10451     10454
     10453     10451     10454     10454     10457     10458     10454     10457     10459
     10454     10457     10460     10455     10454     10456     10455     10454     10457
     10456     10454     10457     10457     10460     10461     10457     10460     10462
     10457     10460     10463     10458     10457     10459     10458     10457     10460
     10459     10457     10460     10460     10463     10464     10460     10463     10465
     10460     10463     10466     10461     10460     10462     10461     10460     10463
     10462     10460     10463     10463     10466     10467     10463     10466     10468
     10463     10466     10469     10464     10463     10465     10464     10463     10466
     10465     10463     10466     10466     10469     10470     10466     10469     10471
     10466     10469     10472     10467     10466     10468     10467     10466     10469
     10468     10466     10469     10469     10472     10473     10469     10472     10474
     10469     10472     10475     10470     10469     10471     10470     10469     10472
     10471     10469     10472     10473     10472     10474     10473     10472     10475
     10474     10472     10475     10476     10480     10481     10476     10480     10482
     10476     10480     10483     10477     10476     10478     10477     10476     10479
     10477     10476     10480     10478     10476     10479     10478     10476     10480
     10479     10476     10480     10480     10483     10484     10480     10483     10485
     10480     10483     10490     10481     10480     10482     10481     10480     10483
     10482     10480     10483     10483     10490     10486     10484     10483     10485
     10484     10483     10490     10485     10483     10490     10486     10489     10491
     10487     10486     10488     10487     10486     10489     10487     10486     10490
     10488     10486     10489     10488     10486     10490     10489     10486     10490
     10489     10491     10492     10489     10491     10493     10489     10491     10494
     10491     10494     10495     10491     10494     10496     10491     10494     10502
     10492     10491     10493     10492     10491     10494     10493     10491     10494
     10494     10496     10497     10494     10502     10503     10494     10502     10504
     10494     10502     10505     10495     10494     10496     10495     10494     10502
     10496     10494     10502     10496     10497     10498     10496     10497     10499
     10497     10499     10500     10497     10499     10501     10497     10499     10511
     10498     10497     10499     10499     10511     10512     10499     10511     10513
     10499     10511     10514     10500     10499     10501     10500     10499     10511
     10501     10499     10511     10502     10505     10506     10503     10502     10504
     10503     10502     10505     10504     10502     10505     10505     10506     10507
     10505     10506     10508     10506     10508     10509     10506     10508     10510
     10506     10508     10558     10507     10506     10508     10508     10558     10559
     10508     10558     10560     10508     10558     10561     10509     10508     10510
     10509     10508     10558     10510     10508     10558     10511     10514     10515
     10511     10514     10516     10511     10514     10517     10512     10511     10513
     10512     10511     10514     10513     10511     10514     10514     10517     10518
     10514     10517     10519     10514     10517     10520     10515     10514     10516
     10515     10514     10517     10516     10514     10517     10517     10520     10521
     10517     10520     10522     10517     10520     10523     10518     10517     10519
     10518     10517     10520     10519     10517     10520     10520     10523     10524
     10520     10523     10525     10520     10523     10526     10521     10520     10522
     10521     10520     10523     10522     10520     10523     10523     10526     10527
     10523     10526     10528     10523     10526     10529     10524     10523     10525
     10524     10523     10526     10525     10523     10526     10526     10529     10530
     10526     10529     10531     10527     10526     10528     10527     10526     10529
     10528     10526     10529     10529     10531     10532     10529     10531     10533
     10530     10529     10531     10531     10533     10534     10531     10533     10535
     10531     10533     10536     10532     10531     10533     10533     10536     10537
     10533     10536     10538     10533     10536     10539     10534     10533     10535
     10534     10533     10536     10535     10533     10536     10536     10539     10540
     10536     10539     10541     10536     10539     10542     10537     10536     10538
     10537     10536     10539     10538     10536     10539     10539     10542     10543
     10539     10542     10544     10539     10542     10545     10540     10539     10541
     10540     10539     10542     10541     10539     10542     10542     10545     10546
     10542     10545     10547     10542     10545     10548     10543     10542     10544
     10543     10542     10545     10544     10542     10545     10545     10548     10549
     10545     10548     10550     10545     10548     10551     10546     10545     10547
     10546     10545     10548     10547     10545     10548     10548     10551     10552
     10548     10551     10553     10548     10551     10554     10549     10548     10550
     10549     10548     10551     10550     10548     10551     10551     10554     10555
     10551     10554     10556     10551     10554     10557     10552     10551     10553
     10552     10551     10554     10553     10551     10554     10555     10554     10556
     10555     10554     10557     10556     10554     10557     10558     10561     10562
     10558     10561     10563     10558     10561     10564     10559     10558     10560
     10559     10558     10561     10560     10558     10561     10561     10564     10565
     10561     10564     10566     10561     10564     10567     10562     10561     10563
     10562     10561     10564     10563     10561     10564     10564     10567     10568
     10564     10567     10569     10564     10567     10570     10565     10564     10566
     10565     10564     10567     10566     10564     10567     10567     10570     10571
     10567     10570     10572     10567     10570     10573     10568     10567     10569
     10568     10567     10570     10569     10567     10570     10570     10573     10574
     10570     10573     10575     10570     10573     10576     10571     10570     10572
     10571     10570     10573     10572     10570     10573     10573     10576     10577
     10573     10576     10578     10573     10576     10579     10574     10573     10575
     10574     10573     10576     10575     10573     10576     10576     10579     10580
     10576     10579     10581     10576     10579     10582     10577     10576     10578
     10577     10576     10579     10578     10576     10579     10579     10582     10583
     10579     10582     10584     10579     10582     10585     10580     10579     10581
     10580     10579     10582     10581     10579     10582     10582     10585     10586
     10582     10585     10587     10582     10585     10588     10583     10582     10584
     10583     10582     10585     10584     10582     10585     10585     10588     10589
     10585     10588     10590     10585     10588     10591     10586     10585     10587
     10586     10585     10588     10587     10585     10588     10588     10591     10592
     10588     10591     10593     10588     10591     10594     10589     10588     10590
     10589     10588     10591     10590     10588     10591     10591     10594     10595
     10591     10594     10596     10591     10594     10597     10592     10591     10593
     10592     10591     10594     10593     10591     10594     10594     10597     10598
     10594     10597     10599     10594     10597     10600     10595     10594     10596
     10595     10594     10597     10596     10594     10597     10598     10597     10599
     10598     10597     10600     10599     10597     10600     10601     10602     10603
     10601     10602     10604     10601     10602     10617     10601     10605     10606
     10601     10605     10607     10601     10605     10608     10601     10609     10610
     10601     10609     10611     10601     10609     10612     10601     10613     10614
     10601     10613     10615     10601     10613     10616     10602     10601     10605
     10602     10601     10609     10602     10601     10613     10602     10617     10618
     10602     10617     10619     10602     10617     10623     10603     10602     10604
     10603     10602     10617     10604     10602     10617     10605     10601     10609
     10605     10601     10613     10606     10605     10607     10606     10605     10608
     10607     10605     10608     10609     10601     10613     10610     10609     10611
     10610     10609     10612     10611     10609     10612     10614     10613     10615
     10614     10613     10616     10615     10613     10616     10617     10623     10620
     10618     10617     10619     10618     10617     10623     10619     10617     10623
     10620     10624     10625     10621     10620     10622     10621     10620     10623
     10621     10620     10624     10622     10620     10623     10622     10620     10624
     10623     10620     10624     10624     10625     10626     10624     10625     10627
     10624     10625     10628     10625     10628     10629     10625     10628     10630
     10625     10628     10636     10626     10625     10627     10626     10625     10628
     10627     10625     10628     10628     10630     10631     10628     10636     10637
     10628     10636     10638     10628     10636     10639     10629     10628     10630
     10629     10628     10636     10630     10628     10636     10630     10631     10632
     10630     10631     10633     10631     10633     10634     10631     10633     10635
     10631     10633     10645     10632     10631     10633     10633     10645     10646
     10633     10645     10647     10633     10645     10648     10634     10633     10635
     10634     10633     10645     10635     10633     10645     10636     10639     10640
     10637     10636     10638     10637     10636     10639     10638     10636     10639
     10639     10640     10641     10639     10640     10642     10640     10642     10643
     10640     10642     10644     10640     10642     10692     10641     10640     10642
     10642     10692     10693     10642     10692     10694     10642     10692     10695
     10643     10642     10644     10643     10642     10692     10644     10642     10692
     10645     10648     10649     10645     10648     10650     10645     10648     10651
     10646     10645     10647     10646     10645     10648     10647     10645     10648
     10648     10651     10652     10648     10651     10653     10648     10651     10654
     10649     10648     10650     10649     10648     10651     10650     10648     10651
     10651     10654     10655     10651     10654     10656     10651     10654     10657
     10652     10651     10653     10652     10651     10654     10653     10651     10654
     10654     10657     10658     10654     10657     10659     10654     10657     10660
     10655     10654     10656     10655     10654     10657     10656     10654     10657
     10657     10660     10661     10657     10660     10662     10657     10660     10663
     10658     10657     10659     10658     10657     10660     10659     10657     10660
     10660     10663     10664     10660     10663     10665     10661     10660     10662
     10661     10660     10663     10662     10660     10663     10663     10665     10666
     10663     10665     10667     10664     10663     10665     10665     10667     10668
     10665     10667     10669     10665     10667     10670     10666     10665     10667
     10667     10670     10671     10667     10670     10672     10667     10670     10673
     10668     10667     10669     10668     10667     10670     10669     10667     10670
     10670     10673     10674     10670     10673     10675     10670     10673     10676
     10671     10670     10672     10671     10670     10673     10672     10670     10673
     10673     10676     10677     10673     10676     10678     10673     10676     10679
     10674     10673     10675     10674     10673     10676     10675     10673     10676
     10676     10679     10680     10676     10679     10681     10676     10679     10682
     10677     10676     10678     10677     10676     10679     10678     10676     10679
     10679     10682     10683     10679     10682     10684     10679     10682     10685
     10680     10679     10681     10680     10679     10682     10681     10679     10682
     10682     10685     10686     10682     10685     10687     10682     10685     10688
     10683     10682     10684     10683     10682     10685     10684     10682     10685
     10685     10688     10689     10685     10688     10690     10685     10688     10691
     10686     10685     10687     10686     10685     10688     10687     10685     10688
     10689     10688     10690     10689     10688     10691     10690     10688     10691
     10692     10695     10696     10692     10695     10697     10692     10695     10698
     10693     10692     10694     10693     10692     10695     10694     10692     10695
     10695     10698     10699     10695     10698     10700     10695     10698     10701
     10696     10695     10697     10696     10695     10698     10697     10695     10698
     10698     10701     10702     10698     10701     10703     10698     10701     10704
     10699     10698     10700     10699     10698     10701     10700     10698     10701
     10701     10704     10705     10701     10704     10706     10701     10704     10707
     10702     10701     10703     10702     10701     10704     10703     10701     10704
     10704     10707     10708     10704     10707     10709     10704     10707     10710
     10705     10704     10706     10705     10704     10707     10706     10704     10707
     10707     10710     10711     10707     10710     10712     10707     10710     10713
     10708     10707     10709     10708     10707     10710     10709     10707     10710
     10710     10713     10714     10710     10713     10715     10710     10713     10716
     10711     10710     10712     10711     10710     10713     10712     10710     10713
     10713     10716     10717     10713     10716     10718     10713     10716     10719
     10714     10713     10715     10714     10713     10716     10715     10713     10716
     10716     10719     10720     10716     10719     10721     10716     10719     10722
     10717     10716     10718     10717     10716     10719     10718     10716     10719
     10719     10722     10723     10719     10722     10724     10719     10722     10725
     10720     10719     10721     10720     10719     10722     10721     10719     10722
     10722     10725     10726     10722     10725     10727     10722     10725     10728
     10723     10722     10724     10723     10722     10725     10724     10722     10725
     10725     10728     10729     10725     10728     10730     10725     10728     10731
     10726     10725     10727     10726     10725     10728     10727     10725     10728
     10728     10731     10732     10728     10731     10733     10728     10731     10734
     10729     10728     10730     10729     10728     10731     10730     10728     10731
     10732     10731     10733     10732     10731     10734     10733     10731     10734
     10735     10739     10740     10735     10739     10741     10735     10739     10742
     10736     10735     10737     10736     10735     10738     10736     10735     10739
     10737     10735     10738     10737     10735     10739     10738     10735     10739
     10739     10742     10743     10739     10742     10744     10739     10742     10749
     10740     10739     10741     10740     10739     10742     10741     10739     10742
     10742     10749     10745     10743     10742     10744     10743     10742     10749
     10744     10742     10749     10745     10748     10750     10746     10745     10747
     10746     10745     10748     10746     10745     10749     10747     10745     10748
     10747     10745     10749     10748     10745     10749     10748     10750     10751
     10748     10750     10752     10748     10750     10753     10750     10753     10754
     10750     10753     10755     10750     10753     10761     10751     10750     10752
     10751     10750     10753     10752     10750     10753     10753     10755     10756
     10753     10761     10762     10753     10761     10763     10753     10761     10764
     10754     10753     10755     10754     10753     10761     10755     10753     10761
     10755     10756     10757     10755     10756     10758     10756     10758     10759
     10756     10758     10760     10756     10758     10770     10757     10756     10758
     10758     10770     10771     10758     10770     10772     10758     10770     10773
     10759     10758     10760     10759     10758     10770     10760     10758     10770
     10761     10764     10765     10762     10761     10763     10762     10761     10764
     10763     10761     10764     10764     10765     10766     10764     10765     10767
     10765     10767     10768     10765     10767     10769     10765     10767     10817
     10766     10765     10767     10767     10817     10818     10767     10817     10819
     10767     10817     10820     10768     10767     10769     10768     10767     10817
     10769     10767     10817     10770     10773     10774     10770     10773     10775
     10770     10773     10776     10771     10770     10772     10771     10770     10773
     10772     10770     10773     10773     10776     10777     10773     10776     10778
     10773     10776     10779     10774     10773     10775     10774     10773     10776
     10775     10773     10776     10776     10779     10780     10776     10779     10781
     10776     10779     10782     10777     10776     10778     10777     10776     10779
     10778     10776     10779     10779     10782     10783     10779     10782     10784
     10779     10782     10785     10780     10779     10781     10780     10779     10782
     10781     10779     10782     10782     10785     10786     10782     10785     10787
     10782     10785     10788     10783     10782     10784     10783     10782     10785
     10784     10782     10785     10785     10788     10789     10785     10788     10790
     10786     10785     10787     10786     10785     10788     10787     10785     10788
     10788     10790     10791     10788     10790     10792     10789     10788     10790
     10790     10792     10793     10790     10792     10794     10790     10792     10795
     10791     10790     10792     10792     10795     10796     10792     10795     10797
     10792     10795     10798     10793     10792     10794     10793     10792     10795
     10794     10792     10795     10795     10798     10799     10795     10798     10800
     10795     10798     10801     10796     10795     10797     10796     10795     10798
     10797     10795     10798     10798     10801     10802     10798     10801     10803
     10798     10801     10804     10799     10798     10800     10799     10798     10801
     10800     10798     10801     10801     10804     10805     10801     10804     10806
     10801     10804     10807     10802     10801     10803     10802     10801     10804
     10803     10801     10804     10804     10807     10808     10804     10807     10809
     10804     10807     10810     10805     10804     10806     10805     10804     10807
     10806     10804     10807     10807     10810     10811     10807     10810     10812
     10807     10810     10813     10808     10807     10809     10808     10807     10810
     10809     10807     10810     10810     10813     10814     10810     10813     10815
     10810     10813     10816     10811     10810     10812     10811     10810     10813
     10812     10810     10813     10814     10813     10815     10814     10813     10816
     10815     10813     10816     10817     10820     10821     10817     10820     10822
     10817     10820     10823     10818     10817     10819     10818     10817     10820
     10819     10817     10820     10820     10823     10824     10820     10823     10825
     10820     10823     10826     10821     10820     10822     10821     10820     10823
     10822     10820     10823     10823     10826     10827     10823     10826     10828
     10823     10826     10829     10824     10823     10825     10824     10823     10826
     10825     10823     10826     10826     10829     10830     10826     10829     10831
     10826     10829     10832     10827     10826     10828     10827     10826     10829
     10828     10826     10829     10829     10832     10833     10829     10832     10834
     10829     10832     10835     10830     10829     10831     10830     10829     10832
     10831     10829     10832     10832     10835     10836     10832     10835     10837
     10832     10835     10838     10833     10832     10834     10833     10832     10835
     10834     10832     10835     10835     10838     10839     10835     10838     10840
     10835     10838     10841     10836     10835     10837     10836     10835     10838
     10837     10835     10838     10838     10841     10842     10838     10841     10843
     10838     10841     10844     10839     10838     10840     10839     10838     10841
     10840     10838     10841     10841     10844     10845     10841     10844     10846
     10841     10844     10847     10842     10841     10843     10842     10841     10844
     10843     10841     10844     10844     10847     10848     10844     10847     10849
     10844     10847     10850     10845     10844     10846     10845     10844     10847
     10846     10844     10847     10847     10850     10851     10847     10850     10852
     10847     10850     10853     10848     10847     10849     10848     10847     10850
     10849     10847     10850     10850     10853     10854     10850     10853     10855
     10850     10853     10856     10851     10850     10852     10851     10850     10853
     10852     10850     10853     10853     10856     10857     10853     10856     10858
     10853     10856     10859     10854     10853     10855     10854     10853     10856
     10855     10853     10856     10857     10856     10858     10857     10856     10859
     10858     10856     10859     10860     10861     10862     10860     10861     10863
     10860     10861     10876     10860     10864     10865     10860     10864     10866
     10860     10864     10867     10860     10868     10869     10860     10868     10870
     10860     10868     10871     10860     10872     10873     10860     10872     10874
     10860     10872     10875     10861     10860     10864     10861     10860     10868
     10861     10860     10872     10861     10876     10877     10861     10876     10878
     10861     10876     10882     10862     10861     10863     10862     10861     10876
     10863     10861     10876     10864     10860     10868     10864     10860     10872
     10865     10864     10866     10865     10864     10867     10866     10864     10867
     10868     10860     10872     10869     10868     10870     10869     10868     10871
     10870     10868     10871     10873     10872     10874     10873     10872     10875
     10874     10872     10875     10876     10882     10879     10877     10876     10878
     10877     10876     10882     10878     10876     10882     10879     10883     10884
     10880     10879     10881     10880     10879     10882     10880     10879     10883
     10881     10879     10882     10881     10879     10883     10882     10879     10883
     10883     10884     10885     10883     10884     10886     10883     10884     10887
     10884     10887     10888     10884     10887     10889     10884     10887     10895
     10885     10884     10886     10885     10884     10887     10886     10884     10887
     10887     10889     10890     10887     10895     10896     10887     10895     10897
     10887     10895     10898     10888     10887     10889     10888     10887     10895
     10889     10887     10895     10889     10890     10891     10889     10890     10892
     10890     10892     10893     10890     10892     10894     10890     10892     10904
     10891     10890     10892     10892     10904     10905     10892     10904     10906
     10892     10904     10907     10893     10892     10894     10893     10892     10904
     10894     10892     10904     10895     10898     10899     10896     10895     10897
     10896     10895     10898     10897     10895     10898     10898     10899     10900
     10898     10899     10901     10899     10901     10902     10899     10901     10903
     10899     10901     10951     10900     10899     10901     10901     10951     10952
     10901     10951     10953     10901     10951     10954     10902     10901     10903
     10902     10901     10951     10903     10901     10951     10904     10907     10908
     10904     10907     10909     10904     10907     10910     10905     10904     10906
     10905     10904     10907     10906     10904     10907     10907     10910     10911
     10907     10910     10912     10907     10910     10913     10908     10907     10909
     10908     10907     10910     10909     10907     10910     10910     10913     10914
     10910     10913     10915     10910     10913     10916     10911     10910     10912
     10911     10910     10913     10912     10910     10913     10913     10916     10917
     10913     10916     10918     10913     10916     10919     10914     10913     10915
     10914     10913     10916     10915     10913     10916     10916     10919     10920
     10916     10919     10921     10916     10919     10922     10917     10916     10918
     10917     10916     10919     10918     10916     10919     10919     10922     10923
     10919     10922     10924     10920     10919     10921     10920     10919     10922
     10921     10919     10922     10922     10924     10925     10922     10924     10926
     10923     10922     10924     10924     10926     10927     10924     10926     10928
     10924     10926     10929     10925     10924     10926     10926     10929     10930
     10926     10929     10931     10926     10929     10932     10927     10926     10928
     10927     10926     10929     10928     10926     10929     10929     10932     10933
     10929     10932     10934     10929     10932     10935     10930     10929     10931
     10930     10929     10932     10931     10929     10932     10932     10935     10936
     10932     10935     10937     10932     10935     10938     10933     10932     10934
     10933     10932     10935     10934     10932     10935     10935     10938     10939
     10935     10938     10940     10935     10938     10941     10936     10935     10937
     10936     10935     10938     10937     10935     10938     10938     10941     10942
     10938     10941     10943     10938     10941     10944     10939     10938     10940
     10939     10938     10941     10940     10938     10941     10941     10944     10945
     10941     10944     10946     10941     10944     10947     10942     10941     10943
     10942     10941     10944     10943     10941     10944     10944     10947     10948
     10944     10947     10949     10944     10947     10950     10945     10944     10946
     10945     10944     10947     10946     10944     10947     10948     10947     10949
     10948     10947     10950     10949     10947     10950     10951     10954     10955
     10951     10954     10956     10951     10954     10957     10952     10951     10953
     10952     10951     10954     10953     10951     10954     10954     10957     10958
     10954     10957     10959     10954     10957     10960     10955     10954     10956
     10955     10954     10957     10956     10954     10957     10957     10960     10961
     10957     10960     10962     10957     10960     10963     10958     10957     10959
     10958     10957     10960     10959     10957     10960     10960     10963     10964
     10960     10963     10965     10960     10963     10966     10961     10960     10962
     10961     10960     10963     10962     10960     10963     10963     10966     10967
     10963     10966     10968     10963     10966     10969     10964     10963     10965
     10964     10963     10966     10965     10963     10966     10966     10969     10970
     10966     10969     10971     10966     10969     10972     10967     10966     10968
     10967     10966     10969     10968     10966     10969     10969     10972     10973
     10969     10972     10974     10969     10972     10975     10970     10969     10971
     10970     10969     10972     10971     10969     10972     10972     10975     10976
     10972     10975     10977     10972     10975     10978     10973     10972     10974
     10973     10972     10975     10974     10972     10975     10975     10978     10979
     10975     10978     10980     10975     10978     10981     10976     10975     10977
     10976     10975     10978     10977     10975     10978     10978     10981     10982
     10978     10981     10983     10978     10981     10984     10979     10978     10980
     10979     10978     10981     10980     10978     10981     10981     10984     10985
     10981     10984     10986     10981     10984     10987     10982     10981     10983
     10982     10981     10984     10983     10981     10984     10984     10987     10988
     10984     10987     10989     10984     10987     10990     10985     10984     10986
     10985     10984     10987     10986     10984     10987     10987     10990     10991
     10987     10990     10992     10987     10990     10993     10988     10987     10989
     10988     10987     10990     10989     10987     10990     10991     10990     10992
     10991     10990     10993     10992     10990     10993     10994     10998     10999
     10994     10998     11000     10994     10998     11001     10995     10994     10996
     10995     10994     10997     10995     10994     10998     10996     10994     10997
     10996     10994     10998     10997     10994     10998     10998     11001     11002
     10998     11001     11003     10998     11001     11008     10999     10998     11000
     10999     10998     11001     11000     10998     11001     11001     11008     11004
     11002     11001     11003     11002     11001     11008     11003     11001     11008
     11004     11007     11009     11005     11004     11006     11005     11004     11007
     11005     11004     11008     11006     11004     11007     11006     11004     11008
     11007     11004     11008     11007     11009     11010     11007     11009     11011
     11007     11009     11012     11009     11012     11013     11009     11012     11014
     11009     11012     11020     11010     11009     11011     11010     11009     11012
     11011     11009     11012     11012     11014     11015     11012     11020     11021
     11012     11020     11022     11012     11020     11023     11013     11012     11014
     11013     11012     11020     11014     11012     11020     11014     11015     11016
     11014     11015     11017     11015     11017     11018     11015     11017     11019
     11015     11017     11029     11016     11015     11017     11017     11029     11030
     11017     11029     11031     11017     11029     11032     11018     11017     11019
     11018     11017     11029     11019     11017     11029     11020     11023     11024
     11021     11020     11022     11021     11020     11023     11022     11020     11023
     11023     11024     11025     11023     11024     11026     11024     11026     11027
     11024     11026     11028     11024     11026     11076     11025     11024     11026
     11026     11076     11077     11026     11076     11078     11026     11076     11079
     11027     11026     11028     11027     11026     11076     11028     11026     11076
     11029     11032     11033     11029     11032     11034     11029     11032     11035
     11030     11029     11031     11030     11029     11032     11031     11029     11032
     11032     11035     11036     11032     11035     11037     11032     11035     11038
     11033     11032     11034     11033     11032     11035     11034     11032     11035
     11035     11038     11039     11035     11038     11040     11035     11038     11041
     11036     11035     11037     11036     11035     11038     11037     11035     11038
     11038     11041     11042     11038     11041     11043     11038     11041     11044
     11039     11038     11040     11039     11038     11041     11040     11038     11041
     11041     11044     11045     11041     11044     11046     11041     11044     11047
     11042     11041     11043     11042     11041     11044     11043     11041     11044
     11044     11047     11048     11044     11047     11049     11045     11044     11046
     11045     11044     11047     11046     11044     11047     11047     11049     11050
     11047     11049     11051     11048     11047     11049     11049     11051     11052
     11049     11051     11053     11049     11051     11054     11050     11049     11051
     11051     11054     11055     11051     11054     11056     11051     11054     11057
     11052     11051     11053     11052     11051     11054     11053     11051     11054
     11054     11057     11058     11054     11057     11059     11054     11057     11060
     11055     11054     11056     11055     11054     11057     11056     11054     11057
     11057     11060     11061     11057     11060     11062     11057     11060     11063
     11058     11057     11059     11058     11057     11060     11059     11057     11060
     11060     11063     11064     11060     11063     11065     11060     11063     11066
     11061     11060     11062     11061     11060     11063     11062     11060     11063
     11063     11066     11067     11063     11066     11068     11063     11066     11069
     11064     11063     11065     11064     11063     11066     11065     11063     11066
     11066     11069     11070     11066     11069     11071     11066     11069     11072
     11067     11066     11068     11067     11066     11069     11068     11066     11069
     11069     11072     11073     11069     11072     11074     11069     11072     11075
     11070     11069     11071     11070     11069     11072     11071     11069     11072
     11073     11072     11074     11073     11072     11075     11074     11072     11075
     11076     11079     11080     11076     11079     11081     11076     11079     11082
     11077     11076     11078     11077     11076     11079     11078     11076     11079
     11079     11082     11083     11079     11082     11084     11079     11082     11085
     11080     11079     11081     11080     11079     11082     11081     11079     11082
     11082     11085     11086     11082     11085     11087     11082     11085     11088
     11083     11082     11084     11083     11082     11085     11084     11082     11085
     11085     11088     11089     11085     11088     11090     11085     11088     11091
     11086     11085     11087     11086     11085     11088     11087     11085     11088
     11088     11091     11092     11088     11091     11093     11088     11091     11094
     11089     11088     11090     11089     11088     11091     11090     11088     11091
     11091     11094     11095     11091     11094     11096     11091     11094     11097
     11092     11091     11093     11092     11091     11094     11093     11091     11094
     11094     11097     11098     11094     11097     11099     11094     11097     11100
     11095     11094     11096     11095     11094     11097     11096     11094     11097
     11097     11100     11101     11097     11100     11102     11097     11100     11103
     11098     11097     11099     11098     11097     11100     11099     11097     11100
     11100     11103     11104     11100     11103     11105     11100     11103     11106
     11101     11100     11102     11101     11100     11103     11102     11100     11103
     11103     11106     11107     11103     11106     11108     11103     11106     11109
     11104     11103     11105     11104     11103     11106     11105     11103     11106
     11106     11109     11110     11106     11109     11111     11106     11109     11112
     11107     11106     11108     11107     11106     11109     11108     11106     11109
     11109     11112     11113     11109     11112     11114     11109     11112     11115
     11110     11109     11111     11110     11109     11112     11111     11109     11112
     11112     11115     11116     11112     11115     11117     11112     11115     11118
     11113     11112     11114     11113     11112     11115     11114     11112     11115
     11116     11115     11117     11116     11115     11118     11117     11115     11118
     11119     11123     11124     11119     11123     11125     11119     11123     11126
     11120     11119     11121     11120     11119     11122     11120     11119     11123
     11121     11119     11122     11121     11119     11123     11122     11119     11123
     11123     11126     11127     11123     11126     11128     11123     11126     11133
     11124     11123     11125     11124     11123     11126     11125     11123     11126
     11126     11133     11129     11127     11126     11128     11127     11126     11133
     11128     11126     11133     11129     11132     11134     11130     11129     11131
     11130     11129     11132     11130     11129     11133     11131     11129     11132
     11131     11129     11133     11132     11129     11133     11132     11134     11135
     11132     11134     11136     11132     11134     11137     11134     11137     11138
     11134     11137     11139     11134     11137     11145     11135     11134     11136
     11135     11134     11137     11136     11134     11137     11137     11139     11140
     11137     11145     11146     11137     11145     11147     11137     11145     11148
     11138     11137     11139     11138     11137     11145     11139     11137     11145
     11139     11140     11141     11139     11140     11142     11140     11142     11143
     11140     11142     11144     11140     11142     11154     11141     11140     11142
     11142     11154     11155     11142     11154     11156     11142     11154     11157
     11143     11142     11144     11143     11142     11154     11144     11142     11154
     11145     11148     11149     11146     11145     11147     11146     11145     11148
     11147     11145     11148     11148     11149     11150     11148     11149     11151
     11149     11151     11152     11149     11151     11153     11149     11151     11201
     11150     11149     11151     11151     11201     11202     11151     11201     11203
     11151     11201     11204     11152     11151     11153     11152     11151     11201
     11153     11151     11201     11154     11157     11158     11154     11157     11159
     11154     11157     11160     11155     11154     11156     11155     11154     11157
     11156     11154     11157     11157     11160     11161     11157     11160     11162
     11157     11160     11163     11158     11157     11159     11158     11157     11160
     11159     11157     11160     11160     11163     11164     11160     11163     11165
     11160     11163     11166     11161     11160     11162     11161     11160     11163
     11162     11160     11163     11163     11166     11167     11163     11166     11168
     11163     11166     11169     11164     11163     11165     11164     11163     11166
     11165     11163     11166     11166     11169     11170     11166     11169     11171
     11166     11169     11172     11167     11166     11168     11167     11166     11169
     11168     11166     11169     11169     11172     11173     11169     11172     11174
     11170     11169     11171     11170     11169     11172     11171     11169     11172
     11172     11174     11175     11172     11174     11176     11173     11172     11174
     11174     11176     11177     11174     11176     11178     11174     11176     11179
     11175     11174     11176     11176     11179     11180     11176     11179     11181
     11176     11179     11182     11177     11176     11178     11177     11176     11179
     11178     11176     11179     11179     11182     11183     11179     11182     11184
     11179     11182     11185     11180     11179     11181     11180     11179     11182
     11181     11179     11182     11182     11185     11186     11182     11185     11187
     11182     11185     11188     11183     11182     11184     11183     11182     11185
     11184     11182     11185     11185     11188     11189     11185     11188     11190
     11185     11188     11191     11186     11185     11187     11186     11185     11188
     11187     11185     11188     11188     11191     11192     11188     11191     11193
     11188     11191     11194     11189     11188     11190     11189     11188     11191
     11190     11188     11191     11191     11194     11195     11191     11194     11196
     11191     11194     11197     11192     11191     11193     11192     11191     11194
     11193     11191     11194     11194     11197     11198     11194     11197     11199
     11194     11197     11200     11195     11194     11196     11195     11194     11197
     11196     11194     11197     11198     11197     11199     11198     11197     11200
     11199     11197     11200     11201     11204     11205     11201     11204     11206
     11201     11204     11207     11202     11201     11203     11202     11201     11204
     11203     11201     11204     11204     11207     11208     11204     11207     11209
     11204     11207     11210     11205     11204     11206     11205     11204     11207
     11206     11204     11207     11207     11210     11211     11207     11210     11212
     11207     11210     11213     11208     11207     11209     11208     11207     11210
     11209     11207     11210     11210     11213     11214     11210     11213     11215
     11210     11213     11216     11211     11210     11212     11211     11210     11213
     11212     11210     11213     11213     11216     11217     11213     11216     11218
     11213     11216     11219     11214     11213     11215     11214     11213     11216
     11215     11213     11216     11216     11219     11220     11216     11219     11221
     11216     11219     11222     11217     11216     11218     11217     11216     11219
     11218     11216     11219     11219     11222     11223     11219     11222     11224
     11219     11222     11225     11220     11219     11221     11220     11219     11222
     11221     11219     11222     11222     11225     11226     11222     11225     11227
     11222     11225     11228     11223     11222     11224     11223     11222     11225
     11224     11222     11225     11225     11228     11229     11225     11228     11230
     11225     11228     11231     11226     11225     11227     11226     11225     11228
     11227     11225     11228     11228     11231     11232     11228     11231     11233
     11228     11231     11234     11229     11228     11230     11229     11228     11231
     11230     11228     11231     11231     11234     11235     11231     11234     11236
     11231     11234     11237     11232     11231     11233     11232     11231     11234
     11233     11231     11234     11234     11237     11238     11234     11237     11239
     11234     11237     11240     11235     11234     11236     11235     11234     11237
     11236     11234     11237     11237     11240     11241     11237     11240     11242
     11237     11240     11243     11238     11237     11239     11238     11237     11240
     11239     11237     11240     11241     11240     11242     11241     11240     11243
     11242     11240     11243     11244     11245     11246     11244     11245     11247
     11244     11245     11260     11244     11248     11249     11244     11248     11250
     11244     11248     11251     11244     11252     11253     11244     11252     11254
     11244     11252     11255     11244     11256     11257     11244     11256     11258
     11244     11256     11259     11245     11244     11248     11245     11244     11252
     11245     11244     11256     11245     11260     11261     11245     11260     11262
     11245     11260     11266     11246     11245     11247     11246     11245     11260
     11247     11245     11260     11248     11244     11252     11248     11244     11256
     11249     11248     11250     11249     11248     11251     11250     11248     11251
     11252     11244     11256     11253     11252     11254     11253     11252     11255
     11254     11252     11255     11257     11256     11258     11257     11256     11259
     11258     11256     11259     11260     11266     11263     11261     11260     11262
     11261     11260     11266     11262     11260     11266     11263     11267     11268
     11264     11263     11265     11264     11263     11266     11264     11263     11267
     11265     11263     11266     11265     11263     11267     11266     11263     11267
     11267     11268     11269     11267     11268     11270     11267     11268     11271
     11268     11271     11272     11268     11271     11273     11268     11271     11279
     11269     11268     11270     11269     11268     11271     11270     11268     11271
     11271     11273     11274     11271     11279     11280     11271     11279     11281
     11271     11279     11282     11272     11271     11273     11272     11271     11279
     11273     11271     11279     11273     11274     11275     11273     11274     11276
     11274     11276     11277     11274     11276     11278     11274     11276     11288
     11275     11274     11276     11276     11288     11289     11276     11288     11290
     11276     11288     11291     11277     11276     11278     11277     11276     11288
     11278     11276     11288     11279     11282     11283     11280     11279     11281
     11280     11279     11282     11281     11279     11282     11282     11283     11284
     11282     11283     11285     11283     11285     11286     11283     11285     11287
     11283     11285     11335     11284     11283     11285     11285     11335     11336
     11285     11335     11337     11285     11335     11338     11286     11285     11287
     11286     11285     11335     11287     11285     11335     11288     11291     11292
     11288     11291     11293     11288     11291     11294     11289     11288     11290
     11289     11288     11291     11290     11288     11291     11291     11294     11295
     11291     11294     11296     11291     11294     11297     11292     11291     11293
     11292     11291     11294     11293     11291     11294     11294     11297     11298
     11294     11297     11299     11294     11297     11300     11295     11294     11296
     11295     11294     11297     11296     11294     11297     11297     11300     11301
     11297     11300     11302     11297     11300     11303     11298     11297     11299
     11298     11297     11300     11299     11297     11300     11300     11303     11304
     11300     11303     11305     11300     11303     11306     11301     11300     11302
     11301     11300     11303     11302     11300     11303     11303     11306     11307
     11303     11306     11308     11304     11303     11305     11304     11303     11306
     11305     11303     11306     11306     11308     11309     11306     11308     11310
     11307     11306     11308     11308     11310     11311     11308     11310     11312
     11308     11310     11313     11309     11308     11310     11310     11313     11314
     11310     11313     11315     11310     11313     11316     11311     11310     11312
     11311     11310     11313     11312     11310     11313     11313     11316     11317
     11313     11316     11318     11313     11316     11319     11314     11313     11315
     11314     11313     11316     11315     11313     11316     11316     11319     11320
     11316     11319     11321     11316     11319     11322     11317     11316     11318
     11317     11316     11319     11318     11316     11319     11319     11322     11323
     11319     11322     11324     11319     11322     11325     11320     11319     11321
     11320     11319     11322     11321     11319     11322     11322     11325     11326
     11322     11325     11327     11322     11325     11328     11323     11322     11324
     11323     11322     11325     11324     11322     11325     11325     11328     11329
     11325     11328     11330     11325     11328     11331     11326     11325     11327
     11326     11325     11328     11327     11325     11328     11328     11331     11332
     11328     11331     11333     11328     11331     11334     11329     11328     11330
     11329     11328     11331     11330     11328     11331     11332     11331     11333
     11332     11331     11334     11333     11331     11334     11335     11338     11339
     11335     11338     11340     11335     11338     11341     11336     11335     11337
     11336     11335     11338     11337     11335     11338     11338     11341     11342
     11338     11341     11343     11338     11341     11344     11339     11338     11340
     11339     11338     11341     11340     11338     11341     11341     11344     11345
     11341     11344     11346     11341     11344     11347     11342     11341     11343
     11342     11341     11344     11343     11341     11344     11344     11347     11348
     11344     11347     11349     11344     11347     11350     11345     11344     11346
     11345     11344     11347     11346     11344     11347     11347     11350     11351
     11347     11350     11352     11347     11350     11353     11348     11347     11349
     11348     11347     11350     11349     11347     11350     11350     11353     11354
     11350     11353     11355     11350     11353     11356     11351     11350     11352
     11351     11350     11353     11352     11350     11353     11353     11356     11357
     11353     11356     11358     11353     11356     11359     11354     11353     11355
     11354     11353     11356     11355     11353     11356     11356     11359     11360
     11356     11359     11361     11356     11359     11362     11357     11356     11358
     11357     11356     11359     11358     11356     11359     11359     11362     11363
     11359     11362     11364     11359     11362     11365     11360     11359     11361
     11360     11359     11362     11361     11359     11362     11362     11365     11366
     11362     11365     11367     11362     11365     11368     11363     11362     11364
     11363     11362     11365     11364     11362     11365     11365     11368     11369
     11365     11368     11370     11365     11368     11371     11366     11365     11367
     11366     11365     11368     11367     11365     11368     11368     11371     11372
     11368     11371     11373     11368     11371     11374     11369     11368     11370
     11369     11368     11371     11370     11368     11371     11371     11374     11375
     11371     11374     11376     11371     11374     11377     11372     11371     11373
     11372     11371     11374     11373     11371     11374     11375     11374     11376
     11375     11374     11377     11376     11374     11377     11378     11379     11380
     11378     11379     11381     11378     11379     11394     11378     11382     11383
     11378     11382     11384     11378     11382     11385     11378     11386     11387
     11378     11386     11388     11378     11386     11389     11378     11390     11391
     11378     11390     11392     11378     11390     11393     11379     11378     11382
     11379     11378     11386     11379     11378     11390     11379     11394     11395
     11379     11394     11396     11379     11394     11400     11380     11379     11381
     11380     11379     11394     11381     11379     11394     11382     11378     11386
     11382     11378     11390     11383     11382     11384     11383     11382     11385
     11384     11382     11385     11386     11378     11390     11387     11386     11388
     11387     11386     11389     11388     11386     11389     11391     11390     11392
     11391     11390     11393     11392     11390     11393     11394     11400     11397
     11395     11394     11396     11395     11394     11400     11396     11394     11400
     11397     11401     11402     11398     11397     11399     11398     11397     11400
     11398     11397     11401     11399     11397     11400     11399     11397     11401
     11400     11397     11401     11401     11402     11403     11401     11402     11404
     11401     11402     11405     11402     11405     11406     11402     11405     11407
     11402     11405     11413     11403     11402     11404     11403     11402     11405
     11404     11402     11405     11405     11407     11408     11405     11413     11414
     11405     11413     11415     11405     11413     11416     11406     11405     11407
     11406     11405     11413     11407     11405     11413     11407     11408     11409
     11407     11408     11410     11408     11410     11411     11408     11410     11412
     11408     11410     11422     11409     11408     11410     11410     11422     11423
     11410     11422     11424     11410     11422     11425     11411     11410     11412
     11411     11410     11422     11412     11410     11422     11413     11416     11417
     11414     11413     11415     11414     11413     11416     11415     11413     11416
     11416     11417     11418     11416     11417     11419     11417     11419     11420
     11417     11419     11421     11417     11419     11469     11418     11417     11419
     11419     11469     11470     11419     11469     11471     11419     11469     11472
     11420     11419     11421     11420     11419     11469     11421     11419     11469
     11422     11425     11426     11422     11425     11427     11422     11425     11428
     11423     11422     11424     11423     11422     11425     11424     11422     11425
     11425     11428     11429     11425     11428     11430     11425     11428     11431
     11426     11425     11427     11426     11425     11428     11427     11425     11428
     11428     11431     11432     11428     11431     11433     11428     11431     11434
     11429     11428     11430     11429     11428     11431     11430     11428     11431
     11431     11434     11435     11431     11434     11436     11431     11434     11437
     11432     11431     11433     11432     11431     11434     11433     11431     11434
     11434     11437     11438     11434     11437     11439     11434     11437     11440
     11435     11434     11436     11435     11434     11437     11436     11434     11437
     11437     11440     11441     11437     11440     11442     11438     11437     11439
     11438     11437     11440     11439     11437     11440     11440     11442     11443
     11440     11442     11444     11441     11440     11442     11442     11444     11445
     11442     11444     11446     11442     11444     11447     11443     11442     11444
     11444     11447     11448     11444     11447     11449     11444     11447     11450
     11445     11444     11446     11445     11444     11447     11446     11444     11447
     11447     11450     11451     11447     11450     11452     11447     11450     11453
     11448     11447     11449     11448     11447     11450     11449     11447     11450
     11450     11453     11454     11450     11453     11455     11450     11453     11456
     11451     11450     11452     11451     11450     11453     11452     11450     11453
     11453     11456     11457     11453     11456     11458     11453     11456     11459
     11454     11453     11455     11454     11453     11456     11455     11453     11456
     11456     11459     11460     11456     11459     11461     11456     11459     11462
     11457     11456     11458     11457     11456     11459     11458     11456     11459
     11459     11462     11463     11459     11462     11464     11459     11462     11465
     11460     11459     11461     11460     11459     11462     11461     11459     11462
     11462     11465     11466     11462     11465     11467     11462     11465     11468
     11463     11462     11464     11463     11462     11465     11464     11462     11465
     11466     11465     11467     11466     11465     11468     11467     11465     11468
     11469     11472     11473     11469     11472     11474     11469     11472     11475
     11470     11469     11471     11470     11469     11472     11471     11469     11472
     11472     11475     11476     11472     11475     11477     11472     11475     11478
     11473     11472     11474     11473     11472     11475     11474     11472     11475
     11475     11478     11479     11475     11478     11480     11475     11478     11481
     11476     11475     11477     11476     11475     11478     11477     11475     11478
     11478     11481     11482     11478     11481     11483     11478     11481     11484
     11479     11478     11480     11479     11478     11481     11480     11478     11481
     11481     11484     11485     11481     11484     11486     11481     11484     11487
     11482     11481     11483     11482     11481     11484     11483     11481     11484
     11484     11487     11488     11484     11487     11489     11484     11487     11490
     11485     11484     11486     11485     11484     11487     11486     11484     11487
     11487     11490     11491     11487     11490     11492     11487     11490     11493
     11488     11487     11489     11488     11487     11490     11489     11487     11490
     11490     11493     11494     11490     11493     11495     11490     11493     11496
     11491     11490     11492     11491     11490     11493     11492     11490     11493
     11493     11496     11497     11493     11496     11498     11493     11496     11499
     11494     11493     11495     11494     11493     11496     11495     11493     11496
     11496     11499     11500     11496     11499     11501     11496     11499     11502
     11497     11496     11498     11497     11496     11499     11498     11496     11499
     11499     11502     11503     11499     11502     11504     11499     11502     11505
     11500     11499     11501     11500     11499     11502     11501     11499     11502
     11502     11505     11506     11502     11505     11507     11502     11505     11508
     11503     11502     11504     11503     11502     11505     11504     11502     11505
     11505     11508     11509     11505     11508     11510     11505     11508     11511
     11506     11505     11507     11506     11505     11508     11507     11505     11508
     11509     11508     11510     11509     11508     11511     11510     11508     11511
     11512     11513     11514     11512     11513     11515     11512     11513     11528
     11512     11516     11517     11512     11516     11518     11512     11516     11519
     11512     11520     11521     11512     11520     11522     11512     11520     11523
     11512     11524     11525     11512     11524     11526     11512     11524     11527
     11513     11512     11516     11513     11512     11520     11513     11512     11524
     11513     11528     11529     11513     11528     11530     11513     11528     11534
     11514     11513     11515     11514     11513     11528     11515     11513     11528
     11516     11512     11520     11516     11512     11524     11517     11516     11518
     11517     11516     11519     11518     11516     11519     11520     11512     11524
     11521     11520     11522     11521     11520     11523     11522     11520     11523
     11525     11524     11526     11525     11524     11527     11526     11524     11527
     11528     11534     11531     11529     11528     11530     11529     11528     11534
     11530     11528     11534     11531     11535     11536     11532     11531     11533
     11532     11531     11534     11532     11531     11535     11533     11531     11534
     11533     11531     11535     11534     11531     11535     11535     11536     11537
     11535     11536     11538     11535     11536     11539     11536     11539     11540
     11536     11539     11541     11536     11539     11547     11537     11536     11538
     11537     11536     11539     11538     11536     11539     11539     11541     11542
     11539     11547     11548     11539     11547     11549     11539     11547     11550
     11540     11539     11541     11540     11539     11547     11541     11539     11547
     11541     11542     11543     11541     11542     11544     11542     11544     11545
     11542     11544     11546     11542     11544     11556     11543     11542     11544
     11544     11556     11557     11544     11556     11558     11544     11556     11559
     11545     11544     11546     11545     11544     11556     11546     11544     11556
     11547     11550     11551     11548     11547     11549     11548     11547     11550
     11549     11547     11550     11550     11551     11552     11550     11551     11553
     11551     11553     11554     11551     11553     11555     11551     11553     11603
     11552     11551     11553     11553     11603     11604     11553     11603     11605
     11553     11603     11606     11554     11553     11555     11554     11553     11603
     11555     11553     11603     11556     11559     11560     11556     11559     11561
     11556     11559     11562     11557     11556     11558     11557     11556     11559
     11558     11556     11559     11559     11562     11563     11559     11562     11564
     11559     11562     11565     11560     11559     11561     11560     11559     11562
     11561     11559     11562     11562     11565     11566     11562     11565     11567
     11562     11565     11568     11563     11562     11564     11563     11562     11565
     11564     11562     11565     11565     11568     11569     11565     11568     11570
     11565     11568     11571     11566     11565     11567     11566     11565     11568
     11567     11565     11568     11568     11571     11572     11568     11571     11573
     11568     11571     11574     11569     11568     11570     11569     11568     11571
     11570     11568     11571     11571     11574     11575     11571     11574     11576
     11572     11571     11573     11572     11571     11574     11573     11571     11574
     11574     11576     11577     11574     11576     11578     11575     11574     11576
     11576     11578     11579     11576     11578     11580     11576     11578     11581
     11577     11576     11578     11578     11581     11582     11578     11581     11583
     11578     11581     11584     11579     11578     11580     11579     11578     11581
     11580     11578     11581     11581     11584     11585     11581     11584     11586
     11581     11584     11587     11582     11581     11583     11582     11581     11584
     11583     11581     11584     11584     11587     11588     11584     11587     11589
     11584     11587     11590     11585     11584     11586     11585     11584     11587
     11586     11584     11587     11587     11590     11591     11587     11590     11592
     11587     11590     11593     11588     11587     11589     11588     11587     11590
     11589     11587     11590     11590     11593     11594     11590     11593     11595
     11590     11593     11596     11591     11590     11592     11591     11590     11593
     11592     11590     11593     11593     11596     11597     11593     11596     11598
     11593     11596     11599     11594     11593     11595     11594     11593     11596
     11595     11593     11596     11596     11599     11600     11596     11599     11601
     11596     11599     11602     11597     11596     11598     11597     11596     11599
     11598     11596     11599     11600     11599     11601     11600     11599     11602
     11601     11599     11602     11603     11606     11607     11603     11606     11608
     11603     11606     11609     11604     11603     11605     11604     11603     11606
     11605     11603     11606     11606     11609     11610     11606     11609     11611
     11606     11609     11612     11607     11606     11608     11607     11606     11609
     11608     11606     11609     11609     11612     11613     11609     11612     11614
     11609     11612     11615     11610     11609     11611     11610     11609     11612
     11611     11609     11612     11612     11615     11616     11612     11615     11617
     11612     11615     11618     11613     11612     11614     11613     11612     11615
     11614     11612     11615     11615     11618     11619     11615     11618     11620
     11615     11618     11621     11616     11615     11617     11616     11615     11618
     11617     11615     11618     11618     11621     11622     11618     11621     11623
     11618     11621     11624     11619     11618     11620     11619     11618     11621
     11620     11618     11621     11621     11624     11625     11621     11624     11626
     11621     11624     11627     11622     11621     11623     11622     11621     11624
     11623     11621     11624     11624     11627     11628     11624     11627     11629
     11624     11627     11630     11625     11624     11626     11625     11624     11627
     11626     11624     11627     11627     11630     11631     11627     11630     11632
     11627     11630     11633     11628     11627     11629     11628     11627     11630
     11629     11627     11630     11630     11633     11634     11630     11633     11635
     11630     11633     11636     11631     11630     11632     11631     11630     11633
     11632     11630     11633     11633     11636     11637     11633     11636     11638
     11633     11636     11639     11634     11633     11635     11634     11633     11636
     11635     11633     11636     11636     11639     11640     11636     11639     11641
     11636     11639     11642     11637     11636     11638     11637     11636     11639
     11638     11636     11639     11639     11642     11643     11639     11642     11644
     11639     11642     11645     11640     11639     11641     11640     11639     11642
     11641     11639     11642     11643     11642     11644     11643     11642     11645
     11644     11642     11645     11646     11650     11651     11646     11650     11652
     11646     11650     11653     11647     11646     11648     11647     11646     11649
     11647     11646     11650     11648     11646     11649     11648     11646     11650
     11649     11646     11650     11650     11653     11654     11650     11653     11655
     11650     11653     11660     11651     11650     11652     11651     11650     11653
     11652     11650     11653     11653     11660     11656     11654     11653     11655
     11654     11653     11660     11655     11653     11660     11656     11659     11661
     11657     11656     11658     11657     11656     11659     11657     11656     11660
     11658     11656     11659     11658     11656     11660     11659     11656     11660
     11659     11661     11662     11659     11661     11663     11659     11661     11664
     11661     11664     11665     11661     11664     11666     11661     11664     11672
     11662     11661     11663     11662     11661     11664     11663     11661     11664
     11664     11666     11667     11664     11672     11673     11664     11672     11674
     11664     11672     11675     11665     11664     11666     11665     11664     11672
     11666     11664     11672     11666     11667     11668     11666     11667     11669
     11667     11669     11670     11667     11669     11671     11667     11669     11681
     11668     11667     11669     11669     11681     11682     11669     11681     11683
     11669     11681     11684     11670     11669     11671     11670     11669     11681
     11671     11669     11681     11672     11675     11676     11673     11672     11674
     11673     11672     11675     11674     11672     11675     11675     11676     11677
     11675     11676     11678     11676     11678     11679     11676     11678     11680
     11676     11678     11728     11677     11676     11678     11678     11728     11729
     11678     11728     11730     11678     11728     11731     11679     11678     11680
     11679     11678     11728     11680     11678     11728     11681     11684     11685
     11681     11684     11686     11681     11684     11687     11682     11681     11683
     11682     11681     11684     11683     11681     11684     11684     11687     11688
     11684     11687     11689     11684     11687     11690     11685     11684     11686
     11685     11684     11687     11686     11684     11687     11687     11690     11691
     11687     11690     11692     11687     11690     11693     11688     11687     11689
     11688     11687     11690     11689     11687     11690     11690     11693     11694
     11690     11693     11695     11690     11693     11696     11691     11690     11692
     11691     11690     11693     11692     11690     11693     11693     11696     11697
     11693     11696     11698     11693     11696     11699     11694     11693     11695
     11694     11693     11696     11695     11693     11696     11696     11699     11700
     11696     11699     11701     11697     11696     11698     11697     11696     11699
     11698     11696     11699     11699     11701     11702     11699     11701     11703
     11700     11699     11701     11701     11703     11704     11701     11703     11705
     11701     11703     11706     11702     11701     11703     11703     11706     11707
     11703     11706     11708     11703     11706     11709     11704     11703     11705
     11704     11703     11706     11705     11703     11706     11706     11709     11710
     11706     11709     11711     11706     11709     11712     11707     11706     11708
     11707     11706     11709     11708     11706     11709     11709     11712     11713
     11709     11712     11714     11709     11712     11715     11710     11709     11711
     11710     11709     11712     11711     11709     11712     11712     11715     11716
     11712     11715     11717     11712     11715     11718     11713     11712     11714
     11713     11712     11715     11714     11712     11715     11715     11718     11719
     11715     11718     11720     11715     11718     11721     11716     11715     11717
     11716     11715     11718     11717     11715     11718     11718     11721     11722
     11718     11721     11723     11718     11721     11724     11719     11718     11720
     11719     11718     11721     11720     11718     11721     11721     11724     11725
     11721     11724     11726     11721     11724     11727     11722     11721     11723
     11722     11721     11724     11723     11721     11724     11725     11724     11726
     11725     11724     11727     11726     11724     11727     11728     11731     11732
     11728     11731     11733     11728     11731     11734     11729     11728     11730
     11729     11728     11731     11730     11728     11731     11731     11734     11735
     11731     11734     11736     11731     11734     11737     11732     11731     11733
     11732     11731     11734     11733     11731     11734     11734     11737     11738
     11734     11737     11739     11734     11737     11740     11735     11734     11736
     11735     11734     11737     11736     11734     11737     11737     11740     11741
     11737     11740     11742     11737     11740     11743     11738     11737     11739
     11738     11737     11740     11739     11737     11740     11740     11743     11744
     11740     11743     11745     11740     11743     11746     11741     11740     11742
     11741     11740     11743     11742     11740     11743     11743     11746     11747
     11743     11746     11748     11743     11746     11749     11744     11743     11745
     11744     11743     11746     11745     11743     11746     11746     11749     11750
     11746     11749     11751     11746     11749     11752     11747     11746     11748
     11747     11746     11749     11748     11746     11749     11749     11752     11753
     11749     11752     11754     11749     11752     11755     11750     11749     11751
     11750     11749     11752     11751     11749     11752     11752     11755     11756
     11752     11755     11757     11752     11755     11758     11753     11752     11754
     11753     11752     11755     11754     11752     11755     11755     11758     11759
     11755     11758     11760     11755     11758     11761     11756     11755     11757
     11756     11755     11758     11757     11755     11758     11758     11761     11762
     11758     11761     11763     11758     11761     11764     11759     11758     11760
     11759     11758     11761     11760     11758     11761     11761     11764     11765
     11761     11764     11766     11761     11764     11767     11762     11761     11763
     11762     11761     11764     11763     11761     11764     11764     11767     11768
     11764     11767     11769     11764     11767     11770     11765     11764     11766
     11765     11764     11767     11766     11764     11767     11768     11767     11769
     11768     11767     11770     11769     11767     11770     11771     11772     11773
     11771     11772     11774     11771     11772     11787     11771     11775     11776
     11771     11775     11777     11771     11775     11778     11771     11779     11780
     11771     11779     11781     11771     11779     11782     11771     11783     11784
     11771     11783     11785     11771     11783     11786     11772     11771     11775
     11772     11771     11779     11772     11771     11783     11772     11787     11788
     11772     11787     11789     11772     11787     11793     11773     11772     11774
     11773     11772     11787     11774     11772     11787     11775     11771     11779
     11775     11771     11783     11776     11775     11777     11776     11775     11778
     11777     11775     11778     11779     11771     11783     11780     11779     11781
     11780     11779     11782     11781     11779     11782     11784     11783     11785
     11784     11783     11786     11785     11783     11786     11787     11793     11790
     11788     11787     11789     11788     11787     11793     11789     11787     11793
     11790     11794     11795     11791     11790     11792     11791     11790     11793
     11791     11790     11794     11792     11790     11793     11792     11790     11794
     11793     11790     11794     11794     11795     11796     11794     11795     11797
     11794     11795     11798     11795     11798     11799     11795     11798     11800
     11795     11798     11806     11796     11795     11797     11796     11795     11798
     11797     11795     11798     11798     11800     11801     11798     11806     11807
     11798     11806     11808     11798     11806     11809     11799     11798     11800
     11799     11798     11806     11800     11798     11806     11800     11801     11802
     11800     11801     11803     11801     11803     11804     11801     11803     11805
     11801     11803     11815     11802     11801     11803     11803     11815     11816
     11803     11815     11817     11803     11815     11818     11804     11803     11805
     11804     11803     11815     11805     11803     11815     11806     11809     11810
     11807     11806     11808     11807     11806     11809     11808     11806     11809
     11809     11810     11811     11809     11810     11812     11810     11812     11813
     11810     11812     11814     11810     11812     11862     11811     11810     11812
     11812     11862     11863     11812     11862     11864     11812     11862     11865
     11813     11812     11814     11813     11812     11862     11814     11812     11862
     11815     11818     11819     11815     11818     11820     11815     11818     11821
     11816     11815     11817     11816     11815     11818     11817     11815     11818
     11818     11821     11822     11818     11821     11823     11818     11821     11824
     11819     11818     11820     11819     11818     11821     11820     11818     11821
     11821     11824     11825     11821     11824     11826     11821     11824     11827
     11822     11821     11823     11822     11821     11824     11823     11821     11824
     11824     11827     11828     11824     11827     11829     11824     11827     11830
     11825     11824     11826     11825     11824     11827     11826     11824     11827
     11827     11830     11831     11827     11830     11832     11827     11830     11833
     11828     11827     11829     11828     11827     11830     11829     11827     11830
     11830     11833     11834     11830     11833     11835     11831     11830     11832
     11831     11830     11833     11832     11830     11833     11833     11835     11836
     11833     11835     11837     11834     11833     11835     11835     11837     11838
     11835     11837     11839     11835     11837     11840     11836     11835     11837
     11837     11840     11841     11837     11840     11842     11837     11840     11843
     11838     11837     11839     11838     11837     11840     11839     11837     11840
     11840     11843     11844     11840     11843     11845     11840     11843     11846
     11841     11840     11842     11841     11840     11843     11842     11840     11843
     11843     11846     11847     11843     11846     11848     11843     11846     11849
     11844     11843     11845     11844     11843     11846     11845     11843     11846
     11846     11849     11850     11846     11849     11851     11846     11849     11852
     11847     11846     11848     11847     11846     11849     11848     11846     11849
     11849     11852     11853     11849     11852     11854     11849     11852     11855
     11850     11849     11851     11850     11849     11852     11851     11849     11852
     11852     11855     11856     11852     11855     11857     11852     11855     11858
     11853     11852     11854     11853     11852     11855     11854     11852     11855
     11855     11858     11859     11855     11858     11860     11855     11858     11861
     11856     11855     11857     11856     11855     11858     11857     11855     11858
     11859     11858     11860     11859     11858     11861     11860     11858     11861
     11862     11865     11866     11862     11865     11867     11862     11865     11868
     11863     11862     11864     11863     11862     11865     11864     11862     11865
     11865     11868     11869     11865     11868     11870     11865     11868     11871
     11866     11865     11867     11866     11865     11868     11867     11865     11868
     11868     11871     11872     11868     11871     11873     11868     11871     11874
     11869     11868     11870     11869     11868     11871     11870     11868     11871
     11871     11874     11875     11871     11874     11876     11871     11874     11877
     11872     11871     11873     11872     11871     11874     11873     11871     11874
     11874     11877     11878     11874     11877     11879     11874     11877     11880
     11875     11874     11876     11875     11874     11877     11876     11874     11877
     11877     11880     11881     11877     11880     11882     11877     11880     11883
     11878     11877     11879     11878     11877     11880     11879     11877     11880
     11880     11883     11884     11880     11883     11885     11880     11883     11886
     11881     11880     11882     11881     11880     11883     11882     11880     11883
     11883     11886     11887     11883     11886     11888     11883     11886     11889
     11884     11883     11885     11884     11883     11886     11885     11883     11886
     11886     11889     11890     11886     11889     11891     11886     11889     11892
     11887     11886     11888     11887     11886     11889     11888     11886     11889
     11889     11892     11893     11889     11892     11894     11889     11892     11895
     11890     11889     11891     11890     11889     11892     11891     11889     11892
     11892     11895     11896     11892     11895     11897     11892     11895     11898
     11893     11892     11894     11893     11892     11895     11894     11892     11895
     11895     11898     11899     11895     11898     11900     11895     11898     11901
     11896     11895     11897     11896     11895     11898     11897     11895     11898
     11898     11901     11902     11898     11901     11903     11898     11901     11904
     11899     11898     11900     11899     11898     11901     11900     11898     11901
     11902     11901     11903     11902     11901     11904     11903     11901     11904
     11905     11906     11907     11905     11906     11908     11905     11906     11921
     11905     11909     11910     11905     11909     11911     11905     11909     11912
     11905     11913     11914     11905     11913     11915     11905     11913     11916
     11905     11917     11918     11905     11917     11919     11905     11917     11920
     11906     11905     11909     11906     11905     11913     11906     11905     11917
     11906     11921     11922     11906     11921     11923     11906     11921     11927
     11907     11906     11908     11907     11906     11921     11908     11906     11921
     11909     11905     11913     11909     11905     11917     11910     11909     11911
     11910     11909     11912     11911     11909     11912     11913     11905     11917
     11914     11913     11915     11914     11913     11916     11915     11913     11916
     11918     11917     11919     11918     11917     11920     11919     11917     11920
     11921     11927     11924     11922     11921     11923     11922     11921     11927
     11923     11921     11927     11924     11928     11929     11925     11924     11926
     11925     11924     11927     11925     11924     11928     11926     11924     11927
     11926     11924     11928     11927     11924     11928     11928     11929     11930
     11928     11929     11931     11928     11929     11932     11929     11932     11933
     11929     11932     11934     11929     11932     11940     11930     11929     11931
     11930     11929     11932     11931     11929     11932     11932     11934     11935
     11932     11940     11941     11932     11940     11942     11932     11940     11943
     11933     11932     11934     11933     11932     11940     11934     11932     11940
     11934     11935     11936     11934     11935     11937     11935     11937     11938
     11935     11937     11939     11935     11937     11949     11936     11935     11937
     11937     11949     11950     11937     11949     11951     11937     11949     11952
     11938     11937     11939     11938     11937     11949     11939     11937     11949
     11940     11943     11944     11941     11940     11942     11941     11940     11943
     11942     11940     11943     11943     11944     11945     11943     11944     11946
     11944     11946     11947     11944     11946     11948     11944     11946     11996
     11945     11944     11946     11946     11996     11997     11946     11996     11998
     11946     11996     11999     11947     11946     11948     11947     11946     11996
     11948     11946     11996     11949     11952     11953     11949     11952     11954
     11949     11952     11955     11950     11949     11951     11950     11949     11952
     11951     11949     11952     11952     11955     11956     11952     11955     11957
     11952     11955     11958     11953     11952     11954     11953     11952     11955
     11954     11952     11955     11955     11958     11959     11955     11958     11960
     11955     11958     11961     11956     11955     11957     11956     11955     11958
     11957     11955     11958     11958     11961     11962     11958     11961     11963
     11958     11961     11964     11959     11958     11960     11959     11958     11961
     11960     11958     11961     11961     11964     11965     11961     11964     11966
     11961     11964     11967     11962     11961     11963     11962     11961     11964
     11963     11961     11964     11964     11967     11968     11964     11967     11969
     11965     11964     11966     11965     11964     11967     11966     11964     11967
     11967     11969     11970     11967     11969     11971     11968     11967     11969
     11969     11971     11972     11969     11971     11973     11969     11971     11974
     11970     11969     11971     11971     11974     11975     11971     11974     11976
     11971     11974     11977     11972     11971     11973     11972     11971     11974
     11973     11971     11974     11974     11977     11978     11974     11977     11979
     11974     11977     11980     11975     11974     11976     11975     11974     11977
     11976     11974     11977     11977     11980     11981     11977     11980     11982
     11977     11980     11983     11978     11977     11979     11978     11977     11980
     11979     11977     11980     11980     11983     11984     11980     11983     11985
     11980     11983     11986     11981     11980     11982     11981     11980     11983
     11982     11980     11983     11983     11986     11987     11983     11986     11988
     11983     11986     11989     11984     11983     11985     11984     11983     11986
     11985     11983     11986     11986     11989     11990     11986     11989     11991
     11986     11989     11992     11987     11986     11988     11987     11986     11989
     11988     11986     11989     11989     11992     11993     11989     11992     11994
     11989     11992     11995     11990     11989     11991     11990     11989     11992
     11991     11989     11992     11993     11992     11994     11993     11992     11995
     11994     11992     11995     11996     11999     12000     11996     11999     12001
     11996     11999     12002     11997     11996     11998     11997     11996     11999
     11998     11996     11999     11999     12002     12003     11999     12002     12004
     11999     12002     12005     12000     11999     12001     12000     11999     12002
     12001     11999     12002     12002     12005     12006     12002     12005     12007
     12002     12005     12008     12003     12002     12004     12003     12002     12005
     12004     12002     12005     12005     12008     12009     12005     12008     12010
     12005     12008     12011     12006     12005     12007     12006     12005     12008
     12007     12005     12008     12008     12011     12012     12008     12011     12013
     12008     12011     12014     12009     12008     12010     12009     12008     12011
     12010     12008     12011     12011     12014     12015     12011     12014     12016
     12011     12014     12017     12012     12011     12013     12012     12011     12014
     12013     12011     12014     12014     12017     12018     12014     12017     12019
     12014     12017     12020     12015     12014     12016     12015     12014     12017
     12016     12014     12017     12017     12020     12021     12017     12020     12022
     12017     12020     12023     12018     12017     12019     12018     12017     12020
     12019     12017     12020     12020     12023     12024     12020     12023     12025
     12020     12023     12026     12021     12020     12022     12021     12020     12023
     12022     12020     12023     12023     12026     12027     12023     12026     12028
     12023     12026     12029     12024     12023     12025     12024     12023     12026
     12025     12023     12026     12026     12029     12030     12026     12029     12031
     12026     12029     12032     12027     12026     12028     12027     12026     12029
     12028     12026     12029     12029     12032     12033     12029     12032     12034
     12029     12032     12035     12030     12029     12031     12030     12029     12032
     12031     12029     12032     12032     12035     12036     12032     12035     12037
     12032     12035     12038     12033     12032     12034     12033     12032     12035
     12034     12032     12035     12036     12035     12037     12036     12035     12038
     12037     12035     12038     12039     12043     12044     12039     12043     12045
     12039     12043     12046     12040     12039     12041     12040     12039     12042
     12040     12039     12043     12041     12039     12042     12041     12039     12043
     12042     12039     12043     12043     12046     12047     12043     12046     12048
     12043     12046     12053     12044     12043     12045     12044     12043     12046
     12045     12043     12046     12046     12053     12049     12047     12046     12048
     12047     12046     12053     12048     12046     12053     12049     12052     12054
     12050     12049     12051     12050     12049     12052     12050     12049     12053
     12051     12049     12052     12051     12049     12053     12052     12049     12053
     12052     12054     12055     12052     12054     12056     12052     12054     12057
     12054     12057     12058     12054     12057     12059     12054     12057     12065
     12055     12054     12056     12055     12054     12057     12056     12054     12057
     12057     12059     12060     12057     12065     12066     12057     12065     12067
     12057     12065     12068     12058     12057     12059     12058     12057     12065
     12059     12057     12065     12059     12060     12061     12059     12060     12062
     12060     12062     12063     12060     12062     12064     12060     12062     12074
     12061     12060     12062     12062     12074     12075     12062     12074     12076
     12062     12074     12077     12063     12062     12064     12063     12062     12074
     12064     12062     12074     12065     12068     12069     12066     12065     12067
     12066     12065     12068     12067     12065     12068     12068     12069     12070
     12068     12069     12071     12069     12071     12072     12069     12071     12073
     12069     12071     12121     12070     12069     12071     12071     12121     12122
     12071     12121     12123     12071     12121     12124     12072     12071     12073
     12072     12071     12121     12073     12071     12121     12074     12077     12078
     12074     12077     12079     12074     12077     12080     12075     12074     12076
     12075     12074     12077     12076     12074     12077     12077     12080     12081
     12077     12080     12082     12077     12080     12083     12078     12077     12079
     12078     12077     12080     12079     12077     12080     12080     12083     12084
     12080     12083     12085     12080     12083     12086     12081     12080     12082
     12081     12080     12083     12082     12080     12083     12083     12086     12087
     12083     12086     12088     12083     12086     12089     12084     12083     12085
     12084     12083     12086     12085     12083     12086     12086     12089     12090
     12086     12089     12091     12086     12089     12092     12087     12086     12088
     12087     12086     12089     12088     12086     12089     12089     12092     12093
     12089     12092     12094     12090     12089     12091     12090     12089     12092
     12091     12089     12092     12092     12094     12095     12092     12094     12096
     12093     12092     12094     12094     12096     12097     12094     12096     12098
     12094     12096     12099     12095     12094     12096     12096     12099     12100
     12096     12099     12101     12096     12099     12102     12097     12096     12098
     12097     12096     12099     12098     12096     12099     12099     12102     12103
     12099     12102     12104     12099     12102     12105     12100     12099     12101
     12100     12099     12102     12101     12099     12102     12102     12105     12106
     12102     12105     12107     12102     12105     12108     12103     12102     12104
     12103     12102     12105     12104     12102     12105     12105     12108     12109
     12105     12108     12110     12105     12108     12111     12106     12105     12107
     12106     12105     12108     12107     12105     12108     12108     12111     12112
     12108     12111     12113     12108     12111     12114     12109     12108     12110
     12109     12108     12111     12110     12108     12111     12111     12114     12115
     12111     12114     12116     12111     12114     12117     12112     12111     12113
     12112     12111     12114     12113     12111     12114     12114     12117     12118
     12114     12117     12119     12114     12117     12120     12115     12114     12116
     12115     12114     12117     12116     12114     12117     12118     12117     12119
     12118     12117     12120     12119     12117     12120     12121     12124     12125
     12121     12124     12126     12121     12124     12127     12122     12121     12123
     12122     12121     12124     12123     12121     12124     12124     12127     12128
     12124     12127     12129     12124     12127     12130     12125     12124     12126
     12125     12124     12127     12126     12124     12127     12127     12130     12131
     12127     12130     12132     12127     12130     12133     12128     12127     12129
     12128     12127     12130     12129     12127     12130     12130     12133     12134
     12130     12133     12135     12130     12133     12136     12131     12130     12132
     12131     12130     12133     12132     12130     12133     12133     12136     12137
     12133     12136     12138     12133     12136     12139     12134     12133     12135
     12134     12133     12136     12135     12133     12136     12136     12139     12140
     12136     12139     12141     12136     12139     12142     12137     12136     12138
     12137     12136     12139     12138     12136     12139     12139     12142     12143
     12139     12142     12144     12139     12142     12145     12140     12139     12141
     12140     12139     12142     12141     12139     12142     12142     12145     12146
     12142     12145     12147     12142     12145     12148     12143     12142     12144
     12143     12142     12145     12144     12142     12145     12145     12148     12149
     12145     12148     12150     12145     12148     12151     12146     12145     12147
     12146     12145     12148     12147     12145     12148     12148     12151     12152
     12148     12151     12153     12148     12151     12154     12149     12148     12150
     12149     12148     12151     12150     12148     12151     12151     12154     12155
     12151     12154     12156     12151     12154     12157     12152     12151     12153
     12152     12151     12154     12153     12151     12154     12154     12157     12158
     12154     12157     12159     12154     12157     12160     12155     12154     12156
     12155     12154     12157     12156     12154     12157     12157     12160     12161
     12157     12160     12162     12157     12160     12163     12158     12157     12159
     12158     12157     12160     12159     12157     12160     12161     12160     12162
     12161     12160     12163     12162     12160     12163     12164     12168     12169
     12164     12168     12170     12164     12168     12171     12165     12164     12166
     12165     12164     12167     12165     12164     12168     12166     12164     12167
     12166     12164     12168     12167     12164     12168     12168     12171     12172
     12168     12171     12173     12168     12171     12178     12169     12168     12170
     12169     12168     12171     12170     12168     12171     12171     12178     12174
     12172     12171     12173     12172     12171     12178     12173     12171     12178
     12174     12177     12179     12175     12174     12176     12175     12174     12177
     12175     12174     12178     12176     12174     12177     12176     12174     12178
     12177     12174     12178     12177     12179     12180     12177     12179     12181
     12177     12179     12182     12179     12182     12183     12179     12182     12184
     12179     12182     12190     12180     12179     12181     12180     12179     12182
     12181     12179     12182     12182     12184     12185     12182     12190     12191
     12182     12190     12192     12182     12190     12193     12183     12182     12184
     12183     12182     12190     12184     12182     12190     12184     12185     12186
     12184     12185     12187     12185     12187     12188     12185     12187     12189
     12185     12187     12199     12186     12185     12187     12187     12199     12200
     12187     12199     12201     12187     12199     12202     12188     12187     12189
     12188     12187     12199     12189     12187     12199     12190     12193     12194
     12191     12190     12192     12191     12190     12193     12192     12190     12193
     12193     12194     12195     12193     12194     12196     12194     12196     12197
     12194     12196     12198     12194     12196     12246     12195     12194     12196
     12196     12246     12247     12196     12246     12248     12196     12246     12249
     12197     12196     12198     12197     12196     12246     12198     12196     12246
     12199     12202     12203     12199     12202     12204     12199     12202     12205
     12200     12199     12201     12200     12199     12202     12201     12199     12202
     12202     12205     12206     12202     12205     12207     12202     12205     12208
     12203     12202     12204     12203     12202     12205     12204     12202     12205
     12205     12208     12209     12205     12208     12210     12205     12208     12211
     12206     12205     12207     12206     12205     12208     12207     12205     12208
     12208     12211     12212     12208     12211     12213     12208     12211     12214
     12209     12208     12210     12209     12208     12211     12210     12208     12211
     12211     12214     12215     12211     12214     12216     12211     12214     12217
     12212     12211     12213     12212     12211     12214     12213     12211     12214
     12214     12217     12218     12214     12217     12219     12215     12214     12216
     12215     12214     12217     12216     12214     12217     12217     12219     12220
     12217     12219     12221     12218     12217     12219     12219     12221     12222
     12219     12221     12223     12219     12221     12224     12220     12219     12221
     12221     12224     12225     12221     12224     12226     12221     12224     12227
     12222     12221     12223     12222     12221     12224     12223     12221     12224
     12224     12227     12228     12224     12227     12229     12224     12227     12230
     12225     12224     12226     12225     12224     12227     12226     12224     12227
     12227     12230     12231     12227     12230     12232     12227     12230     12233
     12228     12227     12229     12228     12227     12230     12229     12227     12230
     12230     12233     12234     12230     12233     12235     12230     12233     12236
     12231     12230     12232     12231     12230     12233     12232     12230     12233
     12233     12236     12237     12233     12236     12238     12233     12236     12239
     12234     12233     12235     12234     12233     12236     12235     12233     12236
     12236     12239     12240     12236     12239     12241     12236     12239     12242
     12237     12236     12238     12237     12236     12239     12238     12236     12239
     12239     12242     12243     12239     12242     12244     12239     12242     12245
     12240     12239     12241     12240     12239     12242     12241     12239     12242
     12243     12242     12244     12243     12242     12245     12244     12242     12245
     12246     12249     12250     12246     12249     12251     12246     12249     12252
     12247     12246     12248     12247     12246     12249     12248     12246     12249
     12249     12252     12253     12249     12252     12254     12249     12252     12255
     12250     12249     12251     12250     12249     12252     12251     12249     12252
     12252     12255     12256     12252     12255     12257     12252     12255     12258
     12253     12252     12254     12253     12252     12255     12254     12252     12255
     12255     12258     12259     12255     12258     12260     12255     12258     12261
     12256     12255     12257     12256     12255     12258     12257     12255     12258
     12258     12261     12262     12258     12261     12263     12258     12261     12264
     12259     12258     12260     12259     12258     12261     12260     12258     12261
     12261     12264     12265     12261     12264     12266     12261     12264     12267
     12262     12261     12263     12262     12261     12264     12263     12261     12264
     12264     12267     12268     12264     12267     12269     12264     12267     12270
     12265     12264     12266     12265     12264     12267     12266     12264     12267
     12267     12270     12271     12267     12270     12272     12267     12270     12273
     12268     12267     12269     12268     12267     12270     12269     12267     12270
     12270     12273     12274     12270     12273     12275     12270     12273     12276
     12271     12270     12272     12271     12270     12273     12272     12270     12273
     12273     12276     12277     12273     12276     12278     12273     12276     12279
     12274     12273     12275     12274     12273     12276     12275     12273     12276
     12276     12279     12280     12276     12279     12281     12276     12279     12282
     12277     12276     12278     12277     12276     12279     12278     12276     12279
     12279     12282     12283     12279     12282     12284     12279     12282     12285
     12280     12279     12281     12280     12279     12282     12281     12279     12282
     12282     12285     12286     12282     12285     12287     12282     12285     12288
     12283     12282     12284     12283     12282     12285     12284     12282     12285
     12286     12285     12287     12286     12285     12288     12287     12285     12288
     12289     12290     12291     12289     12290     12292     12289     12290     12305
     12289     12293     12294     12289     12293     12295     12289     12293     12296
     12289     12297     12298     12289     12297     12299     12289     12297     12300
     12289     12301     12302     12289     12301     12303     12289     12301     12304
     12290     12289     12293     12290     12289     12297     12290     12289     12301
     12290     12305     12306     12290     12305     12307     12290     12305     12311
     12291     12290     12292     12291     12290     12305     12292     12290     12305
     12293     12289     12297     12293     12289     12301     12294     12293     12295
     12294     12293     12296     12295     12293     12296     12297     12289     12301
     12298     12297     12299     12298     12297     12300     12299     12297     12300
     12302     12301     12303     12302     12301     12304     12303     12301     12304
     12305     12311     12308     12306     12305     12307     12306     12305     12311
     12307     12305     12311     12308     12312     12313     12309     12308     12310
     12309     12308     12311     12309     12308     12312     12310     12308     12311
     12310     12308     12312     12311     12308     12312     12312     12313     12314
     12312     12313     12315     12312     12313     12316     12313     12316     12317
     12313     12316     12318     12313     12316     12324     12314     12313     12315
     12314     12313     12316     12315     12313     12316     12316     12318     12319
     12316     12324     12325     12316     12324     12326     12316     12324     12327
     12317     12316     12318     12317     12316     12324     12318     12316     12324
     12318     12319     12320     12318     12319     12321     12319     12321     12322
     12319     12321     12323     12319     12321     12333     12320     12319     12321
     12321     12333     12334     12321     12333     12335     12321     12333     12336
     12322     12321     12323     12322     12321     12333     12323     12321     12333
     12324     12327     12328     12325     12324     12326     12325     12324     12327
     12326     12324     12327     12327     12328     12329     12327     12328     12330
     12328     12330     12331     12328     12330     12332     12328     12330     12380
     12329     12328     12330     12330     12380     12381     12330     12380     12382
     12330     12380     12383     12331     12330     12332     12331     12330     12380
     12332     12330     12380     12333     12336     12337     12333     12336     12338
     12333     12336     12339     12334     12333     12335     12334     12333     12336
     12335     12333     12336     12336     12339     12340     12336     12339     12341
     12336     12339     12342     12337     12336     12338     12337     12336     12339
     12338     12336     12339     12339     12342     12343     12339     12342     12344
     12339     12342     12345     12340     12339     12341     12340     12339     12342
     12341     12339     12342     12342     12345     12346     12342     12345     12347
     12342     12345     12348     12343     12342     12344     12343     12342     12345
     12344     12342     12345     12345     12348     12349     12345     12348     12350
     12345     12348     12351     12346     12345     12347     12346     12345     12348
     12347     12345     12348     12348     12351     12352     12348     12351     12353
     12349     12348     12350     12349     12348     12351     12350     12348     12351
     12351     12353     12354     12351     12353     12355     12352     12351     12353
     12353     12355     12356     12353     12355     12357     12353     12355     12358
     12354     12353     12355     12355     12358     12359     12355     12358     12360
     12355     12358     12361     12356     12355     12357     12356     12355     12358
     12357     12355     12358     12358     12361     12362     12358     12361     12363
     12358     12361     12364     12359     12358     12360     12359     12358     12361
     12360     12358     12361     12361     12364     12365     12361     12364     12366
     12361     12364     12367     12362     12361     12363     12362     12361     12364
     12363     12361     12364     12364     12367     12368     12364     12367     12369
     12364     12367     12370     12365     12364     12366     12365     12364     12367
     12366     12364     12367     12367     12370     12371     12367     12370     12372
     12367     12370     12373     12368     12367     12369     12368     12367     12370
     12369     12367     12370     12370     12373     12374     12370     12373     12375
     12370     12373     12376     12371     12370     12372     12371     12370     12373
     12372     12370     12373     12373     12376     12377     12373     12376     12378
     12373     12376     12379     12374     12373     12375     12374     12373     12376
     12375     12373     12376     12377     12376     12378     12377     12376     12379
     12378     12376     12379     12380     12383     12384     12380     12383     12385
     12380     12383     12386     12381     12380     12382     12381     12380     12383
     12382     12380     12383     12383     12386     12387     12383     12386     12388
     12383     12386     12389     12384     12383     12385     12384     12383     12386
     12385     12383     12386     12386     12389     12390     12386     12389     12391
     12386     12389     12392     12387     12386     12388     12387     12386     12389
     12388     12386     12389     12389     12392     12393     12389     12392     12394
     12389     12392     12395     12390     12389     12391     12390     12389     12392
     12391     12389     12392     12392     12395     12396     12392     12395     12397
     12392     12395     12398     12393     12392     12394     12393     12392     12395
     12394     12392     12395     12395     12398     12399     12395     12398     12400
     12395     12398     12401     12396     12395     12397     12396     12395     12398
     12397     12395     12398     12398     12401     12402     12398     12401     12403
     12398     12401     12404     12399     12398     12400     12399     12398     12401
     12400     12398     12401     12401     12404     12405     12401     12404     12406
     12401     12404     12407     12402     12401     12403     12402     12401     12404
     12403     12401     12404     12404     12407     12408     12404     12407     12409
     12404     12407     12410     12405     12404     12406     12405     12404     12407
     12406     12404     12407     12407     12410     12411     12407     12410     12412
     12407     12410     12413     12408     12407     12409     12408     12407     12410
     12409     12407     12410     12410     12413     12414     12410     12413     12415
     12410     12413     12416     12411     12410     12412     12411     12410     12413
     12412     12410     12413     12413     12416     12417     12413     12416     12418
     12413     12416     12419     12414     12413     12415     12414     12413     12416
     12415     12413     12416     12416     12419     12420     12416     12419     12421
     12416     12419     12422     12417     12416     12418     12417     12416     12419
     12418     12416     12419     12420     12419     12421     12420     12419     12422
     12421     12419     12422     12423     12424     12425     12423     12424     12426
     12423     12424     12439     12423     12427     12428     12423     12427     12429
     12423     12427     12430     12423     12431     12432     12423     12431     12433
     12423     12431     12434     12423     12435     12436     12423     12435     12437
     12423     12435     12438     12424     12423     12427     12424     12423     12431
     12424     12423     12435     12424     12439     12440     12424     12439     12441
     12424     12439     12445     12425     12424     12426     12425     12424     12439
     12426     12424     12439     12427     12423     12431     12427     12423     12435
     12428     12427     12429     12428     12427     12430     12429     12427     12430
     12431     12423     12435     12432     12431     12433     12432     12431     12434
     12433     12431     12434     12436     12435     12437     12436     12435     12438
     12437     12435     12438     12439     12445     12442     12440     12439     12441
     12440     12439     12445     12441     12439     12445     12442     12446     12447
     12443     12442     12444     12443     12442     12445     12443     12442     12446
     12444     12442     12445     12444     12442     12446     12445     12442     12446
     12446     12447     12448     12446     12447     12449     12446     12447     12450
     12447     12450     12451     12447     12450     12452     12447     12450     12458
     12448     12447     12449     12448     12447     12450     12449     12447     12450
     12450     12452     12453     12450     12458     12459     12450     12458     12460
     12450     12458     12461     12451     12450     12452     12451     12450     12458
     12452     12450     12458     12452     12453     12454     12452     12453     12455
     12453     12455     12456     12453     12455     12457     12453     12455     12467
     12454     12453     12455     12455     12467     12468     12455     12467     12469
     12455     12467     12470     12456     12455     12457     12456     12455     12467
     12457     12455     12467     12458     12461     12462     12459     12458     12460
     12459     12458     12461     12460     12458     12461     12461     12462     12463
     12461     12462     12464     12462     12464     12465     12462     12464     12466
     12462     12464     12514     12463     12462     12464     12464     12514     12515
     12464     12514     12516     12464     12514     12517     12465     12464     12466
     12465     12464     12514     12466     12464     12514     12467     12470     12471
     12467     12470     12472     12467     12470     12473     12468     12467     12469
     12468     12467     12470     12469     12467     12470     12470     12473     12474
     12470     12473     12475     12470     12473     12476     12471     12470     12472
     12471     12470     12473     12472     12470     12473     12473     12476     12477
     12473     12476     12478     12473     12476     12479     12474     12473     12475
     12474     12473     12476     12475     12473     12476     12476     12479     12480
     12476     12479     12481     12476     12479     12482     12477     12476     12478
     12477     12476     12479     12478     12476     12479     12479     12482     12483
     12479     12482     12484     12479     12482     12485     12480     12479     12481
     12480     12479     12482     12481     12479     12482     12482     12485     12486
     12482     12485     12487     12483     12482     12484     12483     12482     12485
     12484     12482     12485     12485     12487     12488     12485     12487     12489
     12486     12485     12487     12487     12489     12490     12487     12489     12491
     12487     12489     12492     12488     12487     12489     12489     12492     12493
     12489     12492     12494     12489     12492     12495     12490     12489     12491
     12490     12489     12492     12491     12489     12492     12492     12495     12496
     12492     12495     12497     12492     12495     12498     12493     12492     12494
     12493     12492     12495     12494     12492     12495     12495     12498     12499
     12495     12498     12500     12495     12498     12501     12496     12495     12497
     12496     12495     12498     12497     12495     12498     12498     12501     12502
     12498     12501     12503     12498     12501     12504     12499     12498     12500
     12499     12498     12501     12500     12498     12501     12501     12504     12505
     12501     12504     12506     12501     12504     12507     12502     12501     12503
     12502     12501     12504     12503     12501     12504     12504     12507     12508
     12504     12507     12509     12504     12507     12510     12505     12504     12506
     12505     12504     12507     12506     12504     12507     12507     12510     12511
     12507     12510     12512     12507     12510     12513     12508     12507     12509
     12508     12507     12510     12509     12507     12510     12511     12510     12512
     12511     12510     12513     12512     12510     12513     12514     12517     12518
     12514     12517     12519     12514     12517     12520     12515     12514     12516
     12515     12514     12517     12516     12514     12517     12517     12520     12521
     12517     12520     12522     12517     12520     12523     12518     12517     12519
     12518     12517     12520     12519     12517     12520     12520     12523     12524
     12520     12523     12525     12520     12523     12526     12521     12520     12522
     12521     12520     12523     12522     12520     12523     12523     12526     12527
     12523     12526     12528     12523     12526     12529     12524     12523     12525
     12524     12523     12526     12525     12523     12526     12526     12529     12530
     12526     12529     12531     12526     12529     12532     12527     12526     12528
     12527     12526     12529     12528     12526     12529     12529     12532     12533
     12529     12532     12534     12529     12532     12535     12530     12529     12531
     12530     12529     12532     12531     12529     12532     12532     12535     12536
     12532     12535     12537     12532     12535     12538     12533     12532     12534
     12533     12532     12535     12534     12532     12535     12535     12538     12539
     12535     12538     12540     12535     12538     12541     12536     12535     12537
     12536     12535     12538     12537     12535     12538     12538     12541     12542
     12538     12541     12543     12538     12541     12544     12539     12538     12540
     12539     12538     12541     12540     12538     12541     12541     12544     12545
     12541     12544     12546     12541     12544     12547     12542     12541     12543
     12542     12541     12544     12543     12541     12544     12544     12547     12548
     12544     12547     12549     12544     12547     12550     12545     12544     12546
     12545     12544     12547     12546     12544     12547     12547     12550     12551
     12547     12550     12552     12547     12550     12553     12548     12547     12549
     12548     12547     12550     12549     12547     12550     12550     12553     12554
     12550     12553     12555     12550     12553     12556     12551     12550     12552
     12551     12550     12553     12552     12550     12553     12554     12553     12555
     12554     12553     12556     12555     12553     12556     12557     12558     12559
     12557     12558     12560     12557     12558     12573     12557     12561     12562
     12557     12561     12563     12557     12561     12564     12557     12565     12566
     12557     12565     12567     12557     12565     12568     12557     12569     12570
     12557     12569     12571     12557     12569     12572     12558     12557     12561
     12558     12557     12565     12558     12557     12569     12558     12573     12574
     12558     12573     12575     12558     12573     12579     12559     12558     12560
     12559     12558     12573     12560     12558     12573     12561     12557     12565
     12561     12557     12569     12562     12561     12563     12562     12561     12564
     12563     12561     12564     12565     12557     12569     12566     12565     12567
     12566     12565     12568     12567     12565     12568     12570     12569     12571
     12570     12569     12572     12571     12569     12572     12573     12579     12576
     12574     12573     12575     12574     12573     12579     12575     12573     12579
     12576     12580     12581     12577     12576     12578     12577     12576     12579
     12577     12576     12580     12578     12576     12579     12578     12576     12580
     12579     12576     12580     12580     12581     12582     12580     12581     12583
     12580     12581     12584     12581     12584     12585     12581     12584     12586
     12581     12584     12592     12582     12581     12583     12582     12581     12584
     12583     12581     12584     12584     12586     12587     12584     12592     12593
     12584     12592     12594     12584     12592     12595     12585     12584     12586
     12585     12584     12592     12586     12584     12592     12586     12587     12588
     12586     12587     12589     12587     12589     12590     12587     12589     12591
     12587     12589     12601     12588     12587     12589     12589     12601     12602
     12589     12601     12603     12589     12601     12604     12590     12589     12591
     12590     12589     12601     12591     12589     12601     12592     12595     12596
     12593     12592     12594     12593     12592     12595     12594     12592     12595
     12595     12596     12597     12595     12596     12598     12596     12598     12599
     12596     12598     12600     12596     12598     12648     12597     12596     12598
     12598     12648     12649     12598     12648     12650     12598     12648     12651
     12599     12598     12600     12599     12598     12648     12600     12598     12648
     12601     12604     12605     12601     12604     12606     12601     12604     12607
     12602     12601     12603     12602     12601     12604     12603     12601     12604
     12604     12607     12608     12604     12607     12609     12604     12607     12610
     12605     12604     12606     12605     12604     12607     12606     12604     12607
     12607     12610     12611     12607     12610     12612     12607     12610     12613
     12608     12607     12609     12608     12607     12610     12609     12607     12610
     12610     12613     12614     12610     12613     12615     12610     12613     12616
     12611     12610     12612     12611     12610     12613     12612     12610     12613
     12613     12616     12617     12613     12616     12618     12613     12616     12619
     12614     12613     12615     12614     12613     12616     12615     12613     12616
     12616     12619     12620     12616     12619     12621     12617     12616     12618
     12617     12616     12619     12618     12616     12619     12619     12621     12622
     12619     12621     12623     12620     12619     12621     12621     12623     12624
     12621     12623     12625     12621     12623     12626     12622     12621     12623
     12623     12626     12627     12623     12626     12628     12623     12626     12629
     12624     12623     12625     12624     12623     12626     12625     12623     12626
     12626     12629     12630     12626     12629     12631     12626     12629     12632
     12627     12626     12628     12627     12626     12629     12628     12626     12629
     12629     12632     12633     12629     12632     12634     12629     12632     12635
     12630     12629     12631     12630     12629     12632     12631     12629     12632
     12632     12635     12636     12632     12635     12637     12632     12635     12638
     12633     12632     12634     12633     12632     12635     12634     12632     12635
     12635     12638     12639     12635     12638     12640     12635     12638     12641
     12636     12635     12637     12636     12635     12638     12637     12635     12638
     12638     12641     12642     12638     12641     12643     12638     12641     12644
     12639     12638     12640     12639     12638     12641     12640     12638     12641
     12641     12644     12645     12641     12644     12646     12641     12644     12647
     12642     12641     12643     12642     12641     12644     12643     12641     12644
     12645     12644     12646     12645     12644     12647     12646     12644     12647
     12648     12651     12652     12648     12651     12653     12648     12651     12654
     12649     12648     12650     12649     12648     12651     12650     12648     12651
     12651     12654     12655     12651     12654     12656     12651     12654     12657
     12652     12651     12653     12652     12651     12654     12653     12651     12654
     12654     12657     12658     12654     12657     12659     12654     12657     12660
     12655     12654     12656     12655     12654     12657     12656     12654     12657
     12657     12660     12661     12657     12660     12662     12657     12660     12663
     12658     12657     12659     12658     12657     12660     12659     12657     12660
     12660     12663     12664     12660     12663     12665     12660     12663     12666
     12661     12660     12662     12661     12660     12663     12662     12660     12663
     12663     12666     12667     12663     12666     12668     12663     12666     12669
     12664     12663     12665     12664     12663     12666     12665     12663     12666
     12666     12669     12670     12666     12669     12671     12666     12669     12672
     12667     12666     12668     12667     12666     12669     12668     12666     12669
     12669     12672     12673     12669     12672     12674     12669     12672     12675
     12670     12669     12671     12670     12669     12672     12671     12669     12672
     12672     12675     12676     12672     12675     12677     12672     12675     12678
     12673     12672     12674     12673     12672     12675     12674     12672     12675
     12675     12678     12679     12675     12678     12680     12675     12678     12681
     12676     12675     12677     12676     12675     12678     12677     12675     12678
     12678     12681     12682     12678     12681     12683     12678     12681     12684
     12679     12678     12680     12679     12678     12681     12680     12678     12681
     12681     12684     12685     12681     12684     12686     12681     12684     12687
     12682     12681     12683     12682     12681     12684     12683     12681     12684
     12684     12687     12688     12684     12687     12689     12684     12687     12690
     12685     12684     12686     12685     12684     12687     12686     12684     12687
     12688     12687     12689     12688     12687     12690     12689     12687     12690
     12691     12695     12696     12691     12695     12697     12691     12695     12698
     12692     12691     12693     12692     12691     12694     12692     12691     12695
     12693     12691     12694     12693     12691     12695     12694     12691     12695
     12695     12698     12699     12695     12698     12700     12695     12698     12705
     12696     12695     12697     12696     12695     12698     12697     12695     12698
     12698     12705     12701     12699     12698     12700     12699     12698     12705
     12700     12698     12705     12701     12704     12706     12702     12701     12703
     12702     12701     12704     12702     12701     12705     12703     12701     12704
     12703     12701     12705     12704     12701     12705     12704     12706     12707
     12704     12706     12708     12704     12706     12709     12706     12709     12710
     12706     12709     12711     12706     12709     12717     12707     12706     12708
     12707     12706     12709     12708     12706     12709     12709     12711     12712
     12709     12717     12718     12709     12717     12719     12709     12717     12720
     12710     12709     12711     12710     12709     12717     12711     12709     12717
     12711     12712     12713     12711     12712     12714     12712     12714     12715
     12712     12714     12716     12712     12714     12726     12713     12712     12714
     12714     12726     12727     12714     12726     12728     12714     12726     12729
     12715     12714     12716     12715     12714     12726     12716     12714     12726
     12717     12720     12721     12718     12717     12719     12718     12717     12720
     12719     12717     12720     12720     12721     12722     12720     12721     12723
     12721     12723     12724     12721     12723     12725     12721     12723     12773
     12722     12721     12723     12723     12773     12774     12723     12773     12775
     12723     12773     12776     12724     12723     12725     12724     12723     12773
     12725     12723     12773     12726     12729     12730     12726     12729     12731
     12726     12729     12732     12727     12726     12728     12727     12726     12729
     12728     12726     12729     12729     12732     12733     12729     12732     12734
     12729     12732     12735     12730     12729     12731     12730     12729     12732
     12731     12729     12732     12732     12735     12736     12732     12735     12737
     12732     12735     12738     12733     12732     12734     12733     12732     12735
     12734     12732     12735     12735     12738     12739     12735     12738     12740
     12735     12738     12741     12736     12735     12737     12736     12735     12738
     12737     12735     12738     12738     12741     12742     12738     12741     12743
     12738     12741     12744     12739     12738     12740     12739     12738     12741
     12740     12738     12741     12741     12744     12745     12741     12744     12746
     12742     12741     12743     12742     12741     12744     12743     12741     12744
     12744     12746     12747     12744     12746     12748     12745     12744     12746
     12746     12748     12749     12746     12748     12750     12746     12748     12751
     12747     12746     12748     12748     12751     12752     12748     12751     12753
     12748     12751     12754     12749     12748     12750     12749     12748     12751
     12750     12748     12751     12751     12754     12755     12751     12754     12756
     12751     12754     12757     12752     12751     12753     12752     12751     12754
     12753     12751     12754     12754     12757     12758     12754     12757     12759
     12754     12757     12760     12755     12754     12756     12755     12754     12757
     12756     12754     12757     12757     12760     12761     12757     12760     12762
     12757     12760     12763     12758     12757     12759     12758     12757     12760
     12759     12757     12760     12760     12763     12764     12760     12763     12765
     12760     12763     12766     12761     12760     12762     12761     12760     12763
     12762     12760     12763     12763     12766     12767     12763     12766     12768
     12763     12766     12769     12764     12763     12765     12764     12763     12766
     12765     12763     12766     12766     12769     12770     12766     12769     12771
     12766     12769     12772     12767     12766     12768     12767     12766     12769
     12768     12766     12769     12770     12769     12771     12770     12769     12772
     12771     12769     12772     12773     12776     12777     12773     12776     12778
     12773     12776     12779     12774     12773     12775     12774     12773     12776
     12775     12773     12776     12776     12779     12780     12776     12779     12781
     12776     12779     12782     12777     12776     12778     12777     12776     12779
     12778     12776     12779     12779     12782     12783     12779     12782     12784
     12779     12782     12785     12780     12779     12781     12780     12779     12782
     12781     12779     12782     12782     12785     12786     12782     12785     12787
     12782     12785     12788     12783     12782     12784     12783     12782     12785
     12784     12782     12785     12785     12788     12789     12785     12788     12790
     12785     12788     12791     12786     12785     12787     12786     12785     12788
     12787     12785     12788     12788     12791     12792     12788     12791     12793
     12788     12791     12794     12789     12788     12790     12789     12788     12791
     12790     12788     12791     12791     12794     12795     12791     12794     12796
     12791     12794     12797     12792     12791     12793     12792     12791     12794
     12793     12791     12794     12794     12797     12798     12794     12797     12799
     12794     12797     12800     12795     12794     12796     12795     12794     12797
     12796     12794     12797     12797     12800     12801     12797     12800     12802
     12797     12800     12803     12798     12797     12799     12798     12797     12800
     12799     12797     12800     12800     12803     12804     12800     12803     12805
     12800     12803     12806     12801     12800     12802     12801     12800     12803
     12802     12800     12803     12803     12806     12807     12803     12806     12808
     12803     12806     12809     12804     12803     12805     12804     12803     12806
     12805     12803     12806     12806     12809     12810     12806     12809     12811
     12806     12809     12812     12807     12806     12808     12807     12806     12809
     12808     12806     12809     12809     12812     12813     12809     12812     12814
     12809     12812     12815     12810     12809     12811     12810     12809     12812
     12811     12809     12812     12813     12812     12814     12813     12812     12815
     12814     12812     12815     12816     12817     12818     12816     12817     12819
     12816     12817     12832     12816     12820     12821     12816     12820     12822
     12816     12820     12823     12816     12824     12825     12816     12824     12826
     12816     12824     12827     12816     12828     12829     12816     12828     12830
     12816     12828     12831     12817     12816     12820     12817     12816     12824
     12817     12816     12828     12817     12832     12833     12817     12832     12834
     12817     12832     12838     12818     12817     12819     12818     12817     12832
     12819     12817     12832     12820     12816     12824     12820     12816     12828
     12821     12820     12822     12821     12820     12823     12822     12820     12823
     12824     12816     12828     12825     12824     12826     12825     12824     12827
     12826     12824     12827     12829     12828     12830     12829     12828     12831
     12830     12828     12831     12832     12838     12835     12833     12832     12834
     12833     12832     12838     12834     12832     12838     12835     12839     12840
     12836     12835     12837     12836     12835     12838     12836     12835     12839
     12837     12835     12838     12837     12835     12839     12838     12835     12839
     12839     12840     12841     12839     12840     12842     12839     12840     12843
     12840     12843     12844     12840     12843     12845     12840     12843     12851
     12841     12840     12842     12841     12840     12843     12842     12840     12843
     12843     12845     12846     12843     12851     12852     12843     12851     12853
     12843     12851     12854     12844     12843     12845     12844     12843     12851
     12845     12843     12851     12845     12846     12847     12845     12846     12848
     12846     12848     12849     12846     12848     12850     12846     12848     12860
     12847     12846     12848     12848     12860     12861     12848     12860     12862
     12848     12860     12863     12849     12848     12850     12849     12848     12860
     12850     12848     12860     12851     12854     12855     12852     12851     12853
     12852     12851     12854     12853     12851     12854     12854     12855     12856
     12854     12855     12857     12855     12857     12858     12855     12857     12859
     12855     12857     12907     12856     12855     12857     12857     12907     12908
     12857     12907     12909     12857     12907     12910     12858     12857     12859
     12858     12857     12907     12859     12857     12907     12860     12863     12864
     12860     12863     12865     12860     12863     12866     12861     12860     12862
     12861     12860     12863     12862     12860     12863     12863     12866     12867
     12863     12866     12868     12863     12866     12869     12864     12863     12865
     12864     12863     12866     12865     12863     12866     12866     12869     12870
     12866     12869     12871     12866     12869     12872     12867     12866     12868
     12867     12866     12869     12868     12866     12869     12869     12872     12873
     12869     12872     12874     12869     12872     12875     12870     12869     12871
     12870     12869     12872     12871     12869     12872     12872     12875     12876
     12872     12875     12877     12872     12875     12878     12873     12872     12874
     12873     12872     12875     12874     12872     12875     12875     12878     12879
     12875     12878     12880     12876     12875     12877     12876     12875     12878
     12877     12875     12878     12878     12880     12881     12878     12880     12882
     12879     12878     12880     12880     12882     12883     12880     12882     12884
     12880     12882     12885     12881     12880     12882     12882     12885     12886
     12882     12885     12887     12882     12885     12888     12883     12882     12884
     12883     12882     12885     12884     12882     12885     12885     12888     12889
     12885     12888     12890     12885     12888     12891     12886     12885     12887
     12886     12885     12888     12887     12885     12888     12888     12891     12892
     12888     12891     12893     12888     12891     12894     12889     12888     12890
     12889     12888     12891     12890     12888     12891     12891     12894     12895
     12891     12894     12896     12891     12894     12897     12892     12891     12893
     12892     12891     12894     12893     12891     12894     12894     12897     12898
     12894     12897     12899     12894     12897     12900     12895     12894     12896
     12895     12894     12897     12896     12894     12897     12897     12900     12901
     12897     12900     12902     12897     12900     12903     12898     12897     12899
     12898     12897     12900     12899     12897     12900     12900     12903     12904
     12900     12903     12905     12900     12903     12906     12901     12900     12902
     12901     12900     12903     12902     12900     12903     12904     12903     12905
     12904     12903     12906     12905     12903     12906     12907     12910     12911
     12907     12910     12912     12907     12910     12913     12908     12907     12909
     12908     12907     12910     12909     12907     12910     12910     12913     12914
     12910     12913     12915     12910     12913     12916     12911     12910     12912
     12911     12910     12913     12912     12910     12913     12913     12916     12917
     12913     12916     12918     12913     12916     12919     12914     12913     12915
     12914     12913     12916     12915     12913     12916     12916     12919     12920
     12916     12919     12921     12916     12919     12922     12917     12916     12918
     12917     12916     12919     12918     12916     12919     12919     12922     12923
     12919     12922     12924     12919     12922     12925     12920     12919     12921
     12920     12919     12922     12921     12919     12922     12922     12925     12926
     12922     12925     12927     12922     12925     12928     12923     12922     12924
     12923     12922     12925     12924     12922     12925     12925     12928     12929
     12925     12928     12930     12925     12928     12931     12926     12925     12927
     12926     12925     12928     12927     12925     12928     12928     12931     12932
     12928     12931     12933     12928     12931     12934     12929     12928     12930
     12929     12928     12931     12930     12928     12931     12931     12934     12935
     12931     12934     12936     12931     12934     12937     12932     12931     12933
     12932     12931     12934     12933     12931     12934     12934     12937     12938
     12934     12937     12939     12934     12937     12940     12935     12934     12936
     12935     12934     12937     12936     12934     12937     12937     12940     12941
     12937     12940     12942     12937     12940     12943     12938     12937     12939
     12938     12937     12940     12939     12937     12940     12940     12943     12944
     12940     12943     12945     12940     12943     12946     12941     12940     12942
     12941     12940     12943     12942     12940     12943     12943     12946     12947
     12943     12946     12948     12943     12946     12949     12944     12943     12945
     12944     12943     12946     12945     12943     12946     12947     12946     12948
     12947     12946     12949     12948     12946     12949     12950     12954     12955
     12950     12954     12956     12950     12954     12957     12951     12950     12952
     12951     12950     12953     12951     12950     12954     12952     12950     12953
     12952     12950     12954     12953     12950     12954     12954     12957     12958
     12954     12957     12959     12954     12957     12964     12955     12954     12956
     12955     12954     12957     12956     12954     12957     12957     12964     12960
     12958     12957     12959     12958     12957     12964     12959     12957     12964
     12960     12963     12965     12961     12960     12962     12961     12960     12963
     12961     12960     12964     12962     12960     12963     12962     12960     12964
     12963     12960     12964     12963     12965     12966     12963     12965     12967
     12963     12965     12968     12965     12968     12969     12965     12968     12970
     12965     12968     12976     12966     12965     12967     12966     12965     12968
     12967     12965     12968     12968     12970     12971     12968     12976     12977
     12968     12976     12978     12968     12976     12979     12969     12968     12970
     12969     12968     12976     12970     12968     12976     12970     12971     12972
     12970     12971     12973     12971     12973     12974     12971     12973     12975
     12971     12973     12985     12972     12971     12973     12973     12985     12986
     12973     12985     12987     12973     12985     12988     12974     12973     12975
     12974     12973     12985     12975     12973     12985     12976     12979     12980
     12977     12976     12978     12977     12976     12979     12978     12976     12979
     12979     12980     12981     12979     12980     12982     12980     12982     12983
     12980     12982     12984     12980     12982     13032     12981     12980     12982
     12982     13032     13033     12982     13032     13034     12982     13032     13035
     12983     12982     12984     12983     12982     13032     12984     12982     13032
     12985     12988     12989     12985     12988     12990     12985     12988     12991
     12986     12985     12987     12986     12985     12988     12987     12985     12988
     12988     12991     12992     12988     12991     12993     12988     12991     12994
     12989     12988     12990     12989     12988     12991     12990     12988     12991
     12991     12994     12995     12991     12994     12996     12991     12994     12997
     12992     12991     12993     12992     12991     12994     12993     12991     12994
     12994     12997     12998     12994     12997     12999     12994     12997     13000
     12995     12994     12996     12995     12994     12997     12996     12994     12997
     12997     13000     13001     12997     13000     13002     12997     13000     13003
     12998     12997     12999     12998     12997     13000     12999     12997     13000
     13000     13003     13004     13000     13003     13005     13001     13000     13002
     13001     13000     13003     13002     13000     13003     13003     13005     13006
     13003     13005     13007     13004     13003     13005     13005     13007     13008
     13005     13007     13009     13005     13007     13010     13006     13005     13007
     13007     13010     13011     13007     13010     13012     13007     13010     13013
     13008     13007     13009     13008     13007     13010     13009     13007     13010
     13010     13013     13014     13010     13013     13015     13010     13013     13016
     13011     13010     13012     13011     13010     13013     13012     13010     13013
     13013     13016     13017     13013     13016     13018     13013     13016     13019
     13014     13013     13015     13014     13013     13016     13015     13013     13016
     13016     13019     13020     13016     13019     13021     13016     13019     13022
     13017     13016     13018     13017     13016     13019     13018     13016     13019
     13019     13022     13023     13019     13022     13024     13019     13022     13025
     13020     13019     13021     13020     13019     13022     13021     13019     13022
     13022     13025     13026     13022     13025     13027     13022     13025     13028
     13023     13022     13024     13023     13022     13025     13024     13022     13025
     13025     13028     13029     13025     13028     13030     13025     13028     13031
     13026     13025     13027     13026     13025     13028     13027     13025     13028
     13029     13028     13030     13029     13028     13031     13030     13028     13031
     13032     13035     13036     13032     13035     13037     13032     13035     13038
     13033     13032     13034     13033     13032     13035     13034     13032     13035
     13035     13038     13039     13035     13038     13040     13035     13038     13041
     13036     13035     13037     13036     13035     13038     13037     13035     13038
     13038     13041     13042     13038     13041     13043     13038     13041     13044
     13039     13038     13040     13039     13038     13041     13040     13038     13041
     13041     13044     13045     13041     13044     13046     13041     13044     13047
     13042     13041     13043     13042     13041     13044     13043     13041     13044
     13044     13047     13048     13044     13047     13049     13044     13047     13050
     13045     13044     13046     13045     13044     13047     13046     13044     13047
     13047     13050     13051     13047     13050     13052     13047     13050     13053
     13048     13047     13049     13048     13047     13050     13049     13047     13050
     13050     13053     13054     13050     13053     13055     13050     13053     13056
     13051     13050     13052     13051     13050     13053     13052     13050     13053
     13053     13056     13057     13053     13056     13058     13053     13056     13059
     13054     13053     13055     13054     13053     13056     13055     13053     13056
     13056     13059     13060     13056     13059     13061     13056     13059     13062
     13057     13056     13058     13057     13056     13059     13058     13056     13059
     13059     13062     13063     13059     13062     13064     13059     13062     13065
     13060     13059     13061     13060     13059     13062     13061     13059     13062
     13062     13065     13066     13062     13065     13067     13062     13065     13068
     13063     13062     13064     13063     13062     13065     13064     13062     13065
     13065     13068     13069     13065     13068     13070     13065     13068     13071
     13066     13065     13067     13066     13065     13068     13067     13065     13068
     13068     13071     13072     13068     13071     13073     13068     13071     13074
     13069     13068     13070     13069     13068     13071     13070     13068     13071
     13072     13071     13073     13072     13071     13074     13073     13071     13074
     13075     13079     13080     13075     13079     13081     13075     13079     13082
     13076     13075     13077     13076     13075     13078     13076     13075     13079
     13077     13075     13078     13077     13075     13079     13078     13075     13079
     13079     13082     13083     13079     13082     13084     13079     13082     13089
     13080     13079     13081     13080     13079     13082     13081     13079     13082
     13082     13089     13085     13083     13082     13084     13083     13082     13089
     13084     13082     13089     13085     13088     13090     13086     13085     13087
     13086     13085     13088     13086     13085     13089     13087     13085     13088
     13087     13085     13089     13088     13085     13089     13088     13090     13091
     13088     13090     13092     13088     13090     13093     13090     13093     13094
     13090     13093     13095     13090     13093     13101     13091     13090     13092
     13091     13090     13093     13092     13090     13093     13093     13095     13096
     13093     13101     13102     13093     13101     13103     13093     13101     13104
     13094     13093     13095     13094     13093     13101     13095     13093     13101
     13095     13096     13097     13095     13096     13098     13096     13098     13099
     13096     13098     13100     13096     13098     13110     13097     13096     13098
     13098     13110     13111     13098     13110     13112     13098     13110     13113
     13099     13098     13100     13099     13098     13110     13100     13098     13110
     13101     13104     13105     13102     13101     13103     13102     13101     13104
     13103     13101     13104     13104     13105     13106     13104     13105     13107
     13105     13107     13108     13105     13107     13109     13105     13107     13157
     13106     13105     13107     13107     13157     13158     13107     13157     13159
     13107     13157     13160     13108     13107     13109     13108     13107     13157
     13109     13107     13157     13110     13113     13114     13110     13113     13115
     13110     13113     13116     13111     13110     13112     13111     13110     13113
     13112     13110     13113     13113     13116     13117     13113     13116     13118
     13113     13116     13119     13114     13113     13115     13114     13113     13116
     13115     13113     13116     13116     13119     13120     13116     13119     13121
     13116     13119     13122     13117     13116     13118     13117     13116     13119
     13118     13116     13119     13119     13122     13123     13119     13122     13124
     13119     13122     13125     13120     13119     13121     13120     13119     13122
     13121     13119     13122     13122     13125     13126     13122     13125     13127
     13122     13125     13128     13123     13122     13124     13123     13122     13125
     13124     13122     13125     13125     13128     13129     13125     13128     13130
     13126     13125     13127     13126     13125     13128     13127     13125     13128
     13128     13130     13131     13128     13130     13132     13129     13128     13130
     13130     13132     13133     13130     13132     13134     13130     13132     13135
     13131     13130     13132     13132     13135     13136     13132     13135     13137
     13132     13135     13138     13133     13132     13134     13133     13132     13135
     13134     13132     13135     13135     13138     13139     13135     13138     13140
     13135     13138     13141     13136     13135     13137     13136     13135     13138
     13137     13135     13138     13138     13141     13142     13138     13141     13143
     13138     13141     13144     13139     13138     13140     13139     13138     13141
     13140     13138     13141     13141     13144     13145     13141     13144     13146
     13141     13144     13147     13142     13141     13143     13142     13141     13144
     13143     13141     13144     13144     13147     13148     13144     13147     13149
     13144     13147     13150     13145     13144     13146     13145     13144     13147
     13146     13144     13147     13147     13150     13151     13147     13150     13152
     13147     13150     13153     13148     13147     13149     13148     13147     13150
     13149     13147     13150     13150     13153     13154     13150     13153     13155
     13150     13153     13156     13151     13150     13152     13151     13150     13153
     13152     13150     13153     13154     13153     13155     13154     13153     13156
     13155     13153     13156     13157     13160     13161     13157     13160     13162
     13157     13160     13163     13158     13157     13159     13158     13157     13160
     13159     13157     13160     13160     13163     13164     13160     13163     13165
     13160     13163     13166     13161     13160     13162     13161     13160     13163
     13162     13160     13163     13163     13166     13167     13163     13166     13168
     13163     13166     13169     13164     13163     13165     13164     13163     13166
     13165     13163     13166     13166     13169     13170     13166     13169     13171
     13166     13169     13172     13167     13166     13168     13167     13166     13169
     13168     13166     13169     13169     13172     13173     13169     13172     13174
     13169     13172     13175     13170     13169     13171     13170     13169     13172
     13171     13169     13172     13172     13175     13176     13172     13175     13177
     13172     13175     13178     13173     13172     13174     13173     13172     13175
     13174     13172     13175     13175     13178     13179     13175     13178     13180
     13175     13178     13181     13176     13175     13177     13176     13175     13178
     13177     13175     13178     13178     13181     13182     13178     13181     13183
     13178     13181     13184     13179     13178     13180     13179     13178     13181
     13180     13178     13181     13181     13184     13185     13181     13184     13186
     13181     13184     13187     13182     13181     13183     13182     13181     13184
     13183     13181     13184     13184     13187     13188     13184     13187     13189
     13184     13187     13190     13185     13184     13186     13185     13184     13187
     13186     13184     13187     13187     13190     13191     13187     13190     13192
     13187     13190     13193     13188     13187     13189     13188     13187     13190
     13189     13187     13190     13190     13193     13194     13190     13193     13195
     13190     13193     13196     13191     13190     13192     13191     13190     13193
     13192     13190     13193     13193     13196     13197     13193     13196     13198
     13193     13196     13199     13194     13193     13195     13194     13193     13196
     13195     13193     13196     13197     13196     13198     13197     13196     13199
     13198     13196     13199     13200     13201     13202     13200     13201     13203
     13200     13201     13216     13200     13204     13205     13200     13204     13206
     13200     13204     13207     13200     13208     13209     13200     13208     13210
     13200     13208     13211     13200     13212     13213     13200     13212     13214
     13200     13212     13215     13201     13200     13204     13201     13200     13208
     13201     13200     13212     13201     13216     13217     13201     13216     13218
     13201     13216     13222     13202     13201     13203     13202     13201     13216
     13203     13201     13216     13204     13200     13208     13204     13200     13212
     13205     13204     13206     13205     13204     13207     13206     13204     13207
     13208     13200     13212     13209     13208     13210     13209     13208     13211
     13210     13208     13211     13213     13212     13214     13213     13212     13215
     13214     13212     13215     13216     13222     13219     13217     13216     13218
     13217     13216     13222     13218     13216     13222     13219     13223     13224
     13220     13219     13221     13220     13219     13222     13220     13219     13223
     13221     13219     13222     13221     13219     13223     13222     13219     13223
     13223     13224     13225     13223     13224     13226     13223     13224     13227
     13224     13227     13228     13224     13227     13229     13224     13227     13235
     13225     13224     13226     13225     13224     13227     13226     13224     13227
     13227     13229     13230     13227     13235     13236     13227     13235     13237
     13227     13235     13238     13228     13227     13229     13228     13227     13235
     13229     13227     13235     13229     13230     13231     13229     13230     13232
     13230     13232     13233     13230     13232     13234     13230     13232     13244
     13231     13230     13232     13232     13244     13245     13232     13244     13246
     13232     13244     13247     13233     13232     13234     13233     13232     13244
     13234     13232     13244     13235     13238     13239     13236     13235     13237
     13236     13235     13238     13237     13235     13238     13238     13239     13240
     13238     13239     13241     13239     13241     13242     13239     13241     13243
     13239     13241     13291     13240     13239     13241     13241     13291     13292
     13241     13291     13293     13241     13291     13294     13242     13241     13243
     13242     13241     13291     13243     13241     13291     13244     13247     13248
     13244     13247     13249     13244     13247     13250     13245     13244     13246
     13245     13244     13247     13246     13244     13247     13247     13250     13251
     13247     13250     13252     13247     13250     13253     13248     13247     13249
     13248     13247     13250     13249     13247     13250     13250     13253     13254
     13250     13253     13255     13250     13253     13256     13251     13250     13252
     13251     13250     13253     13252     13250     13253     13253     13256     13257
     13253     13256     13258     13253     13256     13259     13254     13253     13255
     13254     13253     13256     13255     13253     13256     13256     13259     13260
     13256     13259     13261     13256     13259     13262     13257     13256     13258
     13257     13256     13259     13258     13256     13259     13259     13262     13263
     13259     13262     13264     13260     13259     13261     13260     13259     13262
     13261     13259     13262     13262     13264     13265     13262     13264     13266
     13263     13262     13264     13264     13266     13267     13264     13266     13268
     13264     13266     13269     13265     13264     13266     13266     13269     13270
     13266     13269     13271     13266     13269     13272     13267     13266     13268
     13267     13266     13269     13268     13266     13269     13269     13272     13273
     13269     13272     13274     13269     13272     13275     13270     13269     13271
     13270     13269     13272     13271     13269     13272     13272     13275     13276
     13272     13275     13277     13272     13275     13278     13273     13272     13274
     13273     13272     13275     13274     13272     13275     13275     13278     13279
     13275     13278     13280     13275     13278     13281     13276     13275     13277
     13276     13275     13278     13277     13275     13278     13278     13281     13282
     13278     13281     13283     13278     13281     13284     13279     13278     13280
     13279     13278     13281     13280     13278     13281     13281     13284     13285
     13281     13284     13286     13281     13284     13287     13282     13281     13283
     13282     13281     13284     13283     13281     13284     13284     13287     13288
     13284     13287     13289     13284     13287     13290     13285     13284     13286
     13285     13284     13287     13286     13284     13287     13288     13287     13289
     13288     13287     13290     13289     13287     13290     13291     13294     13295
     13291     13294     13296     13291     13294     13297     13292     13291     13293
     13292     13291     13294     13293     13291     13294     13294     13297     13298
     13294     13297     13299     13294     13297     13300     13295     13294     13296
     13295     13294     13297     13296     13294     13297     13297     13300     13301
     13297     13300     13302     13297     13300     13303     13298     13297     13299
     13298     13297     13300     13299     13297     13300     13300     13303     13304
     13300     13303     13305     13300     13303     13306     13301     13300     13302
     13301     13300     13303     13302     13300     13303     13303     13306     13307
     13303     13306     13308     13303     13306     13309     13304     13303     13305
     13304     13303     13306     13305     13303     13306     13306     13309     13310
     13306     13309     13311     13306     13309     13312     13307     13306     13308
     13307     13306     13309     13308     13306     13309     13309     13312     13313
     13309     13312     13314     13309     13312     13315     13310     13309     13311
     13310     13309     13312     13311     13309     13312     13312     13315     13316
     13312     13315     13317     13312     13315     13318     13313     13312     13314
     13313     13312     13315     13314     13312     13315     13315     13318     13319
     13315     13318     13320     13315     13318     13321     13316     13315     13317
     13316     13315     13318     13317     13315     13318     13318     13321     13322
     13318     13321     13323     13318     13321     13324     13319     13318     13320
     13319     13318     13321     13320     13318     13321     13321     13324     13325
     13321     13324     13326     13321     13324     13327     13322     13321     13323
     13322     13321     13324     13323     13321     13324     13324     13327     13328
     13324     13327     13329     13324     13327     13330     13325     13324     13326
     13325     13324     13327     13326     13324     13327     13327     13330     13331
     13327     13330     13332     13327     13330     13333     13328     13327     13329
     13328     13327     13330     13329     13327     13330     13331     13330     13332
     13331     13330     13333     13332     13330     13333     13334     13338     13339
     13334     13338     13340     13334     13338     13341     13335     13334     13336
     13335     13334     13337     13335     13334     13338     13336     13334     13337
     13336     13334     13338     13337     13334     13338     13338     13341     13342
     13338     13341     13343     13338     13341     13348     13339     13338     13340
     13339     13338     13341     13340     13338     13341     13341     13348     13344
     13342     13341     13343     13342     13341     13348     13343     13341     13348
     13344     13347     13349     13345     13344     13346     13345     13344     13347
     13345     13344     13348     13346     13344     13347     13346     13344     13348
     13347     13344     13348     13347     13349     13350     13347     13349     13351
     13347     13349     13352     13349     13352     13353     13349     13352     13354
     13349     13352     13360     13350     13349     13351     13350     13349     13352
     13351     13349     13352     13352     13354     13355     13352     13360     13361
     13352     13360     13362     13352     13360     13363     13353     13352     13354
     13353     13352     13360     13354     13352     13360     13354     13355     13356
     13354     13355     13357     13355     13357     13358     13355     13357     13359
     13355     13357     13369     13356     13355     13357     13357     13369     13370
     13357     13369     13371     13357     13369     13372     13358     13357     13359
     13358     13357     13369     13359     13357     13369     13360     13363     13364
     13361     13360     13362     13361     13360     13363     13362     13360     13363
     13363     13364     13365     13363     13364     13366     13364     13366     13367
     13364     13366     13368     13364     13366     13416     13365     13364     13366
     13366     13416     13417     13366     13416     13418     13366     13416     13419
     13367     13366     13368     13367     13366     13416     13368     13366     13416
     13369     13372     13373     13369     13372     13374     13369     13372     13375
     13370     13369     13371     13370     13369     13372     13371     13369     13372
     13372     13375     13376     13372     13375     13377     13372     13375     13378
     13373     13372     13374     13373     13372     13375     13374     13372     13375
     13375     13378     13379     13375     13378     13380     13375     13378     13381
     13376     13375     13377     13376     13375     13378     13377     13375     13378
     13378     13381     13382     13378     13381     13383     13378     13381     13384
     13379     13378     13380     13379     13378     13381     13380     13378     13381
     13381     13384     13385     13381     13384     13386     13381     13384     13387
     13382     13381     13383     13382     13381     13384     13383     13381     13384
     13384     13387     13388     13384     13387     13389     13385     13384     13386
     13385     13384     13387     13386     13384     13387     13387     13389     13390
     13387     13389     13391     13388     13387     13389     13389     13391     13392
     13389     13391     13393     13389     13391     13394     13390     13389     13391
     13391     13394     13395     13391     13394     13396     13391     13394     13397
     13392     13391     13393     13392     13391     13394     13393     13391     13394
     13394     13397     13398     13394     13397     13399     13394     13397     13400
     13395     13394     13396     13395     13394     13397     13396     13394     13397
     13397     13400     13401     13397     13400     13402     13397     13400     13403
     13398     13397     13399     13398     13397     13400     13399     13397     13400
     13400     13403     13404     13400     13403     13405     13400     13403     13406
     13401     13400     13402     13401     13400     13403     13402     13400     13403
     13403     13406     13407     13403     13406     13408     13403     13406     13409
     13404     13403     13405     13404     13403     13406     13405     13403     13406
     13406     13409     13410     13406     13409     13411     13406     13409     13412
     13407     13406     13408     13407     13406     13409     13408     13406     13409
     13409     13412     13413     13409     13412     13414     13409     13412     13415
     13410     13409     13411     13410     13409     13412     13411     13409     13412
     13413     13412     13414     13413     13412     13415     13414     13412     13415
     13416     13419     13420     13416     13419     13421     13416     13419     13422
     13417     13416     13418     13417     13416     13419     13418     13416     13419
     13419     13422     13423     13419     13422     13424     13419     13422     13425
     13420     13419     13421     13420     13419     13422     13421     13419     13422
     13422     13425     13426     13422     13425     13427     13422     13425     13428
     13423     13422     13424     13423     13422     13425     13424     13422     13425
     13425     13428     13429     13425     13428     13430     13425     13428     13431
     13426     13425     13427     13426     13425     13428     13427     13425     13428
     13428     13431     13432     13428     13431     13433     13428     13431     13434
     13429     13428     13430     13429     13428     13431     13430     13428     13431
     13431     13434     13435     13431     13434     13436     13431     13434     13437
     13432     13431     13433     13432     13431     13434     13433     13431     13434
     13434     13437     13438     13434     13437     13439     13434     13437     13440
     13435     13434     13436     13435     13434     13437     13436     13434     13437
     13437     13440     13441     13437     13440     13442     13437     13440     13443
     13438     13437     13439     13438     13437     13440     13439     13437     13440
     13440     13443     13444     13440     13443     13445     13440     13443     13446
     13441     13440     13442     13441     13440     13443     13442     13440     13443
     13443     13446     13447     13443     13446     13448     13443     13446     13449
     13444     13443     13445     13444     13443     13446     13445     13443     13446
     13446     13449     13450     13446     13449     13451     13446     13449     13452
     13447     13446     13448     13447     13446     13449     13448     13446     13449
     13449     13452     13453     13449     13452     13454     13449     13452     13455
     13450     13449     13451     13450     13449     13452     13451     13449     13452
     13452     13455     13456     13452     13455     13457     13452     13455     13458
     13453     13452     13454     13453     13452     13455     13454     13452     13455
     13456     13455     13457     13456     13455     13458     13457     13455     13458
     13459     13463     13464     13459     13463     13465     13459     13463     13466
     13460     13459     13461     13460     13459     13462     13460     13459     13463
     13461     13459     13462     13461     13459     13463     13462     13459     13463
     13463     13466     13467     13463     13466     13468     13463     13466     13473
     13464     13463     13465     13464     13463     13466     13465     13463     13466
     13466     13473     13469     13467     13466     13468     13467     13466     13473
     13468     13466     13473     13469     13472     13474     13470     13469     13471
     13470     13469     13472     13470     13469     13473     13471     13469     13472
     13471     13469     13473     13472     13469     13473     13472     13474     13475
     13472     13474     13476     13472     13474     13477     13474     13477     13478
     13474     13477     13479     13474     13477     13485     13475     13474     13476
     13475     13474     13477     13476     13474     13477     13477     13479     13480
     13477     13485     13486     13477     13485     13487     13477     13485     13488
     13478     13477     13479     13478     13477     13485     13479     13477     13485
     13479     13480     13481     13479     13480     13482     13480     13482     13483
     13480     13482     13484     13480     13482     13494     13481     13480     13482
     13482     13494     13495     13482     13494     13496     13482     13494     13497
     13483     13482     13484     13483     13482     13494     13484     13482     13494
     13485     13488     13489     13486     13485     13487     13486     13485     13488
     13487     13485     13488     13488     13489     13490     13488     13489     13491
     13489     13491     13492     13489     13491     13493     13489     13491     13541
     13490     13489     13491     13491     13541     13542     13491     13541     13543
     13491     13541     13544     13492     13491     13493     13492     13491     13541
     13493     13491     13541     13494     13497     13498     13494     13497     13499
     13494     13497     13500     13495     13494     13496     13495     13494     13497
     13496     13494     13497     13497     13500     13501     13497     13500     13502
     13497     13500     13503     13498     13497     13499     13498     13497     13500
     13499     13497     13500     13500     13503     13504     13500     13503     13505
     13500     13503     13506     13501     13500     13502     13501     13500     13503
     13502     13500     13503     13503     13506     13507     13503     13506     13508
     13503     13506     13509     13504     13503     13505     13504     13503     13506
     13505     13503     13506     13506     13509     13510     13506     13509     13511
     13506     13509     13512     13507     13506     13508     13507     13506     13509
     13508     13506     13509     13509     13512     13513     13509     13512     13514
     13510     13509     13511     13510     13509     13512     13511     13509     13512
     13512     13514     13515     13512     13514     13516     13513     13512     13514
     13514     13516     13517     13514     13516     13518     13514     13516     13519
     13515     13514     13516     13516     13519     13520     13516     13519     13521
     13516     13519     13522     13517     13516     13518     13517     13516     13519
     13518     13516     13519     13519     13522     13523     13519     13522     13524
     13519     13522     13525     13520     13519     13521     13520     13519     13522
     13521     13519     13522     13522     13525     13526     13522     13525     13527
     13522     13525     13528     13523     13522     13524     13523     13522     13525
     13524     13522     13525     13525     13528     13529     13525     13528     13530
     13525     13528     13531     13526     13525     13527     13526     13525     13528
     13527     13525     13528     13528     13531     13532     13528     13531     13533
     13528     13531     13534     13529     13528     13530     13529     13528     13531
     13530     13528     13531     13531     13534     13535     13531     13534     13536
     13531     13534     13537     13532     13531     13533     13532     13531     13534
     13533     13531     13534     13534     13537     13538     13534     13537     13539
     13534     13537     13540     13535     13534     13536     13535     13534     13537
     13536     13534     13537     13538     13537     13539     13538     13537     13540
     13539     13537     13540     13541     13544     13545     13541     13544     13546
     13541     13544     13547     13542     13541     13543     13542     13541     13544
     13543     13541     13544     13544     13547     13548     13544     13547     13549
     13544     13547     13550     13545     13544     13546     13545     13544     13547
     13546     13544     13547     13547     13550     13551     13547     13550     13552
     13547     13550     13553     13548     13547     13549     13548     13547     13550
     13549     13547     13550     13550     13553     13554     13550     13553     13555
     13550     13553     13556     13551     13550     13552     13551     13550     13553
     13552     13550     13553     13553     13556     13557     13553     13556     13558
     13553     13556     13559     13554     13553     13555     13554     13553     13556
     13555     13553     13556     13556     13559     13560     13556     13559     13561
     13556     13559     13562     13557     13556     13558     13557     13556     13559
     13558     13556     13559     13559     13562     13563     13559     13562     13564
     13559     13562     13565     13560     13559     13561     13560     13559     13562
     13561     13559     13562     13562     13565     13566     13562     13565     13567
     13562     13565     13568     13563     13562     13564     13563     13562     13565
     13564     13562     13565     13565     13568     13569     13565     13568     13570
     13565     13568     13571     13566     13565     13567     13566     13565     13568
     13567     13565     13568     13568     13571     13572     13568     13571     13573
     13568     13571     13574     13569     13568     13570     13569     13568     13571
     13570     13568     13571     13571     13574     13575     13571     13574     13576
     13571     13574     13577     13572     13571     13573     13572     13571     13574
     13573     13571     13574     13574     13577     13578     13574     13577     13579
     13574     13577     13580     13575     13574     13576     13575     13574     13577
     13576     13574     13577     13577     13580     13581     13577     13580     13582
     13577     13580     13583     13578     13577     13579     13578     13577     13580
     13579     13577     13580     13581     13580     13582     13581     13580     13583
     13582     13580     13583     13584     13588     13589     13584     13588     13590
     13584     13588     13591     13585     13584     13586     13585     13584     13587
     13585     13584     13588     13586     13584     13587     13586     13584     13588
     13587     13584     13588     13588     13591     13592     13588     13591     13593
     13588     13591     13598     13589     13588     13590     13589     13588     13591
     13590     13588     13591     13591     13598     13594     13592     13591     13593
     13592     13591     13598     13593     13591     13598     13594     13597     13599
     13595     13594     13596     13595     13594     13597     13595     13594     13598
     13596     13594     13597     13596     13594     13598     13597     13594     13598
     13597     13599     13600     13597     13599     13601     13597     13599     13602
     13599     13602     13603     13599     13602     13604     13599     13602     13610
     13600     13599     13601     13600     13599     13602     13601     13599     13602
     13602     13604     13605     13602     13610     13611     13602     13610     13612
     13602     13610     13613     13603     13602     13604     13603     13602     13610
     13604     13602     13610     13604     13605     13606     13604     13605     13607
     13605     13607     13608     13605     13607     13609     13605     13607     13619
     13606     13605     13607     13607     13619     13620     13607     13619     13621
     13607     13619     13622     13608     13607     13609     13608     13607     13619
     13609     13607     13619     13610     13613     13614     13611     13610     13612
     13611     13610     13613     13612     13610     13613     13613     13614     13615
     13613     13614     13616     13614     13616     13617     13614     13616     13618
     13614     13616     13666     13615     13614     13616     13616     13666     13667
     13616     13666     13668     13616     13666     13669     13617     13616     13618
     13617     13616     13666     13618     13616     13666     13619     13622     13623
     13619     13622     13624     13619     13622     13625     13620     13619     13621
     13620     13619     13622     13621     13619     13622     13622     13625     13626
     13622     13625     13627     13622     13625     13628     13623     13622     13624
     13623     13622     13625     13624     13622     13625     13625     13628     13629
     13625     13628     13630     13625     13628     13631     13626     13625     13627
     13626     13625     13628     13627     13625     13628     13628     13631     13632
     13628     13631     13633     13628     13631     13634     13629     13628     13630
     13629     13628     13631     13630     13628     13631     13631     13634     13635
     13631     13634     13636     13631     13634     13637     13632     13631     13633
     13632     13631     13634     13633     13631     13634     13634     13637     13638
     13634     13637     13639     13635     13634     13636     13635     13634     13637
     13636     13634     13637     13637     13639     13640     13637     13639     13641
     13638     13637     13639     13639     13641     13642     13639     13641     13643
     13639     13641     13644     13640     13639     13641     13641     13644     13645
     13641     13644     13646     13641     13644     13647     13642     13641     13643
     13642     13641     13644     13643     13641     13644     13644     13647     13648
     13644     13647     13649     13644     13647     13650     13645     13644     13646
     13645     13644     13647     13646     13644     13647     13647     13650     13651
     13647     13650     13652     13647     13650     13653     13648     13647     13649
     13648     13647     13650     13649     13647     13650     13650     13653     13654
     13650     13653     13655     13650     13653     13656     13651     13650     13652
     13651     13650     13653     13652     13650     13653     13653     13656     13657
     13653     13656     13658     13653     13656     13659     13654     13653     13655
     13654     13653     13656     13655     13653     13656     13656     13659     13660
     13656     13659     13661     13656     13659     13662     13657     13656     13658
     13657     13656     13659     13658     13656     13659     13659     13662     13663
     13659     13662     13664     13659     13662     13665     13660     13659     13661
     13660     13659     13662     13661     13659     13662     13663     13662     13664
     13663     13662     13665     13664     13662     13665     13666     13669     13670
     13666     13669     13671     13666     13669     13672     13667     13666     13668
     13667     13666     13669     13668     13666     13669     13669     13672     13673
     13669     13672     13674     13669     13672     13675     13670     13669     13671
     13670     13669     13672     13671     13669     13672     13672     13675     13676
     13672     13675     13677     13672     13675     13678     13673     13672     13674
     13673     13672     13675     13674     13672     13675     13675     13678     13679
     13675     13678     13680     13675     13678     13681     13676     13675     13677
     13676     13675     13678     13677     13675     13678     13678     13681     13682
     13678     13681     13683     13678     13681     13684     13679     13678     13680
     13679     13678     13681     13680     13678     13681     13681     13684     13685
     13681     13684     13686     13681     13684     13687     13682     13681     13683
     13682     13681     13684     13683     13681     13684     13684     13687     13688
     13684     13687     13689     13684     13687     13690     13685     13684     13686
     13685     13684     13687     13686     13684     13687     13687     13690     13691
     13687     13690     13692     13687     13690     13693     13688     13687     13689
     13688     13687     13690     13689     13687     13690     13690     13693     13694
     13690     13693     13695     13690     13693     13696     13691     13690     13692
     13691     13690     13693     13692     13690     13693     13693     13696     13697
     13693     13696     13698     13693     13696     13699     13694     13693     13695
     13694     13693     13696     13695     13693     13696     13696     13699     13700
     13696     13699     13701     13696     13699     13702     13697     13696     13698
     13697     13696     13699     13698     13696     13699     13699     13702     13703
     13699     13702     13704     13699     13702     13705     13700     13699     13701
     13700     13699     13702     13701     13699     13702     13702     13705     13706
     13702     13705     13707     13702     13705     13708     13703     13702     13704
     13703     13702     13705     13704     13702     13705     13706     13705     13707
     13706     13705     13708     13707     13705     13708     13709     13713     13714
     13709     13713     13715     13709     13713     13716     13710     13709     13711
     13710     13709     13712     13710     13709     13713     13711     13709     13712
     13711     13709     13713     13712     13709     13713     13713     13716     13717
     13713     13716     13718     13713     13716     13723     13714     13713     13715
     13714     13713     13716     13715     13713     13716     13716     13723     13719
     13717     13716     13718     13717     13716     13723     13718     13716     13723
     13719     13722     13724     13720     13719     13721     13720     13719     13722
     13720     13719     13723     13721     13719     13722     13721     13719     13723
     13722     13719     13723     13722     13724     13725     13722     13724     13726
     13722     13724     13727     13724     13727     13728     13724     13727     13729
     13724     13727     13735     13725     13724     13726     13725     13724     13727
     13726     13724     13727     13727     13729     13730     13727     13735     13736
     13727     13735     13737     13727     13735     13738     13728     13727     13729
     13728     13727     13735     13729     13727     13735     13729     13730     13731
     13729     13730     13732     13730     13732     13733     13730     13732     13734
     13730     13732     13744     13731     13730     13732     13732     13744     13745
     13732     13744     13746     13732     13744     13747     13733     13732     13734
     13733     13732     13744     13734     13732     13744     13735     13738     13739
     13736     13735     13737     13736     13735     13738     13737     13735     13738
     13738     13739     13740     13738     13739     13741     13739     13741     13742
     13739     13741     13743     13739     13741     13791     13740     13739     13741
     13741     13791     13792     13741     13791     13793     13741     13791     13794
     13742     13741     13743     13742     13741     13791     13743     13741     13791
     13744     13747     13748     13744     13747     13749     13744     13747     13750
     13745     13744     13746     13745     13744     13747     13746     13744     13747
     13747     13750     13751     13747     13750     13752     13747     13750     13753
     13748     13747     13749     13748     13747     13750     13749     13747     13750
     13750     13753     13754     13750     13753     13755     13750     13753     13756
     13751     13750     13752     13751     13750     13753     13752     13750     13753
     13753     13756     13757     13753     13756     13758     13753     13756     13759
     13754     13753     13755     13754     13753     13756     13755     13753     13756
     13756     13759     13760     13756     13759     13761     13756     13759     13762
     13757     13756     13758     13757     13756     13759     13758     13756     13759
     13759     13762     13763     13759     13762     13764     13760     13759     13761
     13760     13759     13762     13761     13759     13762     13762     13764     13765
     13762     13764     13766     13763     13762     13764     13764     13766     13767
     13764     13766     13768     13764     13766     13769     13765     13764     13766
     13766     13769     13770     13766     13769     13771     13766     13769     13772
     13767     13766     13768     13767     13766     13769     13768     13766     13769
     13769     13772     13773     13769     13772     13774     13769     13772     13775
     13770     13769     13771     13770     13769     13772     13771     13769     13772
     13772     13775     13776     13772     13775     13777     13772     13775     13778
     13773     13772     13774     13773     13772     13775     13774     13772     13775
     13775     13778     13779     13775     13778     13780     13775     13778     13781
     13776     13775     13777     13776     13775     13778     13777     13775     13778
     13778     13781     13782     13778     13781     13783     13778     13781     13784
     13779     13778     13780     13779     13778     13781     13780     13778     13781
     13781     13784     13785     13781     13784     13786     13781     13784     13787
     13782     13781     13783     13782     13781     13784     13783     13781     13784
     13784     13787     13788     13784     13787     13789     13784     13787     13790
     13785     13784     13786     13785     13784     13787     13786     13784     13787
     13788     13787     13789     13788     13787     13790     13789     13787     13790
     13791     13794     13795     13791     13794     13796     13791     13794     13797
     13792     13791     13793     13792     13791     13794     13793     13791     13794
     13794     13797     13798     13794     13797     13799     13794     13797     13800
     13795     13794     13796     13795     13794     13797     13796     13794     13797
     13797     13800     13801     13797     13800     13802     13797     13800     13803
     13798     13797     13799     13798     13797     13800     13799     13797     13800
     13800     13803     13804     13800     13803     13805     13800     13803     13806
     13801     13800     13802     13801     13800     13803     13802     13800     13803
     13803     13806     13807     13803     13806     13808     13803     13806     13809
     13804     13803     13805     13804     13803     13806     13805     13803     13806
     13806     13809     13810     13806     13809     13811     13806     13809     13812
     13807     13806     13808     13807     13806     13809     13808     13806     13809
     13809     13812     13813     13809     13812     13814     13809     13812     13815
     13810     13809     13811     13810     13809     13812     13811     13809     13812
     13812     13815     13816     13812     13815     13817     13812     13815     13818
     13813     13812     13814     13813     13812     13815     13814     13812     13815
     13815     13818     13819     13815     13818     13820     13815     13818     13821
     13816     13815     13817     13816     13815     13818     13817     13815     13818
     13818     13821     13822     13818     13821     13823     13818     13821     13824
     13819     13818     13820     13819     13818     13821     13820     13818     13821
     13821     13824     13825     13821     13824     13826     13821     13824     13827
     13822     13821     13823     13822     13821     13824     13823     13821     13824
     13824     13827     13828     13824     13827     13829     13824     13827     13830
     13825     13824     13826     13825     13824     13827     13826     13824     13827
     13827     13830     13831     13827     13830     13832     13827     13830     13833
     13828     13827     13829     13828     13827     13830     13829     13827     13830
     13831     13830     13832     13831     13830     13833     13832     13830     13833
     13834     13838     13839     13834     13838     13840     13834     13838     13841
     13835     13834     13836     13835     13834     13837     13835     13834     13838
     13836     13834     13837     13836     13834     13838     13837     13834     13838
     13838     13841     13842     13838     13841     13843     13838     13841     13848
     13839     13838     13840     13839     13838     13841     13840     13838     13841
     13841     13848     13844     13842     13841     13843     13842     13841     13848
     13843     13841     13848     13844     13847     13849     13845     13844     13846
     13845     13844     13847     13845     13844     13848     13846     13844     13847
     13846     13844     13848     13847     13844     13848     13847     13849     13850
     13847     13849     13851     13847     13849     13852     13849     13852     13853
     13849     13852     13854     13849     13852     13860     13850     13849     13851
     13850     13849     13852     13851     13849     13852     13852     13854     13855
     13852     13860     13861     13852     13860     13862     13852     13860     13863
     13853     13852     13854     13853     13852     13860     13854     13852     13860
     13854     13855     13856     13854     13855     13857     13855     13857     13858
     13855     13857     13859     13855     13857     13869     13856     13855     13857
     13857     13869     13870     13857     13869     13871     13857     13869     13872
     13858     13857     13859     13858     13857     13869     13859     13857     13869
     13860     13863     13864     13861     13860     13862     13861     13860     13863
     13862     13860     13863     13863     13864     13865     13863     13864     13866
     13864     13866     13867     13864     13866     13868     13864     13866     13916
     13865     13864     13866     13866     13916     13917     13866     13916     13918
     13866     13916     13919     13867     13866     13868     13867     13866     13916
     13868     13866     13916     13869     13872     13873     13869     13872     13874
     13869     13872     13875     13870     13869     13871     13870     13869     13872
     13871     13869     13872     13872     13875     13876     13872     13875     13877
     13872     13875     13878     13873     13872     13874     13873     13872     13875
     13874     13872     13875     13875     13878     13879     13875     13878     13880
     13875     13878     13881     13876     13875     13877     13876     13875     13878
     13877     13875     13878     13878     13881     13882     13878     13881     13883
     13878     13881     13884     13879     13878     13880     13879     13878     13881
     13880     13878     13881     13881     13884     13885     13881     13884     13886
     13881     13884     13887     13882     13881     13883     13882     13881     13884
     13883     13881     13884     13884     13887     13888     13884     13887     13889
     13885     13884     13886     13885     13884     13887     13886     13884     13887
     13887     13889     13890     13887     13889     13891     13888     13887     13889
     13889     13891     13892     13889     13891     13893     13889     13891     13894
     13890     13889     13891     13891     13894     13895     13891     13894     13896
     13891     13894     13897     13892     13891     13893     13892     13891     13894
     13893     13891     13894     13894     13897     13898     13894     13897     13899
     13894     13897     13900     13895     13894     13896     13895     13894     13897
     13896     13894     13897     13897     13900     13901     13897     13900     13902
     13897     13900     13903     13898     13897     13899     13898     13897     13900
     13899     13897     13900     13900     13903     13904     13900     13903     13905
     13900     13903     13906     13901     13900     13902     13901     13900     13903
     13902     13900     13903     13903     13906     13907     13903     13906     13908
     13903     13906     13909     13904     13903     13905     13904     13903     13906
     13905     13903     13906     13906     13909     13910     13906     13909     13911
     13906     13909     13912     13907     13906     13908     13907     13906     13909
     13908     13906     13909     13909     13912     13913     13909     13912     13914
     13909     13912     13915     13910     13909     13911     13910     13909     13912
     13911     13909     13912     13913     13912     13914     13913     13912     13915
     13914     13912     13915     13916     13919     13920     13916     13919     13921
     13916     13919     13922     13917     13916     13918     13917     13916     13919
     13918     13916     13919     13919     13922     13923     13919     13922     13924
     13919     13922     13925     13920     13919     13921     13920     13919     13922
     13921     13919     13922     13922     13925     13926     13922     13925     13927
     13922     13925     13928     13923     13922     13924     13923     13922     13925
     13924     13922     13925     13925     13928     13929     13925     13928     13930
     13925     13928     13931     13926     13925     13927     13926     13925     13928
     13927     13925     13928     13928     13931     13932     13928     13931     13933
     13928     13931     13934     13929     13928     13930     13929     13928     13931
     13930     13928     13931     13931     13934     13935     13931     13934     13936
     13931     13934     13937     13932     13931     13933     13932     13931     13934
     13933     13931     13934     13934     13937     13938     13934     13937     13939
     13934     13937     13940     13935     13934     13936     13935     13934     13937
     13936     13934     13937     13937     13940     13941     13937     13940     13942
     13937     13940     13943     13938     13937     13939     13938     13937     13940
     13939     13937     13940     13940     13943     13944     13940     13943     13945
     13940     13943     13946     13941     13940     13942     13941     13940     13943
     13942     13940     13943     13943     13946     13947     13943     13946     13948
     13943     13946     13949     13944     13943     13945     13944     13943     13946
     13945     13943     13946     13946     13949     13950     13946     13949     13951
     13946     13949     13952     13947     13946     13948     13947     13946     13949
     13948     13946     13949     13949     13952     13953     13949     13952     13954
     13949     13952     13955     13950     13949     13951     13950     13949     13952
     13951     13949     13952     13952     13955     13956     13952     13955     13957
     13952     13955     13958     13953     13952     13954     13953     13952     13955
     13954     13952     13955     13956     13955     13957     13956     13955     13958
     13957     13955     13958     13959     13963     13964     13959     13963     13965
     13959     13963     13966     13960     13959     13961     13960     13959     13962
     13960     13959     13963     13961     13959     13962     13961     13959     13963
     13962     13959     13963     13963     13966     13967     13963     13966     13968
     13963     13966     13973     13964     13963     13965     13964     13963     13966
     13965     13963     13966     13966     13973     13969     13967     13966     13968
     13967     13966     13973     13968     13966     13973     13969     13972     13974
     13970     13969     13971     13970     13969     13972     13970     13969     13973
     13971     13969     13972     13971     13969     13973     13972     13969     13973
     13972     13974     13975     13972     13974     13976     13972     13974     13977
     13974     13977     13978     13974     13977     13979     13974     13977     13985
     13975     13974     13976     13975     13974     13977     13976     13974     13977
     13977     13979     13980     13977     13985     13986     13977     13985     13987
     13977     13985     13988     13978     13977     13979     13978     13977     13985
     13979     13977     13985     13979     13980     13981     13979     13980     13982
     13980     13982     13983     13980     13982     13984     13980     13982     13994
     13981     13980     13982     13982     13994     13995     13982     13994     13996
     13982     13994     13997     13983     13982     13984     13983     13982     13994
     13984     13982     13994     13985     13988     13989     13986     13985     13987
     13986     13985     13988     13987     13985     13988     13988     13989     13990
     13988     13989     13991     13989     13991     13992     13989     13991     13993
     13989     13991     14041     13990     13989     13991     13991     14041     14042
     13991     14041     14043     13991     14041     14044     13992     13991     13993
     13992     13991     14041     13993     13991     14041     13994     13997     13998
     13994     13997     13999     13994     13997     14000     13995     13994     13996
     13995     13994     13997     13996     13994     13997     13997     14000     14001
     13997     14000     14002     13997     14000     14003     13998     13997     13999
     13998     13997     14000     13999     13997     14000     14000     14003     14004
     14000     14003     14005     14000     14003     14006     14001     14000     14002
     14001     14000     14003     14002     14000     14003     14003     14006     14007
     14003     14006     14008     14003     14006     14009     14004     14003     14005
     14004     14003     14006     14005     14003     14006     14006     14009     14010
     14006     14009     14011     14006     14009     14012     14007     14006     14008
     14007     14006     14009     14008     14006     14009     14009     14012     14013
     14009     14012     14014     14010     14009     14011     14010     14009     14012
     14011     14009     14012     14012     14014     14015     14012     14014     14016
     14013     14012     14014     14014     14016     14017     14014     14016     14018
     14014     14016     14019     14015     14014     14016     14016     14019     14020
     14016     14019     14021     14016     14019     14022     14017     14016     14018
     14017     14016     14019     14018     14016     14019     14019     14022     14023
     14019     14022     14024     14019     14022     14025     14020     14019     14021
     14020     14019     14022     14021     14019     14022     14022     14025     14026
     14022     14025     14027     14022     14025     14028     14023     14022     14024
     14023     14022     14025     14024     14022     14025     14025     14028     14029
     14025     14028     14030     14025     14028     14031     14026     14025     14027
     14026     14025     14028     14027     14025     14028     14028     14031     14032
     14028     14031     14033     14028     14031     14034     14029     14028     14030
     14029     14028     14031     14030     14028     14031     14031     14034     14035
     14031     14034     14036     14031     14034     14037     14032     14031     14033
     14032     14031     14034     14033     14031     14034     14034     14037     14038
     14034     14037     14039     14034     14037     14040     14035     14034     14036
     14035     14034     14037     14036     14034     14037     14038     14037     14039
     14038     14037     14040     14039     14037     14040     14041     14044     14045
     14041     14044     14046     14041     14044     14047     14042     14041     14043
     14042     14041     14044     14043     14041     14044     14044     14047     14048
     14044     14047     14049     14044     14047     14050     14045     14044     14046
     14045     14044     14047     14046     14044     14047     14047     14050     14051
     14047     14050     14052     14047     14050     14053     14048     14047     14049
     14048     14047     14050     14049     14047     14050     14050     14053     14054
     14050     14053     14055     14050     14053     14056     14051     14050     14052
     14051     14050     14053     14052     14050     14053     14053     14056     14057
     14053     14056     14058     14053     14056     14059     14054     14053     14055
     14054     14053     14056     14055     14053     14056     14056     14059     14060
     14056     14059     14061     14056     14059     14062     14057     14056     14058
     14057     14056     14059     14058     14056     14059     14059     14062     14063
     14059     14062     14064     14059     14062     14065     14060     14059     14061
     14060     14059     14062     14061     14059     14062     14062     14065     14066
     14062     14065     14067     14062     14065     14068     14063     14062     14064
     14063     14062     14065     14064     14062     14065     14065     14068     14069
     14065     14068     14070     14065     14068     14071     14066     14065     14067
     14066     14065     14068     14067     14065     14068     14068     14071     14072
     14068     14071     14073     14068     14071     14074     14069     14068     14070
     14069     14068     14071     14070     14068     14071     14071     14074     14075
     14071     14074     14076     14071     14074     14077     14072     14071     14073
     14072     14071     14074     14073     14071     14074     14074     14077     14078
     14074     14077     14079     14074     14077     14080     14075     14074     14076
     14075     14074     14077     14076     14074     14077     14077     14080     14081
     14077     14080     14082     14077     14080     14083     14078     14077     14079
     14078     14077     14080     14079     14077     14080     14081     14080     14082
     14081     14080     14083     14082     14080     14083     14084     14088     14089
     14084     14088     14090     14084     14088     14091     14085     14084     14086
     14085     14084     14087     14085     14084     14088     14086     14084     14087
     14086     14084     14088     14087     14084     14088     14088     14091     14092
     14088     14091     14093     14088     14091     14098     14089     14088     14090
     14089     14088     14091     14090     14088     14091     14091     14098     14094
     14092     14091     14093     14092     14091     14098     14093     14091     14098
     14094     14097     14099     14095     14094     14096     14095     14094     14097
     14095     14094     14098     14096     14094     14097     14096     14094     14098
     14097     14094     14098     14097     14099     14100     14097     14099     14101
     14097     14099     14102     14099     14102     14103     14099     14102     14104
     14099     14102     14110     14100     14099     14101     14100     14099     14102
     14101     14099     14102     14102     14104     14105     14102     14110     14111
     14102     14110     14112     14102     14110     14113     14103     14102     14104
     14103     14102     14110     14104     14102     14110     14104     14105     14106
     14104     14105     14107     14105     14107     14108     14105     14107     14109
     14105     14107     14119     14106     14105     14107     14107     14119     14120
     14107     14119     14121     14107     14119     14122     14108     14107     14109
     14108     14107     14119     14109     14107     14119     14110     14113     14114
     14111     14110     14112     14111     14110     14113     14112     14110     14113
     14113     14114     14115     14113     14114     14116     14114     14116     14117
     14114     14116     14118     14114     14116     14166     14115     14114     14116
     14116     14166     14167     14116     14166     14168     14116     14166     14169
     14117     14116     14118     14117     14116     14166     14118     14116     14166
     14119     14122     14123     14119     14122     14124     14119     14122     14125
     14120     14119     14121     14120     14119     14122     14121     14119     14122
     14122     14125     14126     14122     14125     14127     14122     14125     14128
     14123     14122     14124     14123     14122     14125     14124     14122     14125
     14125     14128     14129     14125     14128     14130     14125     14128     14131
     14126     14125     14127     14126     14125     14128     14127     14125     14128
     14128     14131     14132     14128     14131     14133     14128     14131     14134
     14129     14128     14130     14129     14128     14131     14130     14128     14131
     14131     14134     14135     14131     14134     14136     14131     14134     14137
     14132     14131     14133     14132     14131     14134     14133     14131     14134
     14134     14137     14138     14134     14137     14139     14135     14134     14136
     14135     14134     14137     14136     14134     14137     14137     14139     14140
     14137     14139     14141     14138     14137     14139     14139     14141     14142
     14139     14141     14143     14139     14141     14144     14140     14139     14141
     14141     14144     14145     14141     14144     14146     14141     14144     14147
     14142     14141     14143     14142     14141     14144     14143     14141     14144
     14144     14147     14148     14144     14147     14149     14144     14147     14150
     14145     14144     14146     14145     14144     14147     14146     14144     14147
     14147     14150     14151     14147     14150     14152     14147     14150     14153
     14148     14147     14149     14148     14147     14150     14149     14147     14150
     14150     14153     14154     14150     14153     14155     14150     14153     14156
     14151     14150     14152     14151     14150     14153     14152     14150     14153
     14153     14156     14157     14153     14156     14158     14153     14156     14159
     14154     14153     14155     14154     14153     14156     14155     14153     14156
     14156     14159     14160     14156     14159     14161     14156     14159     14162
     14157     14156     14158     14157     14156     14159     14158     14156     14159
     14159     14162     14163     14159     14162     14164     14159     14162     14165
     14160     14159     14161     14160     14159     14162     14161     14159     14162
     14163     14162     14164     14163     14162     14165     14164     14162     14165
     14166     14169     14170     14166     14169     14171     14166     14169     14172
     14167     14166     14168     14167     14166     14169     14168     14166     14169
     14169     14172     14173     14169     14172     14174     14169     14172     14175
     14170     14169     14171     14170     14169     14172     14171     14169     14172
     14172     14175     14176     14172     14175     14177     14172     14175     14178
     14173     14172     14174     14173     14172     14175     14174     14172     14175
     14175     14178     14179     14175     14178     14180     14175     14178     14181
     14176     14175     14177     14176     14175     14178     14177     14175     14178
     14178     14181     14182     14178     14181     14183     14178     14181     14184
     14179     14178     14180     14179     14178     14181     14180     14178     14181
     14181     14184     14185     14181     14184     14186     14181     14184     14187
     14182     14181     14183     14182     14181     14184     14183     14181     14184
     14184     14187     14188     14184     14187     14189     14184     14187     14190
     14185     14184     14186     14185     14184     14187     14186     14184     14187
     14187     14190     14191     14187     14190     14192     14187     14190     14193
     14188     14187     14189     14188     14187     14190     14189     14187     14190
     14190     14193     14194     14190     14193     14195     14190     14193     14196
     14191     14190     14192     14191     14190     14193     14192     14190     14193
     14193     14196     14197     14193     14196     14198     14193     14196     14199
     14194     14193     14195     14194     14193     14196     14195     14193     14196
     14196     14199     14200     14196     14199     14201     14196     14199     14202
     14197     14196     14198     14197     14196     14199     14198     14196     14199
     14199     14202     14203     14199     14202     14204     14199     14202     14205
     14200     14199     14201     14200     14199     14202     14201     14199     14202
     14202     14205     14206     14202     14205     14207     14202     14205     14208
     14203     14202     14204     14203     14202     14205     14204     14202     14205
     14206     14205     14207     14206     14205     14208     14207     14205     14208
     14209     14213     14214     14209     14213     14215     14209     14213     14216
     14210     14209     14211     14210     14209     14212     14210     14209     14213
     14211     14209     14212     14211     14209     14213     14212     14209     14213
     14213     14216     14217     14213     14216     14218     14213     14216     14223
     14214     14213     14215     14214     14213     14216     14215     14213     14216
     14216     14223     14219     14217     14216     14218     14217     14216     14223
     14218     14216     14223     14219     14222     14224     14220     14219     14221
     14220     14219     14222     14220     14219     14223     14221     14219     14222
     14221     14219     14223     14222     14219     14223     14222     14224     14225
     14222     14224     14226     14222     14224     14227     14224     14227     14228
     14224     14227     14229     14224     14227     14235     14225     14224     14226
     14225     14224     14227     14226     14224     14227     14227     14229     14230
     14227     14235     14236     14227     14235     14237     14227     14235     14238
     14228     14227     14229     14228     14227     14235     14229     14227     14235
     14229     14230     14231     14229     14230     14232     14230     14232     14233
     14230     14232     14234     14230     14232     14244     14231     14230     14232
     14232     14244     14245     14232     14244     14246     14232     14244     14247
     14233     14232     14234     14233     14232     14244     14234     14232     14244
     14235     14238     14239     14236     14235     14237     14236     14235     14238
     14237     14235     14238     14238     14239     14240     14238     14239     14241
     14239     14241     14242     14239     14241     14243     14239     14241     14291
     14240     14239     14241     14241     14291     14292     14241     14291     14293
     14241     14291     14294     14242     14241     14243     14242     14241     14291
     14243     14241     14291     14244     14247     14248     14244     14247     14249
     14244     14247     14250     14245     14244     14246     14245     14244     14247
     14246     14244     14247     14247     14250     14251     14247     14250     14252
     14247     14250     14253     14248     14247     14249     14248     14247     14250
     14249     14247     14250     14250     14253     14254     14250     14253     14255
     14250     14253     14256     14251     14250     14252     14251     14250     14253
     14252     14250     14253     14253     14256     14257     14253     14256     14258
     14253     14256     14259     14254     14253     14255     14254     14253     14256
     14255     14253     14256     14256     14259     14260     14256     14259     14261
     14256     14259     14262     14257     14256     14258     14257     14256     14259
     14258     14256     14259     14259     14262     14263     14259     14262     14264
     14260     14259     14261     14260     14259     14262     14261     14259     14262
     14262     14264     14265     14262     14264     14266     14263     14262     14264
     14264     14266     14267     14264     14266     14268     14264     14266     14269
     14265     14264     14266     14266     14269     14270     14266     14269     14271
     14266     14269     14272     14267     14266     14268     14267     14266     14269
     14268     14266     14269     14269     14272     14273     14269     14272     14274
     14269     14272     14275     14270     14269     14271     14270     14269     14272
     14271     14269     14272     14272     14275     14276     14272     14275     14277
     14272     14275     14278     14273     14272     14274     14273     14272     14275
     14274     14272     14275     14275     14278     14279     14275     14278     14280
     14275     14278     14281     14276     14275     14277     14276     14275     14278
     14277     14275     14278     14278     14281     14282     14278     14281     14283
     14278     14281     14284     14279     14278     14280     14279     14278     14281
     14280     14278     14281     14281     14284     14285     14281     14284     14286
     14281     14284     14287     14282     14281     14283     14282     14281     14284
     14283     14281     14284     14284     14287     14288     14284     14287     14289
     14284     14287     14290     14285     14284     14286     14285     14284     14287
     14286     14284     14287     14288     14287     14289     14288     14287     14290
     14289     14287     14290     14291     14294     14295     14291     14294     14296
     14291     14294     14297     14292     14291     14293     14292     14291     14294
     14293     14291     14294     14294     14297     14298     14294     14297     14299
     14294     14297     14300     14295     14294     14296     14295     14294     14297
     14296     14294     14297     14297     14300     14301     14297     14300     14302
     14297     14300     14303     14298     14297     14299     14298     14297     14300
     14299     14297     14300     14300     14303     14304     14300     14303     14305
     14300     14303     14306     14301     14300     14302     14301     14300     14303
     14302     14300     14303     14303     14306     14307     14303     14306     14308
     14303     14306     14309     14304     14303     14305     14304     14303     14306
     14305     14303     14306     14306     14309     14310     14306     14309     14311
     14306     14309     14312     14307     14306     14308     14307     14306     14309
     14308     14306     14309     14309     14312     14313     14309     14312     14314
     14309     14312     14315     14310     14309     14311     14310     14309     14312
     14311     14309     14312     14312     14315     14316     14312     14315     14317
     14312     14315     14318     14313     14312     14314     14313     14312     14315
     14314     14312     14315     14315     14318     14319     14315     14318     14320
     14315     14318     14321     14316     14315     14317     14316     14315     14318
     14317     14315     14318     14318     14321     14322     14318     14321     14323
     14318     14321     14324     14319     14318     14320     14319     14318     14321
     14320     14318     14321     14321     14324     14325     14321     14324     14326
     14321     14324     14327     14322     14321     14323     14322     14321     14324
     14323     14321     14324     14324     14327     14328     14324     14327     14329
     14324     14327     14330     14325     14324     14326     14325     14324     14327
     14326     14324     14327     14327     14330     14331     14327     14330     14332
     14327     14330     14333     14328     14327     14329     14328     14327     14330
     14329     14327     14330     14331     14330     14332     14331     14330     14333
     14332     14330     14333     14334     14338     14339     14334     14338     14340
     14334     14338     14341     14335     14334     14336     14335     14334     14337
     14335     14334     14338     14336     14334     14337     14336     14334     14338
     14337     14334     14338     14338     14341     14342     14338     14341     14343
     14338     14341     14348     14339     14338     14340     14339     14338     14341
     14340     14338     14341     14341     14348     14344     14342     14341     14343
     14342     14341     14348     14343     14341     14348     14344     14347     14349
     14345     14344     14346     14345     14344     14347     14345     14344     14348
     14346     14344     14347     14346     14344     14348     14347     14344     14348
     14347     14349     14350     14347     14349     14351     14347     14349     14352
     14349     14352     14353     14349     14352     14354     14349     14352     14360
     14350     14349     14351     14350     14349     14352     14351     14349     14352
     14352     14354     14355     14352     14360     14361     14352     14360     14362
     14352     14360     14363     14353     14352     14354     14353     14352     14360
     14354     14352     14360     14354     14355     14356     14354     14355     14357
     14355     14357     14358     14355     14357     14359     14355     14357     14369
     14356     14355     14357     14357     14369     14370     14357     14369     14371
     14357     14369     14372     14358     14357     14359     14358     14357     14369
     14359     14357     14369     14360     14363     14364     14361     14360     14362
     14361     14360     14363     14362     14360     14363     14363     14364     14365
     14363     14364     14366     14364     14366     14367     14364     14366     14368
     14364     14366     14416     14365     14364     14366     14366     14416     14417
     14366     14416     14418     14366     14416     14419     14367     14366     14368
     14367     14366     14416     14368     14366     14416     14369     14372     14373
     14369     14372     14374     14369     14372     14375     14370     14369     14371
     14370     14369     14372     14371     14369     14372     14372     14375     14376
     14372     14375     14377     14372     14375     14378     14373     14372     14374
     14373     14372     14375     14374     14372     14375     14375     14378     14379
     14375     14378     14380     14375     14378     14381     14376     14375     14377
     14376     14375     14378     14377     14375     14378     14378     14381     14382
     14378     14381     14383     14378     14381     14384     14379     14378     14380
     14379     14378     14381     14380     14378     14381     14381     14384     14385
     14381     14384     14386     14381     14384     14387     14382     14381     14383
     14382     14381     14384     14383     14381     14384     14384     14387     14388
     14384     14387     14389     14385     14384     14386     14385     14384     14387
     14386     14384     14387     14387     14389     14390     14387     14389     14391
     14388     14387     14389     14389     14391     14392     14389     14391     14393
     14389     14391     14394     14390     14389     14391     14391     14394     14395
     14391     14394     14396     14391     14394     14397     14392     14391     14393
     14392     14391     14394     14393     14391     14394     14394     14397     14398
     14394     14397     14399     14394     14397     14400     14395     14394     14396
     14395     14394     14397     14396     14394     14397     14397     14400     14401
     14397     14400     14402     14397     14400     14403     14398     14397     14399
     14398     14397     14400     14399     14397     14400     14400     14403     14404
     14400     14403     14405     14400     14403     14406     14401     14400     14402
     14401     14400     14403     14402     14400     14403     14403     14406     14407
     14403     14406     14408     14403     14406     14409     14404     14403     14405
     14404     14403     14406     14405     14403     14406     14406     14409     14410
     14406     14409     14411     14406     14409     14412     14407     14406     14408
     14407     14406     14409     14408     14406     14409     14409     14412     14413
     14409     14412     14414     14409     14412     14415     14410     14409     14411
     14410     14409     14412     14411     14409     14412     14413     14412     14414
     14413     14412     14415     14414     14412     14415     14416     14419     14420
     14416     14419     14421     14416     14419     14422     14417     14416     14418
     14417     14416     14419     14418     14416     14419     14419     14422     14423
     14419     14422     14424     14419     14422     14425     14420     14419     14421
     14420     14419     14422     14421     14419     14422     14422     14425     14426
     14422     14425     14427     14422     14425     14428     14423     14422     14424
     14423     14422     14425     14424     14422     14425     14425     14428     14429
     14425     14428     14430     14425     14428     14431     14426     14425     14427
     14426     14425     14428     14427     14425     14428     14428     14431     14432
     14428     14431     14433     14428     14431     14434     14429     14428     14430
     14429     14428     14431     14430     14428     14431     14431     14434     14435
     14431     14434     14436     14431     14434     14437     14432     14431     14433
     14432     14431     14434     14433     14431     14434     14434     14437     14438
     14434     14437     14439     14434     14437     14440     14435     14434     14436
     14435     14434     14437     14436     14434     14437     14437     14440     14441
     14437     14440     14442     14437     14440     14443     14438     14437     14439
     14438     14437     14440     14439     14437     14440     14440     14443     14444
     14440     14443     14445     14440     14443     14446     14441     14440     14442
     14441     14440     14443     14442     14440     14443     14443     14446     14447
     14443     14446     14448     14443     14446     14449     14444     14443     14445
     14444     14443     14446     14445     14443     14446     14446     14449     14450
     14446     14449     14451     14446     14449     14452     14447     14446     14448
     14447     14446     14449     14448     14446     14449     14449     14452     14453
     14449     14452     14454     14449     14452     14455     14450     14449     14451
     14450     14449     14452     14451     14449     14452     14452     14455     14456
     14452     14455     14457     14452     14455     14458     14453     14452     14454
     14453     14452     14455     14454     14452     14455     14456     14455     14457
     14456     14455     14458     14457     14455     14458     14459     14463     14464
     14459     14463     14465     14459     14463     14466     14460     14459     14461
     14460     14459     14462     14460     14459     14463     14461     14459     14462
     14461     14459     14463     14462     14459     14463     14463     14466     14467
     14463     14466     14468     14463     14466     14473     14464     14463     14465
     14464     14463     14466     14465     14463     14466     14466     14473     14469
     14467     14466     14468     14467     14466     14473     14468     14466     14473
     14469     14472     14474     14470     14469     14471     14470     14469     14472
     14470     14469     14473     14471     14469     14472     14471     14469     14473
     14472     14469     14473     14472     14474     14475     14472     14474     14476
     14472     14474     14477     14474     14477     14478     14474     14477     14479
     14474     14477     14485     14475     14474     14476     14475     14474     14477
     14476     14474     14477     14477     14479     14480     14477     14485     14486
     14477     14485     14487     14477     14485     14488     14478     14477     14479
     14478     14477     14485     14479     14477     14485     14479     14480     14481
     14479     14480     14482     14480     14482     14483     14480     14482     14484
     14480     14482     14494     14481     14480     14482     14482     14494     14495
     14482     14494     14496     14482     14494     14497     14483     14482     14484
     14483     14482     14494     14484     14482     14494     14485     14488     14489
     14486     14485     14487     14486     14485     14488     14487     14485     14488
     14488     14489     14490     14488     14489     14491     14489     14491     14492
     14489     14491     14493     14489     14491     14541     14490     14489     14491
     14491     14541     14542     14491     14541     14543     14491     14541     14544
     14492     14491     14493     14492     14491     14541     14493     14491     14541
     14494     14497     14498     14494     14497     14499     14494     14497     14500
     14495     14494     14496     14495     14494     14497     14496     14494     14497
     14497     14500     14501     14497     14500     14502     14497     14500     14503
     14498     14497     14499     14498     14497     14500     14499     14497     14500
     14500     14503     14504     14500     14503     14505     14500     14503     14506
     14501     14500     14502     14501     14500     14503     14502     14500     14503
     14503     14506     14507     14503     14506     14508     14503     14506     14509
     14504     14503     14505     14504     14503     14506     14505     14503     14506
     14506     14509     14510     14506     14509     14511     14506     14509     14512
     14507     14506     14508     14507     14506     14509     14508     14506     14509
     14509     14512     14513     14509     14512     14514     14510     14509     14511
     14510     14509     14512     14511     14509     14512     14512     14514     14515
     14512     14514     14516     14513     14512     14514     14514     14516     14517
     14514     14516     14518     14514     14516     14519     14515     14514     14516
     14516     14519     14520     14516     14519     14521     14516     14519     14522
     14517     14516     14518     14517     14516     14519     14518     14516     14519
     14519     14522     14523     14519     14522     14524     14519     14522     14525
     14520     14519     14521     14520     14519     14522     14521     14519     14522
     14522     14525     14526     14522     14525     14527     14522     14525     14528
     14523     14522     14524     14523     14522     14525     14524     14522     14525
     14525     14528     14529     14525     14528     14530     14525     14528     14531
     14526     14525     14527     14526     14525     14528     14527     14525     14528
     14528     14531     14532     14528     14531     14533     14528     14531     14534
     14529     14528     14530     14529     14528     14531     14530     14528     14531
     14531     14534     14535     14531     14534     14536     14531     14534     14537
     14532     14531     14533     14532     14531     14534     14533     14531     14534
     14534     14537     14538     14534     14537     14539     14534     14537     14540
     14535     14534     14536     14535     14534     14537     14536     14534     14537
     14538     14537     14539     14538     14537     14540     14539     14537     14540
     14541     14544     14545     14541     14544     14546     14541     14544     14547
     14542     14541     14543     14542     14541     14544     14543     14541     14544
     14544     14547     14548     14544     14547     14549     14544     14547     14550
     14545     14544     14546     14545     14544     14547     14546     14544     14547
     14547     14550     14551     14547     14550     14552     14547     14550     14553
     14548     14547     14549     14548     14547     14550     14549     14547     14550
     14550     14553     14554     14550     14553     14555     14550     14553     14556
     14551     14550     14552     14551     14550     14553     14552     14550     14553
     14553     14556     14557     14553     14556     14558     14553     14556     14559
     14554     14553     14555     14554     14553     14556     14555     14553     14556
     14556     14559     14560     14556     14559     14561     14556     14559     14562
     14557     14556     14558     14557     14556     14559     14558     14556     14559
     14559     14562     14563     14559     14562     14564     14559     14562     14565
     14560     14559     14561     14560     14559     14562     14561     14559     14562
     14562     14565     14566     14562     14565     14567     14562     14565     14568
     14563     14562     14564     14563     14562     14565     14564     14562     14565
     14565     14568     14569     14565     14568     14570     14565     14568     14571
     14566     14565     14567     14566     14565     14568     14567     14565     14568
     14568     14571     14572     14568     14571     14573     14568     14571     14574
     14569     14568     14570     14569     14568     14571     14570     14568     14571
     14571     14574     14575     14571     14574     14576     14571     14574     14577
     14572     14571     14573     14572     14571     14574     14573     14571     14574
     14574     14577     14578     14574     14577     14579     14574     14577     14580
     14575     14574     14576     14575     14574     14577     14576     14574     14577
     14577     14580     14581     14577     14580     14582     14577     14580     14583
     14578     14577     14579     14578     14577     14580     14579     14577     14580
     14581     14580     14582     14581     14580     14583     14582     14580     14583
     14584     14585     14586     14584     14585     14587     14584     14585     14600
     14584     14588     14589     14584     14588     14590     14584     14588     14591
     14584     14592     14593     14584     14592     14594     14584     14592     14595
     14584     14596     14597     14584     14596     14598     14584     14596     14599
     14585     14584     14588     14585     14584     14592     14585     14584     14596
     14585     14600     14601     14585     14600     14602     14585     14600     14606
     14586     14585     14587     14586     14585     14600     14587     14585     14600
     14588     14584     14592     14588     14584     14596     14589     14588     14590
     14589     14588     14591     14590     14588     14591     14592     14584     14596
     14593     14592     14594     14593     14592     14595     14594     14592     14595
     14597     14596     14598     14597     14596     14599     14598     14596     14599
     14600     14606     14603     14601     14600     14602     14601     14600     14606
     14602     14600     14606     14603     14607     14608     14604     14603     14605
     14604     14603     14606     14604     14603     14607     14605     14603     14606
     14605     14603     14607     14606     14603     14607     14607     14608     14609
     14607     14608     14610     14607     14608     14611     14608     14611     14612
     14608     14611     14613     14608     14611     14619     14609     14608     14610
     14609     14608     14611     14610     14608     14611     14611     14613     14614
     14611     14619     14620     14611     14619     14621     14611     14619     14622
     14612     14611     14613     14612     14611     14619     14613     14611     14619
     14613     14614     14615     14613     14614     14616     14614     14616     14617
     14614     14616     14618     14614     14616     14628     14615     14614     14616
     14616     14628     14629     14616     14628     14630     14616     14628     14631
     14617     14616     14618     14617     14616     14628     14618     14616     14628
     14619     14622     14623     14620     14619     14621     14620     14619     14622
     14621     14619     14622     14622     14623     14624     14622     14623     14625
     14623     14625     14626     14623     14625     14627     14623     14625     14675
     14624     14623     14625     14625     14675     14676     14625     14675     14677
     14625     14675     14678     14626     14625     14627     14626     14625     14675
     14627     14625     14675     14628     14631     14632     14628     14631     14633
     14628     14631     14634     14629     14628     14630     14629     14628     14631
     14630     14628     14631     14631     14634     14635     14631     14634     14636
     14631     14634     14637     14632     14631     14633     14632     14631     14634
     14633     14631     14634     14634     14637     14638     14634     14637     14639
     14634     14637     14640     14635     14634     14636     14635     14634     14637
     14636     14634     14637     14637     14640     14641     14637     14640     14642
     14637     14640     14643     14638     14637     14639     14638     14637     14640
     14639     14637     14640     14640     14643     14644     14640     14643     14645
     14640     14643     14646     14641     14640     14642     14641     14640     14643
     14642     14640     14643     14643     14646     14647     14643     14646     14648
     14644     14643     14645     14644     14643     14646     14645     14643     14646
     14646     14648     14649     14646     14648     14650     14647     14646     14648
     14648     14650     14651     14648     14650     14652     14648     14650     14653
     14649     14648     14650     14650     14653     14654     14650     14653     14655
     14650     14653     14656     14651     14650     14652     14651     14650     14653
     14652     14650     14653     14653     14656     14657     14653     14656     14658
     14653     14656     14659     14654     14653     14655     14654     14653     14656
     14655     14653     14656     14656     14659     14660     14656     14659     14661
     14656     14659     14662     14657     14656     14658     14657     14656     14659
     14658     14656     14659     14659     14662     14663     14659     14662     14664
     14659     14662     14665     14660     14659     14661     14660     14659     14662
     14661     14659     14662     14662     14665     14666     14662     14665     14667
     14662     14665     14668     14663     14662     14664     14663     14662     14665
     14664     14662     14665     14665     14668     14669     14665     14668     14670
     14665     14668     14671     14666     14665     14667     14666     14665     14668
     14667     14665     14668     14668     14671     14672     14668     14671     14673
     14668     14671     14674     14669     14668     14670     14669     14668     14671
     14670     14668     14671     14672     14671     14673     14672     14671     14674
     14673     14671     14674     14675     14678     14679     14675     14678     14680
     14675     14678     14681     14676     14675     14677     14676     14675     14678
     14677     14675     14678     14678     14681     14682     14678     14681     14683
     14678     14681     14684     14679     14678     14680     14679     14678     14681
     14680     14678     14681     14681     14684     14685     14681     14684     14686
     14681     14684     14687     14682     14681     14683     14682     14681     14684
     14683     14681     14684     14684     14687     14688     14684     14687     14689
     14684     14687     14690     14685     14684     14686     14685     14684     14687
     14686     14684     14687     14687     14690     14691     14687     14690     14692
     14687     14690     14693     14688     14687     14689     14688     14687     14690
     14689     14687     14690     14690     14693     14694     14690     14693     14695
     14690     14693     14696     14691     14690     14692     14691     14690     14693
     14692     14690     14693     14693     14696     14697     14693     14696     14698
     14693     14696     14699     14694     14693     14695     14694     14693     14696
     14695     14693     14696     14696     14699     14700     14696     14699     14701
     14696     14699     14702     14697     14696     14698     14697     14696     14699
     14698     14696     14699     14699     14702     14703     14699     14702     14704
     14699     14702     14705     14700     14699     14701     14700     14699     14702
     14701     14699     14702     14702     14705     14706     14702     14705     14707
     14702     14705     14708     14703     14702     14704     14703     14702     14705
     14704     14702     14705     14705     14708     14709     14705     14708     14710
     14705     14708     14711     14706     14705     14707     14706     14705     14708
     14707     14705     14708     14708     14711     14712     14708     14711     14713
     14708     14711     14714     14709     14708     14710     14709     14708     14711
     14710     14708     14711     14711     14714     14715     14711     14714     14716
     14711     14714     14717     14712     14711     14713     14712     14711     14714
     14713     14711     14714     14715     14714     14716     14715     14714     14717
     14716     14714     14717     14718     14722     14723     14718     14722     14724
     14718     14722     14725     14719     14718     14720     14719     14718     14721
     14719     14718     14722     14720     14718     14721     14720     14718     14722
     14721     14718     14722     14722     14725     14726     14722     14725     14727
     14722     14725     14732     14723     14722     14724     14723     14722     14725
     14724     14722     14725     14725     14732     14728     14726     14725     14727
     14726     14725     14732     14727     14725     14732     14728     14731     14733
     14729     14728     14730     14729     14728     14731     14729     14728     14732
     14730     14728     14731     14730     14728     14732     14731     14728     14732
     14731     14733     14734     14731     14733     14735     14731     14733     14736
     14733     14736     14737     14733     14736     14738     14733     14736     14744
     14734     14733     14735     14734     14733     14736     14735     14733     14736
     14736     14738     14739     14736     14744     14745     14736     14744     14746
     14736     14744     14747     14737     14736     14738     14737     14736     14744
     14738     14736     14744     14738     14739     14740     14738     14739     14741
     14739     14741     14742     14739     14741     14743     14739     14741     14753
     14740     14739     14741     14741     14753     14754     14741     14753     14755
     14741     14753     14756     14742     14741     14743     14742     14741     14753
     14743     14741     14753     14744     14747     14748     14745     14744     14746
     14745     14744     14747     14746     14744     14747     14747     14748     14749
     14747     14748     14750     14748     14750     14751     14748     14750     14752
     14748     14750     14800     14749     14748     14750     14750     14800     14801
     14750     14800     14802     14750     14800     14803     14751     14750     14752
     14751     14750     14800     14752     14750     14800     14753     14756     14757
     14753     14756     14758     14753     14756     14759     14754     14753     14755
     14754     14753     14756     14755     14753     14756     14756     14759     14760
     14756     14759     14761     14756     14759     14762     14757     14756     14758
     14757     14756     14759     14758     14756     14759     14759     14762     14763
     14759     14762     14764     14759     14762     14765     14760     14759     14761
     14760     14759     14762     14761     14759     14762     14762     14765     14766
     14762     14765     14767     14762     14765     14768     14763     14762     14764
     14763     14762     14765     14764     14762     14765     14765     14768     14769
     14765     14768     14770     14765     14768     14771     14766     14765     14767
     14766     14765     14768     14767     14765     14768     14768     14771     14772
     14768     14771     14773     14769     14768     14770     14769     14768     14771
     14770     14768     14771     14771     14773     14774     14771     14773     14775
     14772     14771     14773     14773     14775     14776     14773     14775     14777
     14773     14775     14778     14774     14773     14775     14775     14778     14779
     14775     14778     14780     14775     14778     14781     14776     14775     14777
     14776     14775     14778     14777     14775     14778     14778     14781     14782
     14778     14781     14783     14778     14781     14784     14779     14778     14780
     14779     14778     14781     14780     14778     14781     14781     14784     14785
     14781     14784     14786     14781     14784     14787     14782     14781     14783
     14782     14781     14784     14783     14781     14784     14784     14787     14788
     14784     14787     14789     14784     14787     14790     14785     14784     14786
     14785     14784     14787     14786     14784     14787     14787     14790     14791
     14787     14790     14792     14787     14790     14793     14788     14787     14789
     14788     14787     14790     14789     14787     14790     14790     14793     14794
     14790     14793     14795     14790     14793     14796     14791     14790     14792
     14791     14790     14793     14792     14790     14793     14793     14796     14797
     14793     14796     14798     14793     14796     14799     14794     14793     14795
     14794     14793     14796     14795     14793     14796     14797     14796     14798
     14797     14796     14799     14798     14796     14799     14800     14803     14804
     14800     14803     14805     14800     14803     14806     14801     14800     14802
     14801     14800     14803     14802     14800     14803     14803     14806     14807
     14803     14806     14808     14803     14806     14809     14804     14803     14805
     14804     14803     14806     14805     14803     14806     14806     14809     14810
     14806     14809     14811     14806     14809     14812     14807     14806     14808
     14807     14806     14809     14808     14806     14809     14809     14812     14813
     14809     14812     14814     14809     14812     14815     14810     14809     14811
     14810     14809     14812     14811     14809     14812     14812     14815     14816
     14812     14815     14817     14812     14815     14818     14813     14812     14814
     14813     14812     14815     14814     14812     14815     14815     14818     14819
     14815     14818     14820     14815     14818     14821     14816     14815     14817
     14816     14815     14818     14817     14815     14818     14818     14821     14822
     14818     14821     14823     14818     14821     14824     14819     14818     14820
     14819     14818     14821     14820     14818     14821     14821     14824     14825
     14821     14824     14826     14821     14824     14827     14822     14821     14823
     14822     14821     14824     14823     14821     14824     14824     14827     14828
     14824     14827     14829     14824     14827     14830     14825     14824     14826
     14825     14824     14827     14826     14824     14827     14827     14830     14831
     14827     14830     14832     14827     14830     14833     14828     14827     14829
     14828     14827     14830     14829     14827     14830     14830     14833     14834
     14830     14833     14835     14830     14833     14836     14831     14830     14832
     14831     14830     14833     14832     14830     14833     14833     14836     14837
     14833     14836     14838     14833     14836     14839     14834     14833     14835
     14834     14833     14836     14835     14833     14836     14836     14839     14840
     14836     14839     14841     14836     14839     14842     14837     14836     14838
     14837     14836     14839     14838     14836     14839     14840     14839     14841
     14840     14839     14842     14841     14839     14842     14843     14844     14845
     14843     14844     14846     14843     14844     14859     14843     14847     14848
     14843     14847     14849     14843     14847     14850     14843     14851     14852
     14843     14851     14853     14843     14851     14854     14843     14855     14856
     14843     14855     14857     14843     14855     14858     14844     14843     14847
     14844     14843     14851     14844     14843     14855     14844     14859     14860
     14844     14859     14861     14844     14859     14865     14845     14844     14846
     14845     14844     14859     14846     14844     14859     14847     14843     14851
     14847     14843     14855     14848     14847     14849     14848     14847     14850
     14849     14847     14850     14851     14843     14855     14852     14851     14853
     14852     14851     14854     14853     14851     14854     14856     14855     14857
     14856     14855     14858     14857     14855     14858     14859     14865     14862
     14860     14859     14861     14860     14859     14865     14861     14859     14865
     14862     14866     14867     14863     14862     14864     14863     14862     14865
     14863     14862     14866     14864     14862     14865     14864     14862     14866
     14865     14862     14866     14866     14867     14868     14866     14867     14869
     14866     14867     14870     14867     14870     14871     14867     14870     14872
     14867     14870     14878     14868     14867     14869     14868     14867     14870
     14869     14867     14870     14870     14872     14873     14870     14878     14879
     14870     14878     14880     14870     14878     14881     14871     14870     14872
     14871     14870     14878     14872     14870     14878     14872     14873     14874
     14872     14873     14875     14873     14875     14876     14873     14875     14877
     14873     14875     14887     14874     14873     14875     14875     14887     14888
     14875     14887     14889     14875     14887     14890     14876     14875     14877
     14876     14875     14887     14877     14875     14887     14878     14881     14882
     14879     14878     14880     14879     14878     14881     14880     14878     14881
     14881     14882     14883     14881     14882     14884     14882     14884     14885
     14882     14884     14886     14882     14884     14934     14883     14882     14884
     14884     14934     14935     14884     14934     14936     14884     14934     14937
     14885     14884     14886     14885     14884     14934     14886     14884     14934
     14887     14890     14891     14887     14890     14892     14887     14890     14893
     14888     14887     14889     14888     14887     14890     14889     14887     14890
     14890     14893     14894     14890     14893     14895     14890     14893     14896
     14891     14890     14892     14891     14890     14893     14892     14890     14893
     14893     14896     14897     14893     14896     14898     14893     14896     14899
     14894     14893     14895     14894     14893     14896     14895     14893     14896
     14896     14899     14900     14896     14899     14901     14896     14899     14902
     14897     14896     14898     14897     14896     14899     14898     14896     14899
     14899     14902     14903     14899     14902     14904     14899     14902     14905
     14900     14899     14901     14900     14899     14902     14901     14899     14902
     14902     14905     14906     14902     14905     14907     14903     14902     14904
     14903     14902     14905     14904     14902     14905     14905     14907     14908
     14905     14907     14909     14906     14905     14907     14907     14909     14910
     14907     14909     14911     14907     14909     14912     14908     14907     14909
     14909     14912     14913     14909     14912     14914     14909     14912     14915
     14910     14909     14911     14910     14909     14912     14911     14909     14912
     14912     14915     14916     14912     14915     14917     14912     14915     14918
     14913     14912     14914     14913     14912     14915     14914     14912     14915
     14915     14918     14919     14915     14918     14920     14915     14918     14921
     14916     14915     14917     14916     14915     14918     14917     14915     14918
     14918     14921     14922     14918     14921     14923     14918     14921     14924
     14919     14918     14920     14919     14918     14921     14920     14918     14921
     14921     14924     14925     14921     14924     14926     14921     14924     14927
     14922     14921     14923     14922     14921     14924     14923     14921     14924
     14924     14927     14928     14924     14927     14929     14924     14927     14930
     14925     14924     14926     14925     14924     14927     14926     14924     14927
     14927     14930     14931     14927     14930     14932     14927     14930     14933
     14928     14927     14929     14928     14927     14930     14929     14927     14930
     14931     14930     14932     14931     14930     14933     14932     14930     14933
     14934     14937     14938     14934     14937     14939     14934     14937     14940
     14935     14934     14936     14935     14934     14937     14936     14934     14937
     14937     14940     14941     14937     14940     14942     14937     14940     14943
     14938     14937     14939     14938     14937     14940     14939     14937     14940
     14940     14943     14944     14940     14943     14945     14940     14943     14946
     14941     14940     14942     14941     14940     14943     14942     14940     14943
     14943     14946     14947     14943     14946     14948     14943     14946     14949
     14944     14943     14945     14944     14943     14946     14945     14943     14946
     14946     14949     14950     14946     14949     14951     14946     14949     14952
     14947     14946     14948     14947     14946     14949     14948     14946     14949
     14949     14952     14953     14949     14952     14954     14949     14952     14955
     14950     14949     14951     14950     14949     14952     14951     14949     14952
     14952     14955     14956     14952     14955     14957     14952     14955     14958
     14953     14952     14954     14953     14952     14955     14954     14952     14955
     14955     14958     14959     14955     14958     14960     14955     14958     14961
     14956     14955     14957     14956     14955     14958     14957     14955     14958
     14958     14961     14962     14958     14961     14963     14958     14961     14964
     14959     14958     14960     14959     14958     14961     14960     14958     14961
     14961     14964     14965     14961     14964     14966     14961     14964     14967
     14962     14961     14963     14962     14961     14964     14963     14961     14964
     14964     14967     14968     14964     14967     14969     14964     14967     14970
     14965     14964     14966     14965     14964     14967     14966     14964     14967
     14967     14970     14971     14967     14970     14972     14967     14970     14973
     14968     14967     14969     14968     14967     14970     14969     14967     14970
     14970     14973     14974     14970     14973     14975     14970     14973     14976
     14971     14970     14972     14971     14970     14973     14972     14970     14973
     14974     14973     14975     14974     14973     14976     14975     14973     14976
     14977     14978     14979     14977     14978     14980     14977     14978     14993
     14977     14981     14982     14977     14981     14983     14977     14981     14984
     14977     14985     14986     14977     14985     14987     14977     14985     14988
     14977     14989     14990     14977     14989     14991     14977     14989     14992
     14978     14977     14981     14978     14977     14985     14978     14977     14989
     14978     14993     14994     14978     14993     14995     14978     14993     14999
     14979     14978     14980     14979     14978     14993     14980     14978     14993
     14981     14977     14985     14981     14977     14989     14982     14981     14983
     14982     14981     14984     14983     14981     14984     14985     14977     14989
     14986     14985     14987     14986     14985     14988     14987     14985     14988
     14990     14989     14991     14990     14989     14992     14991     14989     14992
     14993     14999     14996     14994     14993     14995     14994     14993     14999
     14995     14993     14999     14996     15000     15001     14997     14996     14998
     14997     14996     14999     14997     14996     15000     14998     14996     14999
     14998     14996     15000     14999     14996     15000     15000     15001     15002
     15000     15001     15003     15000     15001     15004     15001     15004     15005
     15001     15004     15006     15001     15004     15012     15002     15001     15003
     15002     15001     15004     15003     15001     15004     15004     15006     15007
     15004     15012     15013     15004     15012     15014     15004     15012     15015
     15005     15004     15006     15005     15004     15012     15006     15004     15012
     15006     15007     15008     15006     15007     15009     15007     15009     15010
     15007     15009     15011     15007     15009     15021     15008     15007     15009
     15009     15021     15022     15009     15021     15023     15009     15021     15024
     15010     15009     15011     15010     15009     15021     15011     15009     15021
     15012     15015     15016     15013     15012     15014     15013     15012     15015
     15014     15012     15015     15015     15016     15017     15015     15016     15018
     15016     15018     15019     15016     15018     15020     15016     15018     15068
     15017     15016     15018     15018     15068     15069     15018     15068     15070
     15018     15068     15071     15019     15018     15020     15019     15018     15068
     15020     15018     15068     15021     15024     15025     15021     15024     15026
     15021     15024     15027     15022     15021     15023     15022     15021     15024
     15023     15021     15024     15024     15027     15028     15024     15027     15029
     15024     15027     15030     15025     15024     15026     15025     15024     15027
     15026     15024     15027     15027     15030     15031     15027     15030     15032
     15027     15030     15033     15028     15027     15029     15028     15027     15030
     15029     15027     15030     15030     15033     15034     15030     15033     15035
     15030     15033     15036     15031     15030     15032     15031     15030     15033
     15032     15030     15033     15033     15036     15037     15033     15036     15038
     15033     15036     15039     15034     15033     15035     15034     15033     15036
     15035     15033     15036     15036     15039     15040     15036     15039     15041
     15037     15036     15038     15037     15036     15039     15038     15036     15039
     15039     15041     15042     15039     15041     15043     15040     15039     15041
     15041     15043     15044     15041     15043     15045     15041     15043     15046
     15042     15041     15043     15043     15046     15047     15043     15046     15048
     15043     15046     15049     15044     15043     15045     15044     15043     15046
     15045     15043     15046     15046     15049     15050     15046     15049     15051
     15046     15049     15052     15047     15046     15048     15047     15046     15049
     15048     15046     15049     15049     15052     15053     15049     15052     15054
     15049     15052     15055     15050     15049     15051     15050     15049     15052
     15051     15049     15052     15052     15055     15056     15052     15055     15057
     15052     15055     15058     15053     15052     15054     15053     15052     15055
     15054     15052     15055     15055     15058     15059     15055     15058     15060
     15055     15058     15061     15056     15055     15057     15056     15055     15058
     15057     15055     15058     15058     15061     15062     15058     15061     15063
     15058     15061     15064     15059     15058     15060     15059     15058     15061
     15060     15058     15061     15061     15064     15065     15061     15064     15066
     15061     15064     15067     15062     15061     15063     15062     15061     15064
     15063     15061     15064     15065     15064     15066     15065     15064     15067
     15066     15064     15067     15068     15071     15072     15068     15071     15073
     15068     15071     15074     15069     15068     15070     15069     15068     15071
     15070     15068     15071     15071     15074     15075     15071     15074     15076
     15071     15074     15077     15072     15071     15073     15072     15071     15074
     15073     15071     15074     15074     15077     15078     15074     15077     15079
     15074     15077     15080     15075     15074     15076     15075     15074     15077
     15076     15074     15077     15077     15080     15081     15077     15080     15082
     15077     15080     15083     15078     15077     15079     15078     15077     15080
     15079     15077     15080     15080     15083     15084     15080     15083     15085
     15080     15083     15086     15081     15080     15082     15081     15080     15083
     15082     15080     15083     15083     15086     15087     15083     15086     15088
     15083     15086     15089     15084     15083     15085     15084     15083     15086
     15085     15083     15086     15086     15089     15090     15086     15089     15091
     15086     15089     15092     15087     15086     15088     15087     15086     15089
     15088     15086     15089     15089     15092     15093     15089     15092     15094
     15089     15092     15095     15090     15089     15091     15090     15089     15092
     15091     15089     15092     15092     15095     15096     15092     15095     15097
     15092     15095     15098     15093     15092     15094     15093     15092     15095
     15094     15092     15095     15095     15098     15099     15095     15098     15100
     15095     15098     15101     15096     15095     15097     15096     15095     15098
     15097     15095     15098     15098     15101     15102     15098     15101     15103
     15098     15101     15104     15099     15098     15100     15099     15098     15101
     15100     15098     15101     15101     15104     15105     15101     15104     15106
     15101     15104     15107     15102     15101     15103     15102     15101     15104
     15103     15101     15104     15104     15107     15108     15104     15107     15109
     15104     15107     15110     15105     15104     15106     15105     15104     15107
     15106     15104     15107     15108     15107     15109     15108     15107     15110
     15109     15107     15110     15111     15115     15116     15111     15115     15117
     15111     15115     15118     15112     15111     15113     15112     15111     15114
     15112     15111     15115     15113     15111     15114     15113     15111     15115
     15114     15111     15115     15115     15118     15119     15115     15118     15120
     15115     15118     15125     15116     15115     15117     15116     15115     15118
     15117     15115     15118     15118     15125     15121     15119     15118     15120
     15119     15118     15125     15120     15118     15125     15121     15124     15126
     15122     15121     15123     15122     15121     15124     15122     15121     15125
     15123     15121     15124     15123     15121     15125     15124     15121     15125
     15124     15126     15127     15124     15126     15128     15124     15126     15129
     15126     15129     15130     15126     15129     15131     15126     15129     15137
     15127     15126     15128     15127     15126     15129     15128     15126     15129
     15129     15131     15132     15129     15137     15138     15129     15137     15139
     15129     15137     15140     15130     15129     15131     15130     15129     15137
     15131     15129     15137     15131     15132     15133     15131     15132     15134
     15132     15134     15135     15132     15134     15136     15132     15134     15146
     15133     15132     15134     15134     15146     15147     15134     15146     15148
     15134     15146     15149     15135     15134     15136     15135     15134     15146
     15136     15134     15146     15137     15140     15141     15138     15137     15139
     15138     15137     15140     15139     15137     15140     15140     15141     15142
     15140     15141     15143     15141     15143     15144     15141     15143     15145
     15141     15143     15193     15142     15141     15143     15143     15193     15194
     15143     15193     15195     15143     15193     15196     15144     15143     15145
     15144     15143     15193     15145     15143     15193     15146     15149     15150
     15146     15149     15151     15146     15149     15152     15147     15146     15148
     15147     15146     15149     15148     15146     15149     15149     15152     15153
     15149     15152     15154     15149     15152     15155     15150     15149     15151
     15150     15149     15152     15151     15149     15152     15152     15155     15156
     15152     15155     15157     15152     15155     15158     15153     15152     15154
     15153     15152     15155     15154     15152     15155     15155     15158     15159
     15155     15158     15160     15155     15158     15161     15156     15155     15157
     15156     15155     15158     15157     15155     15158     15158     15161     15162
     15158     15161     15163     15158     15161     15164     15159     15158     15160
     15159     15158     15161     15160     15158     15161     15161     15164     15165
     15161     15164     15166     15162     15161     15163     15162     15161     15164
     15163     15161     15164     15164     15166     15167     15164     15166     15168
     15165     15164     15166     15166     15168     15169     15166     15168     15170
     15166     15168     15171     15167     15166     15168     15168     15171     15172
     15168     15171     15173     15168     15171     15174     15169     15168     15170
     15169     15168     15171     15170     15168     15171     15171     15174     15175
     15171     15174     15176     15171     15174     15177     15172     15171     15173
     15172     15171     15174     15173     15171     15174     15174     15177     15178
     15174     15177     15179     15174     15177     15180     15175     15174     15176
     15175     15174     15177     15176     15174     15177     15177     15180     15181
     15177     15180     15182     15177     15180     15183     15178     15177     15179
     15178     15177     15180     15179     15177     15180     15180     15183     15184
     15180     15183     15185     15180     15183     15186     15181     15180     15182
     15181     15180     15183     15182     15180     15183     15183     15186     15187
     15183     15186     15188     15183     15186     15189     15184     15183     15185
     15184     15183     15186     15185     15183     15186     15186     15189     15190
     15186     15189     15191     15186     15189     15192     15187     15186     15188
     15187     15186     15189     15188     15186     15189     15190     15189     15191
     15190     15189     15192     15191     15189     15192     15193     15196     15197
     15193     15196     15198     15193     15196     15199     15194     15193     15195
     15194     15193     15196     15195     15193     15196     15196     15199     15200
     15196     15199     15201     15196     15199     15202     15197     15196     15198
     15197     15196     15199     15198     15196     15199     15199     15202     15203
     15199     15202     15204     15199     15202     15205     15200     15199     15201
     15200     15199     15202     15201     15199     15202     15202     15205     15206
     15202     15205     15207     15202     15205     15208     15203     15202     15204
     15203     15202     15205     15204     15202     15205     15205     15208     15209
     15205     15208     15210     15205     15208     15211     15206     15205     15207
     15206     15205     15208     15207     15205     15208     15208     15211     15212
     15208     15211     15213     15208     15211     15214     15209     15208     15210
     15209     15208     15211     15210     15208     15211     15211     15214     15215
     15211     15214     15216     15211     15214     15217     15212     15211     15213
     15212     15211     15214     15213     15211     15214     15214     15217     15218
     15214     15217     15219     15214     15217     15220     15215     15214     15216
     15215     15214     15217     15216     15214     15217     15217     15220     15221
     15217     15220     15222     15217     15220     15223     15218     15217     15219
     15218     15217     15220     15219     15217     15220     15220     15223     15224
     15220     15223     15225     15220     15223     15226     15221     15220     15222
     15221     15220     15223     15222     15220     15223     15223     15226     15227
     15223     15226     15228     15223     15226     15229     15224     15223     15225
     15224     15223     15226     15225     15223     15226     15226     15229     15230
     15226     15229     15231     15226     15229     15232     15227     15226     15228
     15227     15226     15229     15228     15226     15229     15229     15232     15233
     15229     15232     15234     15229     15232     15235     15230     15229     15231
     15230     15229     15232     15231     15229     15232     15233     15232     15234
     15233     15232     15235     15234     15232     15235     15236     15240     15241
     15236     15240     15242     15236     15240     15243     15237     15236     15238
     15237     15236     15239     15237     15236     15240     15238     15236     15239
     15238     15236     15240     15239     15236     15240     15240     15243     15244
     15240     15243     15245     15240     15243     15250     15241     15240     15242
     15241     15240     15243     15242     15240     15243     15243     15250     15246
     15244     15243     15245     15244     15243     15250     15245     15243     15250
     15246     15249     15251     15247     15246     15248     15247     15246     15249
     15247     15246     15250     15248     15246     15249     15248     15246     15250
     15249     15246     15250     15249     15251     15252     15249     15251     15253
     15249     15251     15254     15251     15254     15255     15251     15254     15256
     15251     15254     15262     15252     15251     15253     15252     15251     15254
     15253     15251     15254     15254     15256     15257     15254     15262     15263
     15254     15262     15264     15254     15262     15265     15255     15254     15256
     15255     15254     15262     15256     15254     15262     15256     15257     15258
     15256     15257     15259     15257     15259     15260     15257     15259     15261
     15257     15259     15271     15258     15257     15259     15259     15271     15272
     15259     15271     15273     15259     15271     15274     15260     15259     15261
     15260     15259     15271     15261     15259     15271     15262     15265     15266
     15263     15262     15264     15263     15262     15265     15264     15262     15265
     15265     15266     15267     15265     15266     15268     15266     15268     15269
     15266     15268     15270     15266     15268     15318     15267     15266     15268
     15268     15318     15319     15268     15318     15320     15268     15318     15321
     15269     15268     15270     15269     15268     15318     15270     15268     15318
     15271     15274     15275     15271     15274     15276     15271     15274     15277
     15272     15271     15273     15272     15271     15274     15273     15271     15274
     15274     15277     15278     15274     15277     15279     15274     15277     15280
     15275     15274     15276     15275     15274     15277     15276     15274     15277
     15277     15280     15281     15277     15280     15282     15277     15280     15283
     15278     15277     15279     15278     15277     15280     15279     15277     15280
     15280     15283     15284     15280     15283     15285     15280     15283     15286
     15281     15280     15282     15281     15280     15283     15282     15280     15283
     15283     15286     15287     15283     15286     15288     15283     15286     15289
     15284     15283     15285     15284     15283     15286     15285     15283     15286
     15286     15289     15290     15286     15289     15291     15287     15286     15288
     15287     15286     15289     15288     15286     15289     15289     15291     15292
     15289     15291     15293     15290     15289     15291     15291     15293     15294
     15291     15293     15295     15291     15293     15296     15292     15291     15293
     15293     15296     15297     15293     15296     15298     15293     15296     15299
     15294     15293     15295     15294     15293     15296     15295     15293     15296
     15296     15299     15300     15296     15299     15301     15296     15299     15302
     15297     15296     15298     15297     15296     15299     15298     15296     15299
     15299     15302     15303     15299     15302     15304     15299     15302     15305
     15300     15299     15301     15300     15299     15302     15301     15299     15302
     15302     15305     15306     15302     15305     15307     15302     15305     15308
     15303     15302     15304     15303     15302     15305     15304     15302     15305
     15305     15308     15309     15305     15308     15310     15305     15308     15311
     15306     15305     15307     15306     15305     15308     15307     15305     15308
     15308     15311     15312     15308     15311     15313     15308     15311     15314
     15309     15308     15310     15309     15308     15311     15310     15308     15311
     15311     15314     15315     15311     15314     15316     15311     15314     15317
     15312     15311     15313     15312     15311     15314     15313     15311     15314
     15315     15314     15316     15315     15314     15317     15316     15314     15317
     15318     15321     15322     15318     15321     15323     15318     15321     15324
     15319     15318     15320     15319     15318     15321     15320     15318     15321
     15321     15324     15325     15321     15324     15326     15321     15324     15327
     15322     15321     15323     15322     15321     15324     15323     15321     15324
     15324     15327     15328     15324     15327     15329     15324     15327     15330
     15325     15324     15326     15325     15324     15327     15326     15324     15327
     15327     15330     15331     15327     15330     15332     15327     15330     15333
     15328     15327     15329     15328     15327     15330     15329     15327     15330
     15330     15333     15334     15330     15333     15335     15330     15333     15336
     15331     15330     15332     15331     15330     15333     15332     15330     15333
     15333     15336     15337     15333     15336     15338     15333     15336     15339
     15334     15333     15335     15334     15333     15336     15335     15333     15336
     15336     15339     15340     15336     15339     15341     15336     15339     15342
     15337     15336     15338     15337     15336     15339     15338     15336     15339
     15339     15342     15343     15339     15342     15344     15339     15342     15345
     15340     15339     15341     15340     15339     15342     15341     15339     15342
     15342     15345     15346     15342     15345     15347     15342     15345     15348
     15343     15342     15344     15343     15342     15345     15344     15342     15345
     15345     15348     15349     15345     15348     15350     15345     15348     15351
     15346     15345     15347     15346     15345     15348     15347     15345     15348
     15348     15351     15352     15348     15351     15353     15348     15351     15354
     15349     15348     15350     15349     15348     15351     15350     15348     15351
     15351     15354     15355     15351     15354     15356     15351     15354     15357
     15352     15351     15353     15352     15351     15354     15353     15351     15354
     15354     15357     15358     15354     15357     15359     15354     15357     15360
     15355     15354     15356     15355     15354     15357     15356     15354     15357
     15358     15357     15359     15358     15357     15360     15359     15357     15360
     15361     15365     15366     15361     15365     15367     15361     15365     15368
     15362     15361     15363     15362     15361     15364     15362     15361     15365
     15363     15361     15364     15363     15361     15365     15364     15361     15365
     15365     15368     15369     15365     15368     15370     15365     15368     15375
     15366     15365     15367     15366     15365     15368     15367     15365     15368
     15368     15375     15371     15369     15368     15370     15369     15368     15375
     15370     15368     15375     15371     15374     15376     15372     15371     15373
     15372     15371     15374     15372     15371     15375     15373     15371     15374
     15373     15371     15375     15374     15371     15375     15374     15376     15377
     15374     15376     15378     15374     15376     15379     15376     15379     15380
     15376     15379     15381     15376     15379     15387     15377     15376     15378
     15377     15376     15379     15378     15376     15379     15379     15381     15382
     15379     15387     15388     15379     15387     15389     15379     15387     15390
     15380     15379     15381     15380     15379     15387     15381     15379     15387
     15381     15382     15383     15381     15382     15384     15382     15384     15385
     15382     15384     15386     15382     15384     15396     15383     15382     15384
     15384     15396     15397     15384     15396     15398     15384     15396     15399
     15385     15384     15386     15385     15384     15396     15386     15384     15396
     15387     15390     15391     15388     15387     15389     15388     15387     15390
     15389     15387     15390     15390     15391     15392     15390     15391     15393
     15391     15393     15394     15391     15393     15395     15391     15393     15443
     15392     15391     15393     15393     15443     15444     15393     15443     15445
     15393     15443     15446     15394     15393     15395     15394     15393     15443
     15395     15393     15443     15396     15399     15400     15396     15399     15401
     15396     15399     15402     15397     15396     15398     15397     15396     15399
     15398     15396     15399     15399     15402     15403     15399     15402     15404
     15399     15402     15405     15400     15399     15401     15400     15399     15402
     15401     15399     15402     15402     15405     15406     15402     15405     15407
     15402     15405     15408     15403     15402     15404     15403     15402     15405
     15404     15402     15405     15405     15408     15409     15405     15408     15410
     15405     15408     15411     15406     15405     15407     15406     15405     15408
     15407     15405     15408     15408     15411     15412     15408     15411     15413
     15408     15411     15414     15409     15408     15410     15409     15408     15411
     15410     15408     15411     15411     15414     15415     15411     15414     15416
     15412     15411     15413     15412     15411     15414     15413     15411     15414
     15414     15416     15417     15414     15416     15418     15415     15414     15416
     15416     15418     15419     15416     15418     15420     15416     15418     15421
     15417     15416     15418     15418     15421     15422     15418     15421     15423
     15418     15421     15424     15419     15418     15420     15419     15418     15421
     15420     15418     15421     15421     15424     15425     15421     15424     15426
     15421     15424     15427     15422     15421     15423     15422     15421     15424
     15423     15421     15424     15424     15427     15428     15424     15427     15429
     15424     15427     15430     15425     15424     15426     15425     15424     15427
     15426     15424     15427     15427     15430     15431     15427     15430     15432
     15427     15430     15433     15428     15427     15429     15428     15427     15430
     15429     15427     15430     15430     15433     15434     15430     15433     15435
     15430     15433     15436     15431     15430     15432     15431     15430     15433
     15432     15430     15433     15433     15436     15437     15433     15436     15438
     15433     15436     15439     15434     15433     15435     15434     15433     15436
     15435     15433     15436     15436     15439     15440     15436     15439     15441
     15436     15439     15442     15437     15436     15438     15437     15436     15439
     15438     15436     15439     15440     15439     15441     15440     15439     15442
     15441     15439     15442     15443     15446     15447     15443     15446     15448
     15443     15446     15449     15444     15443     15445     15444     15443     15446
     15445     15443     15446     15446     15449     15450     15446     15449     15451
     15446     15449     15452     15447     15446     15448     15447     15446     15449
     15448     15446     15449     15449     15452     15453     15449     15452     15454
     15449     15452     15455     15450     15449     15451     15450     15449     15452
     15451     15449     15452     15452     15455     15456     15452     15455     15457
     15452     15455     15458     15453     15452     15454     15453     15452     15455
     15454     15452     15455     15455     15458     15459     15455     15458     15460
     15455     15458     15461     15456     15455     15457     15456     15455     15458
     15457     15455     15458     15458     15461     15462     15458     15461     15463
     15458     15461     15464     15459     15458     15460     15459     15458     15461
     15460     15458     15461     15461     15464     15465     15461     15464     15466
     15461     15464     15467     15462     15461     15463     15462     15461     15464
     15463     15461     15464     15464     15467     15468     15464     15467     15469
     15464     15467     15470     15465     15464     15466     15465     15464     15467
     15466     15464     15467     15467     15470     15471     15467     15470     15472
     15467     15470     15473     15468     15467     15469     15468     15467     15470
     15469     15467     15470     15470     15473     15474     15470     15473     15475
     15470     15473     15476     15471     15470     15472     15471     15470     15473
     15472     15470     15473     15473     15476     15477     15473     15476     15478
     15473     15476     15479     15474     15473     15475     15474     15473     15476
     15475     15473     15476     15476     15479     15480     15476     15479     15481
     15476     15479     15482     15477     15476     15478     15477     15476     15479
     15478     15476     15479     15479     15482     15483     15479     15482     15484
     15479     15482     15485     15480     15479     15481     15480     15479     15482
     15481     15479     15482     15483     15482     15484     15483     15482     15485
     15484     15482     15485     15486     15487     15488     15486     15487     15489
     15486     15487     15502     15486     15490     15491     15486     15490     15492
     15486     15490     15493     15486     15494     15495     15486     15494     15496
     15486     15494     15497     15486     15498     15499     15486     15498     15500
     15486     15498     15501     15487     15486     15490     15487     15486     15494
     15487     15486     15498     15487     15502     15503     15487     15502     15504
     15487     15502     15508     15488     15487     15489     15488     15487     15502
     15489     15487     15502     15490     15486     15494     15490     15486     15498
     15491     15490     15492     15491     15490     15493     15492     15490     15493
     15494     15486     15498     15495     15494     15496     15495     15494     15497
     15496     15494     15497     15499     15498     15500     15499     15498     15501
     15500     15498     15501     15502     15508     15505     15503     15502     15504
     15503     15502     15508     15504     15502     15508     15505     15509     15510
     15506     15505     15507     15506     15505     15508     15506     15505     15509
     15507     15505     15508     15507     15505     15509     15508     15505     15509
     15509     15510     15511     15509     15510     15512     15509     15510     15513
     15510     15513     15514     15510     15513     15515     15510     15513     15521
     15511     15510     15512     15511     15510     15513     15512     15510     15513
     15513     15515     15516     15513     15521     15522     15513     15521     15523
     15513     15521     15524     15514     15513     15515     15514     15513     15521
     15515     15513     15521     15515     15516     15517     15515     15516     15518
     15516     15518     15519     15516     15518     15520     15516     15518     15530
     15517     15516     15518     15518     15530     15531     15518     15530     15532
     15518     15530     15533     15519     15518     15520     15519     15518     15530
     15520     15518     15530     15521     15524     15525     15522     15521     15523
     15522     15521     15524     15523     15521     15524     15524     15525     15526
     15524     15525     15527     15525     15527     15528     15525     15527     15529
     15525     15527     15577     15526     15525     15527     15527     15577     15578
     15527     15577     15579     15527     15577     15580     15528     15527     15529
     15528     15527     15577     15529     15527     15577     15530     15533     15534
     15530     15533     15535     15530     15533     15536     15531     15530     15532
     15531     15530     15533     15532     15530     15533     15533     15536     15537
     15533     15536     15538     15533     15536     15539     15534     15533     15535
     15534     15533     15536     15535     15533     15536     15536     15539     15540
     15536     15539     15541     15536     15539     15542     15537     15536     15538
     15537     15536     15539     15538     15536     15539     15539     15542     15543
     15539     15542     15544     15539     15542     15545     15540     15539     15541
     15540     15539     15542     15541     15539     15542     15542     15545     15546
     15542     15545     15547     15542     15545     15548     15543     15542     15544
     15543     15542     15545     15544     15542     15545     15545     15548     15549
     15545     15548     15550     15546     15545     15547     15546     15545     15548
     15547     15545     15548     15548     15550     15551     15548     15550     15552
     15549     15548     15550     15550     15552     15553     15550     15552     15554
     15550     15552     15555     15551     15550     15552     15552     15555     15556
     15552     15555     15557     15552     15555     15558     15553     15552     15554
     15553     15552     15555     15554     15552     15555     15555     15558     15559
     15555     15558     15560     15555     15558     15561     15556     15555     15557
     15556     15555     15558     15557     15555     15558     15558     15561     15562
     15558     15561     15563     15558     15561     15564     15559     15558     15560
     15559     15558     15561     15560     15558     15561     15561     15564     15565
     15561     15564     15566     15561     15564     15567     15562     15561     15563
     15562     15561     15564     15563     15561     15564     15564     15567     15568
     15564     15567     15569     15564     15567     15570     15565     15564     15566
     15565     15564     15567     15566     15564     15567     15567     15570     15571
     15567     15570     15572     15567     15570     15573     15568     15567     15569
     15568     15567     15570     15569     15567     15570     15570     15573     15574
     15570     15573     15575     15570     15573     15576     15571     15570     15572
     15571     15570     15573     15572     15570     15573     15574     15573     15575
     15574     15573     15576     15575     15573     15576     15577     15580     15581
     15577     15580     15582     15577     15580     15583     15578     15577     15579
     15578     15577     15580     15579     15577     15580     15580     15583     15584
     15580     15583     15585     15580     15583     15586     15581     15580     15582
     15581     15580     15583     15582     15580     15583     15583     15586     15587
     15583     15586     15588     15583     15586     15589     15584     15583     15585
     15584     15583     15586     15585     15583     15586     15586     15589     15590
     15586     15589     15591     15586     15589     15592     15587     15586     15588
     15587     15586     15589     15588     15586     15589     15589     15592     15593
     15589     15592     15594     15589     15592     15595     15590     15589     15591
     15590     15589     15592     15591     15589     15592     15592     15595     15596
     15592     15595     15597     15592     15595     15598     15593     15592     15594
     15593     15592     15595     15594     15592     15595     15595     15598     15599
     15595     15598     15600     15595     15598     15601     15596     15595     15597
     15596     15595     15598     15597     15595     15598     15598     15601     15602
     15598     15601     15603     15598     15601     15604     15599     15598     15600
     15599     15598     15601     15600     15598     15601     15601     15604     15605
     15601     15604     15606     15601     15604     15607     15602     15601     15603
     15602     15601     15604     15603     15601     15604     15604     15607     15608
     15604     15607     15609     15604     15607     15610     15605     15604     15606
     15605     15604     15607     15606     15604     15607     15607     15610     15611
     15607     15610     15612     15607     15610     15613     15608     15607     15609
     15608     15607     15610     15609     15607     15610     15610     15613     15614
     15610     15613     15615     15610     15613     15616     15611     15610     15612
     15611     15610     15613     15612     15610     15613     15613     15616     15617
     15613     15616     15618     15613     15616     15619     15614     15613     15615
     15614     15613     15616     15615     15613     15616     15617     15616     15618
     15617     15616     15619     15618     15616     15619     15620     15624     15625
     15620     15624     15626     15620     15624     15627     15621     15620     15622
     15621     15620     15623     15621     15620     15624     15622     15620     15623
     15622     15620     15624     15623     15620     15624     15624     15627     15628
     15624     15627     15629     15624     15627     15634     15625     15624     15626
     15625     15624     15627     15626     15624     15627     15627     15634     15630
     15628     15627     15629     15628     15627     15634     15629     15627     15634
     15630     15633     15635     15631     15630     15632     15631     15630     15633
     15631     15630     15634     15632     15630     15633     15632     15630     15634
     15633     15630     15634     15633     15635     15636     15633     15635     15637
     15633     15635     15638     15635     15638     15639     15635     15638     15640
     15635     15638     15646     15636     15635     15637     15636     15635     15638
     15637     15635     15638     15638     15640     15641     15638     15646     15647
     15638     15646     15648     15638     15646     15649     15639     15638     15640
     15639     15638     15646     15640     15638     15646     15640     15641     15642
     15640     15641     15643     15641     15643     15644     15641     15643     15645
     15641     15643     15655     15642     15641     15643     15643     15655     15656
     15643     15655     15657     15643     15655     15658     15644     15643     15645
     15644     15643     15655     15645     15643     15655     15646     15649     15650
     15647     15646     15648     15647     15646     15649     15648     15646     15649
     15649     15650     15651     15649     15650     15652     15650     15652     15653
     15650     15652     15654     15650     15652     15702     15651     15650     15652
     15652     15702     15703     15652     15702     15704     15652     15702     15705
     15653     15652     15654     15653     15652     15702     15654     15652     15702
     15655     15658     15659     15655     15658     15660     15655     15658     15661
     15656     15655     15657     15656     15655     15658     15657     15655     15658
     15658     15661     15662     15658     15661     15663     15658     15661     15664
     15659     15658     15660     15659     15658     15661     15660     15658     15661
     15661     15664     15665     15661     15664     15666     15661     15664     15667
     15662     15661     15663     15662     15661     15664     15663     15661     15664
     15664     15667     15668     15664     15667     15669     15664     15667     15670
     15665     15664     15666     15665     15664     15667     15666     15664     15667
     15667     15670     15671     15667     15670     15672     15667     15670     15673
     15668     15667     15669     15668     15667     15670     15669     15667     15670
     15670     15673     15674     15670     15673     15675     15671     15670     15672
     15671     15670     15673     15672     15670     15673     15673     15675     15676
     15673     15675     15677     15674     15673     15675     15675     15677     15678
     15675     15677     15679     15675     15677     15680     15676     15675     15677
     15677     15680     15681     15677     15680     15682     15677     15680     15683
     15678     15677     15679     15678     15677     15680     15679     15677     15680
     15680     15683     15684     15680     15683     15685     15680     15683     15686
     15681     15680     15682     15681     15680     15683     15682     15680     15683
     15683     15686     15687     15683     15686     15688     15683     15686     15689
     15684     15683     15685     15684     15683     15686     15685     15683     15686
     15686     15689     15690     15686     15689     15691     15686     15689     15692
     15687     15686     15688     15687     15686     15689     15688     15686     15689
     15689     15692     15693     15689     15692     15694     15689     15692     15695
     15690     15689     15691     15690     15689     15692     15691     15689     15692
     15692     15695     15696     15692     15695     15697     15692     15695     15698
     15693     15692     15694     15693     15692     15695     15694     15692     15695
     15695     15698     15699     15695     15698     15700     15695     15698     15701
     15696     15695     15697     15696     15695     15698     15697     15695     15698
     15699     15698     15700     15699     15698     15701     15700     15698     15701
     15702     15705     15706     15702     15705     15707     15702     15705     15708
     15703     15702     15704     15703     15702     15705     15704     15702     15705
     15705     15708     15709     15705     15708     15710     15705     15708     15711
     15706     15705     15707     15706     15705     15708     15707     15705     15708
     15708     15711     15712     15708     15711     15713     15708     15711     15714
     15709     15708     15710     15709     15708     15711     15710     15708     15711
     15711     15714     15715     15711     15714     15716     15711     15714     15717
     15712     15711     15713     15712     15711     15714     15713     15711     15714
     15714     15717     15718     15714     15717     15719     15714     15717     15720
     15715     15714     15716     15715     15714     15717     15716     15714     15717
     15717     15720     15721     15717     15720     15722     15717     15720     15723
     15718     15717     15719     15718     15717     15720     15719     15717     15720
     15720     15723     15724     15720     15723     15725     15720     15723     15726
     15721     15720     15722     15721     15720     15723     15722     15720     15723
     15723     15726     15727     15723     15726     15728     15723     15726     15729
     15724     15723     15725     15724     15723     15726     15725     15723     15726
     15726     15729     15730     15726     15729     15731     15726     15729     15732
     15727     15726     15728     15727     15726     15729     15728     15726     15729
     15729     15732     15733     15729     15732     15734     15729     15732     15735
     15730     15729     15731     15730     15729     15732     15731     15729     15732
     15732     15735     15736     15732     15735     15737     15732     15735     15738
     15733     15732     15734     15733     15732     15735     15734     15732     15735
     15735     15738     15739     15735     15738     15740     15735     15738     15741
     15736     15735     15737     15736     15735     15738     15737     15735     15738
     15738     15741     15742     15738     15741     15743     15738     15741     15744
     15739     15738     15740     15739     15738     15741     15740     15738     15741
     15742     15741     15743     15742     15741     15744     15743     15741     15744
     15745     15749     15750     15745     15749     15751     15745     15749     15752
     15746     15745     15747     15746     15745     15748     15746     15745     15749
     15747     15745     15748     15747     15745     15749     15748     15745     15749
     15749     15752     15753     15749     15752     15754     15749     15752     15759
     15750     15749     15751     15750     15749     15752     15751     15749     15752
     15752     15759     15755     15753     15752     15754     15753     15752     15759
     15754     15752     15759     15755     15758     15760     15756     15755     15757
     15756     15755     15758     15756     15755     15759     15757     15755     15758
     15757     15755     15759     15758     15755     15759     15758     15760     15761
     15758     15760     15762     15758     15760     15763     15760     15763     15764
     15760     15763     15765     15760     15763     15771     15761     15760     15762
     15761     15760     15763     15762     15760     15763     15763     15765     15766
     15763     15771     15772     15763     15771     15773     15763     15771     15774
     15764     15763     15765     15764     15763     15771     15765     15763     15771
     15765     15766     15767     15765     15766     15768     15766     15768     15769
     15766     15768     15770     15766     15768     15780     15767     15766     15768
     15768     15780     15781     15768     15780     15782     15768     15780     15783
     15769     15768     15770     15769     15768     15780     15770     15768     15780
     15771     15774     15775     15772     15771     15773     15772     15771     15774
     15773     15771     15774     15774     15775     15776     15774     15775     15777
     15775     15777     15778     15775     15777     15779     15775     15777     15827
     15776     15775     15777     15777     15827     15828     15777     15827     15829
     15777     15827     15830     15778     15777     15779     15778     15777     15827
     15779     15777     15827     15780     15783     15784     15780     15783     15785
     15780     15783     15786     15781     15780     15782     15781     15780     15783
     15782     15780     15783     15783     15786     15787     15783     15786     15788
     15783     15786     15789     15784     15783     15785     15784     15783     15786
     15785     15783     15786     15786     15789     15790     15786     15789     15791
     15786     15789     15792     15787     15786     15788     15787     15786     15789
     15788     15786     15789     15789     15792     15793     15789     15792     15794
     15789     15792     15795     15790     15789     15791     15790     15789     15792
     15791     15789     15792     15792     15795     15796     15792     15795     15797
     15792     15795     15798     15793     15792     15794     15793     15792     15795
     15794     15792     15795     15795     15798     15799     15795     15798     15800
     15796     15795     15797     15796     15795     15798     15797     15795     15798
     15798     15800     15801     15798     15800     15802     15799     15798     15800
     15800     15802     15803     15800     15802     15804     15800     15802     15805
     15801     15800     15802     15802     15805     15806     15802     15805     15807
     15802     15805     15808     15803     15802     15804     15803     15802     15805
     15804     15802     15805     15805     15808     15809     15805     15808     15810
     15805     15808     15811     15806     15805     15807     15806     15805     15808
     15807     15805     15808     15808     15811     15812     15808     15811     15813
     15808     15811     15814     15809     15808     15810     15809     15808     15811
     15810     15808     15811     15811     15814     15815     15811     15814     15816
     15811     15814     15817     15812     15811     15813     15812     15811     15814
     15813     15811     15814     15814     15817     15818     15814     15817     15819
     15814     15817     15820     15815     15814     15816     15815     15814     15817
     15816     15814     15817     15817     15820     15821     15817     15820     15822
     15817     15820     15823     15818     15817     15819     15818     15817     15820
     15819     15817     15820     15820     15823     15824     15820     15823     15825
     15820     15823     15826     15821     15820     15822     15821     15820     15823
     15822     15820     15823     15824     15823     15825     15824     15823     15826
     15825     15823     15826     15827     15830     15831     15827     15830     15832
     15827     15830     15833     15828     15827     15829     15828     15827     15830
     15829     15827     15830     15830     15833     15834     15830     15833     15835
     15830     15833     15836     15831     15830     15832     15831     15830     15833
     15832     15830     15833     15833     15836     15837     15833     15836     15838
     15833     15836     15839     15834     15833     15835     15834     15833     15836
     15835     15833     15836     15836     15839     15840     15836     15839     15841
     15836     15839     15842     15837     15836     15838     15837     15836     15839
     15838     15836     15839     15839     15842     15843     15839     15842     15844
     15839     15842     15845     15840     15839     15841     15840     15839     15842
     15841     15839     15842     15842     15845     15846     15842     15845     15847
     15842     15845     15848     15843     15842     15844     15843     15842     15845
     15844     15842     15845     15845     15848     15849     15845     15848     15850
     15845     15848     15851     15846     15845     15847     15846     15845     15848
     15847     15845     15848     15848     15851     15852     15848     15851     15853
     15848     15851     15854     15849     15848     15850     15849     15848     15851
     15850     15848     15851     15851     15854     15855     15851     15854     15856
     15851     15854     15857     15852     15851     15853     15852     15851     15854
     15853     15851     15854     15854     15857     15858     15854     15857     15859
     15854     15857     15860     15855     15854     15856     15855     15854     15857
     15856     15854     15857     15857     15860     15861     15857     15860     15862
     15857     15860     15863     15858     15857     15859     15858     15857     15860
     15859     15857     15860     15860     15863     15864     15860     15863     15865
     15860     15863     15866     15861     15860     15862     15861     15860     15863
     15862     15860     15863     15863     15866     15867     15863     15866     15868
     15863     15866     15869     15864     15863     15865     15864     15863     15866
     15865     15863     15866     15867     15866     15868     15867     15866     15869
     15868     15866     15869     15870     15874     15875     15870     15874     15876
     15870     15874     15877     15871     15870     15872     15871     15870     15873
     15871     15870     15874     15872     15870     15873     15872     15870     15874
     15873     15870     15874     15874     15877     15878     15874     15877     15879
     15874     15877     15884     15875     15874     15876     15875     15874     15877
     15876     15874     15877     15877     15884     15880     15878     15877     15879
     15878     15877     15884     15879     15877     15884     15880     15883     15885
     15881     15880     15882     15881     15880     15883     15881     15880     15884
     15882     15880     15883     15882     15880     15884     15883     15880     15884
     15883     15885     15886     15883     15885     15887     15883     15885     15888
     15885     15888     15889     15885     15888     15890     15885     15888     15896
     15886     15885     15887     15886     15885     15888     15887     15885     15888
     15888     15890     15891     15888     15896     15897     15888     15896     15898
     15888     15896     15899     15889     15888     15890     15889     15888     15896
     15890     15888     15896     15890     15891     15892     15890     15891     15893
     15891     15893     15894     15891     15893     15895     15891     15893     15905
     15892     15891     15893     15893     15905     15906     15893     15905     15907
     15893     15905     15908     15894     15893     15895     15894     15893     15905
     15895     15893     15905     15896     15899     15900     15897     15896     15898
     15897     15896     15899     15898     15896     15899     15899     15900     15901
     15899     15900     15902     15900     15902     15903     15900     15902     15904
     15900     15902     15952     15901     15900     15902     15902     15952     15953
     15902     15952     15954     15902     15952     15955     15903     15902     15904
     15903     15902     15952     15904     15902     15952     15905     15908     15909
     15905     15908     15910     15905     15908     15911     15906     15905     15907
     15906     15905     15908     15907     15905     15908     15908     15911     15912
     15908     15911     15913     15908     15911     15914     15909     15908     15910
     15909     15908     15911     15910     15908     15911     15911     15914     15915
     15911     15914     15916     15911     15914     15917     15912     15911     15913
     15912     15911     15914     15913     15911     15914     15914     15917     15918
     15914     15917     15919     15914     15917     15920     15915     15914     15916
     15915     15914     15917     15916     15914     15917     15917     15920     15921
     15917     15920     15922     15917     15920     15923     15918     15917     15919
     15918     15917     15920     15919     15917     15920     15920     15923     15924
     15920     15923     15925     15921     15920     15922     15921     15920     15923
     15922     15920     15923     15923     15925     15926     15923     15925     15927
     15924     15923     15925     15925     15927     15928     15925     15927     15929
     15925     15927     15930     15926     15925     15927     15927     15930     15931
     15927     15930     15932     15927     15930     15933     15928     15927     15929
     15928     15927     15930     15929     15927     15930     15930     15933     15934
     15930     15933     15935     15930     15933     15936     15931     15930     15932
     15931     15930     15933     15932     15930     15933     15933     15936     15937
     15933     15936     15938     15933     15936     15939     15934     15933     15935
     15934     15933     15936     15935     15933     15936     15936     15939     15940
     15936     15939     15941     15936     15939     15942     15937     15936     15938
     15937     15936     15939     15938     15936     15939     15939     15942     15943
     15939     15942     15944     15939     15942     15945     15940     15939     15941
     15940     15939     15942     15941     15939     15942     15942     15945     15946
     15942     15945     15947     15942     15945     15948     15943     15942     15944
     15943     15942     15945     15944     15942     15945     15945     15948     15949
     15945     15948     15950     15945     15948     15951     15946     15945     15947
     15946     15945     15948     15947     15945     15948     15949     15948     15950
     15949     15948     15951     15950     15948     15951     15952     15955     15956
     15952     15955     15957     15952     15955     15958     15953     15952     15954
     15953     15952     15955     15954     15952     15955     15955     15958     15959
     15955     15958     15960     15955     15958     15961     15956     15955     15957
     15956     15955     15958     15957     15955     15958     15958     15961     15962
     15958     15961     15963     15958     15961     15964     15959     15958     15960
     15959     15958     15961     15960     15958     15961     15961     15964     15965
     15961     15964     15966     15961     15964     15967     15962     15961     15963
     15962     15961     15964     15963     15961     15964     15964     15967     15968
     15964     15967     15969     15964     15967     15970     15965     15964     15966
     15965     15964     15967     15966     15964     15967     15967     15970     15971
     15967     15970     15972     15967     15970     15973     15968     15967     15969
     15968     15967     15970     15969     15967     15970     15970     15973     15974
     15970     15973     15975     15970     15973     15976     15971     15970     15972
     15971     15970     15973     15972     15970     15973     15973     15976     15977
     15973     15976     15978     15973     15976     15979     15974     15973     15975
     15974     15973     15976     15975     15973     15976     15976     15979     15980
     15976     15979     15981     15976     15979     15982     15977     15976     15978
     15977     15976     15979     15978     15976     15979     15979     15982     15983
     15979     15982     15984     15979     15982     15985     15980     15979     15981
     15980     15979     15982     15981     15979     15982     15982     15985     15986
     15982     15985     15987     15982     15985     15988     15983     15982     15984
     15983     15982     15985     15984     15982     15985     15985     15988     15989
     15985     15988     15990     15985     15988     15991     15986     15985     15987
     15986     15985     15988     15987     15985     15988     15988     15991     15992
     15988     15991     15993     15988     15991     15994     15989     15988     15990
     15989     15988     15991     15990     15988     15991     15992     15991     15993
     15992     15991     15994     15993     15991     15994     15995     15999     16000
     15995     15999     16001     15995     15999     16002     15996     15995     15997
     15996     15995     15998     15996     15995     15999     15997     15995     15998
     15997     15995     15999     15998     15995     15999     15999     16002     16003
     15999     16002     16004     15999     16002     16009     16000     15999     16001
     16000     15999     16002     16001     15999     16002     16002     16009     16005
     16003     16002     16004     16003     16002     16009     16004     16002     16009
     16005     16008     16010     16006     16005     16007     16006     16005     16008
     16006     16005     16009     16007     16005     16008     16007     16005     16009
     16008     16005     16009     16008     16010     16011     16008     16010     16012
     16008     16010     16013     16010     16013     16014     16010     16013     16015
     16010     16013     16021     16011     16010     16012     16011     16010     16013
     16012     16010     16013     16013     16015     16016     16013     16021     16022
     16013     16021     16023     16013     16021     16024     16014     16013     16015
     16014     16013     16021     16015     16013     16021     16015     16016     16017
     16015     16016     16018     16016     16018     16019     16016     16018     16020
     16016     16018     16030     16017     16016     16018     16018     16030     16031
     16018     16030     16032     16018     16030     16033     16019     16018     16020
     16019     16018     16030     16020     16018     16030     16021     16024     16025
     16022     16021     16023     16022     16021     16024     16023     16021     16024
     16024     16025     16026     16024     16025     16027     16025     16027     16028
     16025     16027     16029     16025     16027     16077     16026     16025     16027
     16027     16077     16078     16027     16077     16079     16027     16077     16080
     16028     16027     16029     16028     16027     16077     16029     16027     16077
     16030     16033     16034     16030     16033     16035     16030     16033     16036
     16031     16030     16032     16031     16030     16033     16032     16030     16033
     16033     16036     16037     16033     16036     16038     16033     16036     16039
     16034     16033     16035     16034     16033     16036     16035     16033     16036
     16036     16039     16040     16036     16039     16041     16036     16039     16042
     16037     16036     16038     16037     16036     16039     16038     16036     16039
     16039     16042     16043     16039     16042     16044     16039     16042     16045
     16040     16039     16041     16040     16039     16042     16041     16039     16042
     16042     16045     16046     16042     16045     16047     16042     16045     16048
     16043     16042     16044     16043     16042     16045     16044     16042     16045
     16045     16048     16049     16045     16048     16050     16046     16045     16047
     16046     16045     16048     16047     16045     16048     16048     16050     16051
     16048     16050     16052     16049     16048     16050     16050     16052     16053
     16050     16052     16054     16050     16052     16055     16051     16050     16052
     16052     16055     16056     16052     16055     16057     16052     16055     16058
     16053     16052     16054     16053     16052     16055     16054     16052     16055
     16055     16058     16059     16055     16058     16060     16055     16058     16061
     16056     16055     16057     16056     16055     16058     16057     16055     16058
     16058     16061     16062     16058     16061     16063     16058     16061     16064
     16059     16058     16060     16059     16058     16061     16060     16058     16061
     16061     16064     16065     16061     16064     16066     16061     16064     16067
     16062     16061     16063     16062     16061     16064     16063     16061     16064
     16064     16067     16068     16064     16067     16069     16064     16067     16070
     16065     16064     16066     16065     16064     16067     16066     16064     16067
     16067     16070     16071     16067     16070     16072     16067     16070     16073
     16068     16067     16069     16068     16067     16070     16069     16067     16070
     16070     16073     16074     16070     16073     16075     16070     16073     16076
     16071     16070     16072     16071     16070     16073     16072     16070     16073
     16074     16073     16075     16074     16073     16076     16075     16073     16076
     16077     16080     16081     16077     16080     16082     16077     16080     16083
     16078     16077     16079     16078     16077     16080     16079     16077     16080
     16080     16083     16084     16080     16083     16085     16080     16083     16086
     16081     16080     16082     16081     16080     16083     16082     16080     16083
     16083     16086     16087     16083     16086     16088     16083     16086     16089
     16084     16083     16085     16084     16083     16086     16085     16083     16086
     16086     16089     16090     16086     16089     16091     16086     16089     16092
     16087     16086     16088     16087     16086     16089     16088     16086     16089
     16089     16092     16093     16089     16092     16094     16089     16092     16095
     16090     16089     16091     16090     16089     16092     16091     16089     16092
     16092     16095     16096     16092     16095     16097     16092     16095     16098
     16093     16092     16094     16093     16092     16095     16094     16092     16095
     16095     16098     16099     16095     16098     16100     16095     16098     16101
     16096     16095     16097     16096     16095     16098     16097     16095     16098
     16098     16101     16102     16098     16101     16103     16098     16101     16104
     16099     16098     16100     16099     16098     16101     16100     16098     16101
     16101     16104     16105     16101     16104     16106     16101     16104     16107
     16102     16101     16103     16102     16101     16104     16103     16101     16104
     16104     16107     16108     16104     16107     16109     16104     16107     16110
     16105     16104     16106     16105     16104     16107     16106     16104     16107
     16107     16110     16111     16107     16110     16112     16107     16110     16113
     16108     16107     16109     16108     16107     16110     16109     16107     16110
     16110     16113     16114     16110     16113     16115     16110     16113     16116
     16111     16110     16112     16111     16110     16113     16112     16110     16113
     16113     16116     16117     16113     16116     16118     16113     16116     16119
     16114     16113     16115     16114     16113     16116     16115     16113     16116
     16117     16116     16118     16117     16116     16119     16118     16116     16119
     16120     16121     16122     16120     16121     16123     16120     16121     16136
     16120     16124     16125     16120     16124     16126     16120     16124     16127
     16120     16128     16129     16120     16128     16130     16120     16128     16131
     16120     16132     16133     16120     16132     16134     16120     16132     16135
     16121     16120     16124     16121     16120     16128     16121     16120     16132
     16121     16136     16137     16121     16136     16138     16121     16136     16142
     16122     16121     16123     16122     16121     16136     16123     16121     16136
     16124     16120     16128     16124     16120     16132     16125     16124     16126
     16125     16124     16127     16126     16124     16127     16128     16120     16132
     16129     16128     16130     16129     16128     16131     16130     16128     16131
     16133     16132     16134     16133     16132     16135     16134     16132     16135
     16136     16142     16139     16137     16136     16138     16137     16136     16142
     16138     16136     16142     16139     16143     16144     16140     16139     16141
     16140     16139     16142     16140     16139     16143     16141     16139     16142
     16141     16139     16143     16142     16139     16143     16143     16144     16145
     16143     16144     16146     16143     16144     16147     16144     16147     16148
     16144     16147     16149     16144     16147     16155     16145     16144     16146
     16145     16144     16147     16146     16144     16147     16147     16149     16150
     16147     16155     16156     16147     16155     16157     16147     16155     16158
     16148     16147     16149     16148     16147     16155     16149     16147     16155
     16149     16150     16151     16149     16150     16152     16150     16152     16153
     16150     16152     16154     16150     16152     16164     16151     16150     16152
     16152     16164     16165     16152     16164     16166     16152     16164     16167
     16153     16152     16154     16153     16152     16164     16154     16152     16164
     16155     16158     16159     16156     16155     16157     16156     16155     16158
     16157     16155     16158     16158     16159     16160     16158     16159     16161
     16159     16161     16162     16159     16161     16163     16159     16161     16211
     16160     16159     16161     16161     16211     16212     16161     16211     16213
     16161     16211     16214     16162     16161     16163     16162     16161     16211
     16163     16161     16211     16164     16167     16168     16164     16167     16169
     16164     16167     16170     16165     16164     16166     16165     16164     16167
     16166     16164     16167     16167     16170     16171     16167     16170     16172
     16167     16170     16173     16168     16167     16169     16168     16167     16170
     16169     16167     16170     16170     16173     16174     16170     16173     16175
     16170     16173     16176     16171     16170     16172     16171     16170     16173
     16172     16170     16173     16173     16176     16177     16173     16176     16178
     16173     16176     16179     16174     16173     16175     16174     16173     16176
     16175     16173     16176     16176     16179     16180     16176     16179     16181
     16176     16179     16182     16177     16176     16178     16177     16176     16179
     16178     16176     16179     16179     16182     16183     16179     16182     16184
     16180     16179     16181     16180     16179     16182     16181     16179     16182
     16182     16184     16185     16182     16184     16186     16183     16182     16184
     16184     16186     16187     16184     16186     16188     16184     16186     16189
     16185     16184     16186     16186     16189     16190     16186     16189     16191
     16186     16189     16192     16187     16186     16188     16187     16186     16189
     16188     16186     16189     16189     16192     16193     16189     16192     16194
     16189     16192     16195     16190     16189     16191     16190     16189     16192
     16191     16189     16192     16192     16195     16196     16192     16195     16197
     16192     16195     16198     16193     16192     16194     16193     16192     16195
     16194     16192     16195     16195     16198     16199     16195     16198     16200
     16195     16198     16201     16196     16195     16197     16196     16195     16198
     16197     16195     16198     16198     16201     16202     16198     16201     16203
     16198     16201     16204     16199     16198     16200     16199     16198     16201
     16200     16198     16201     16201     16204     16205     16201     16204     16206
     16201     16204     16207     16202     16201     16203     16202     16201     16204
     16203     16201     16204     16204     16207     16208     16204     16207     16209
     16204     16207     16210     16205     16204     16206     16205     16204     16207
     16206     16204     16207     16208     16207     16209     16208     16207     16210
     16209     16207     16210     16211     16214     16215     16211     16214     16216
     16211     16214     16217     16212     16211     16213     16212     16211     16214
     16213     16211     16214     16214     16217     16218     16214     16217     16219
     16214     16217     16220     16215     16214     16216     16215     16214     16217
     16216     16214     16217     16217     16220     16221     16217     16220     16222
     16217     16220     16223     16218     16217     16219     16218     16217     16220
     16219     16217     16220     16220     16223     16224     16220     16223     16225
     16220     16223     16226     16221     16220     16222     16221     16220     16223
     16222     16220     16223     16223     16226     16227     16223     16226     16228
     16223     16226     16229     16224     16223     16225     16224     16223     16226
     16225     16223     16226     16226     16229     16230     16226     16229     16231
     16226     16229     16232     16227     16226     16228     16227     16226     16229
     16228     16226     16229     16229     16232     16233     16229     16232     16234
     16229     16232     16235     16230     16229     16231     16230     16229     16232
     16231     16229     16232     16232     16235     16236     16232     16235     16237
     16232     16235     16238     16233     16232     16234     16233     16232     16235
     16234     16232     16235     16235     16238     16239     16235     16238     16240
     16235     16238     16241     16236     16235     16237     16236     16235     16238
     16237     16235     16238     16238     16241     16242     16238     16241     16243
     16238     16241     16244     16239     16238     16240     16239     16238     16241
     16240     16238     16241     16241     16244     16245     16241     16244     16246
     16241     16244     16247     16242     16241     16243     16242     16241     16244
     16243     16241     16244     16244     16247     16248     16244     16247     16249
     16244     16247     16250     16245     16244     16246     16245     16244     16247
     16246     16244     16247     16247     16250     16251     16247     16250     16252
     16247     16250     16253     16248     16247     16249     16248     16247     16250
     16249     16247     16250     16251     16250     16252     16251     16250     16253
     16252     16250     16253     16254     16255     16256     16254     16255     16257
     16254     16255     16270     16254     16258     16259     16254     16258     16260
     16254     16258     16261     16254     16262     16263     16254     16262     16264
     16254     16262     16265     16254     16266     16267     16254     16266     16268
     16254     16266     16269     16255     16254     16258     16255     16254     16262
     16255     16254     16266     16255     16270     16271     16255     16270     16272
     16255     16270     16276     16256     16255     16257     16256     16255     16270
     16257     16255     16270     16258     16254     16262     16258     16254     16266
     16259     16258     16260     16259     16258     16261     16260     16258     16261
     16262     16254     16266     16263     16262     16264     16263     16262     16265
     16264     16262     16265     16267     16266     16268     16267     16266     16269
     16268     16266     16269     16270     16276     16273     16271     16270     16272
     16271     16270     16276     16272     16270     16276     16273     16277     16278
     16274     16273     16275     16274     16273     16276     16274     16273     16277
     16275     16273     16276     16275     16273     16277     16276     16273     16277
     16277     16278     16279     16277     16278     16280     16277     16278     16281
     16278     16281     16282     16278     16281     16283     16278     16281     16289
     16279     16278     16280     16279     16278     16281     16280     16278     16281
     16281     16283     16284     16281     16289     16290     16281     16289     16291
     16281     16289     16292     16282     16281     16283     16282     16281     16289
     16283     16281     16289     16283     16284     16285     16283     16284     16286
     16284     16286     16287     16284     16286     16288     16284     16286     16298
     16285     16284     16286     16286     16298     16299     16286     16298     16300
     16286     16298     16301     16287     16286     16288     16287     16286     16298
     16288     16286     16298     16289     16292     16293     16290     16289     16291
     16290     16289     16292     16291     16289     16292     16292     16293     16294
     16292     16293     16295     16293     16295     16296     16293     16295     16297
     16293     16295     16345     16294     16293     16295     16295     16345     16346
     16295     16345     16347     16295     16345     16348     16296     16295     16297
     16296     16295     16345     16297     16295     16345     16298     16301     16302
     16298     16301     16303     16298     16301     16304     16299     16298     16300
     16299     16298     16301     16300     16298     16301     16301     16304     16305
     16301     16304     16306     16301     16304     16307     16302     16301     16303
     16302     16301     16304     16303     16301     16304     16304     16307     16308
     16304     16307     16309     16304     16307     16310     16305     16304     16306
     16305     16304     16307     16306     16304     16307     16307     16310     16311
     16307     16310     16312     16307     16310     16313     16308     16307     16309
     16308     16307     16310     16309     16307     16310     16310     16313     16314
     16310     16313     16315     16310     16313     16316     16311     16310     16312
     16311     16310     16313     16312     16310     16313     16313     16316     16317
     16313     16316     16318     16314     16313     16315     16314     16313     16316
     16315     16313     16316     16316     16318     16319     16316     16318     16320
     16317     16316     16318     16318     16320     16321     16318     16320     16322
     16318     16320     16323     16319     16318     16320     16320     16323     16324
     16320     16323     16325     16320     16323     16326     16321     16320     16322
     16321     16320     16323     16322     16320     16323     16323     16326     16327
     16323     16326     16328     16323     16326     16329     16324     16323     16325
     16324     16323     16326     16325     16323     16326     16326     16329     16330
     16326     16329     16331     16326     16329     16332     16327     16326     16328
     16327     16326     16329     16328     16326     16329     16329     16332     16333
     16329     16332     16334     16329     16332     16335     16330     16329     16331
     16330     16329     16332     16331     16329     16332     16332     16335     16336
     16332     16335     16337     16332     16335     16338     16333     16332     16334
     16333     16332     16335     16334     16332     16335     16335     16338     16339
     16335     16338     16340     16335     16338     16341     16336     16335     16337
     16336     16335     16338     16337     16335     16338     16338     16341     16342
     16338     16341     16343     16338     16341     16344     16339     16338     16340
     16339     16338     16341     16340     16338     16341     16342     16341     16343
     16342     16341     16344     16343     16341     16344     16345     16348     16349
     16345     16348     16350     16345     16348     16351     16346     16345     16347
     16346     16345     16348     16347     16345     16348     16348     16351     16352
     16348     16351     16353     16348     16351     16354     16349     16348     16350
     16349     16348     16351     16350     16348     16351     16351     16354     16355
     16351     16354     16356     16351     16354     16357     16352     16351     16353
     16352     16351     16354     16353     16351     16354     16354     16357     16358
     16354     16357     16359     16354     16357     16360     16355     16354     16356
     16355     16354     16357     16356     16354     16357     16357     16360     16361
     16357     16360     16362     16357     16360     16363     16358     16357     16359
     16358     16357     16360     16359     16357     16360     16360     16363     16364
     16360     16363     16365     16360     16363     16366     16361     16360     16362
     16361     16360     16363     16362     16360     16363     16363     16366     16367
     16363     16366     16368     16363     16366     16369     16364     16363     16365
     16364     16363     16366     16365     16363     16366     16366     16369     16370
     16366     16369     16371     16366     16369     16372     16367     16366     16368
     16367     16366     16369     16368     16366     16369     16369     16372     16373
     16369     16372     16374     16369     16372     16375     16370     16369     16371
     16370     16369     16372     16371     16369     16372     16372     16375     16376
     16372     16375     16377     16372     16375     16378     16373     16372     16374
     16373     16372     16375     16374     16372     16375     16375     16378     16379
     16375     16378     16380     16375     16378     16381     16376     16375     16377
     16376     16375     16378     16377     16375     16378     16378     16381     16382
     16378     16381     16383     16378     16381     16384     16379     16378     16380
     16379     16378     16381     16380     16378     16381     16381     16384     16385
     16381     16384     16386     16381     16384     16387     16382     16381     16383
     16382     16381     16384     16383     16381     16384     16385     16384     16386
     16385     16384     16387     16386     16384     16387     16388     16392     16393
     16388     16392     16394     16388     16392     16395     16389     16388     16390
     16389     16388     16391     16389     16388     16392     16390     16388     16391
     16390     16388     16392     16391     16388     16392     16392     16395     16396
     16392     16395     16397     16392     16395     16402     16393     16392     16394
     16393     16392     16395     16394     16392     16395     16395     16402     16398
     16396     16395     16397     16396     16395     16402     16397     16395     16402
     16398     16401     16403     16399     16398     16400     16399     16398     16401
     16399     16398     16402     16400     16398     16401     16400     16398     16402
     16401     16398     16402     16401     16403     16404     16401     16403     16405
     16401     16403     16406     16403     16406     16407     16403     16406     16408
     16403     16406     16414     16404     16403     16405     16404     16403     16406
     16405     16403     16406     16406     16408     16409     16406     16414     16415
     16406     16414     16416     16406     16414     16417     16407     16406     16408
     16407     16406     16414     16408     16406     16414     16408     16409     16410
     16408     16409     16411     16409     16411     16412     16409     16411     16413
     16409     16411     16423     16410     16409     16411     16411     16423     16424
     16411     16423     16425     16411     16423     16426     16412     16411     16413
     16412     16411     16423     16413     16411     16423     16414     16417     16418
     16415     16414     16416     16415     16414     16417     16416     16414     16417
     16417     16418     16419     16417     16418     16420     16418     16420     16421
     16418     16420     16422     16418     16420     16470     16419     16418     16420
     16420     16470     16471     16420     16470     16472     16420     16470     16473
     16421     16420     16422     16421     16420     16470     16422     16420     16470
     16423     16426     16427     16423     16426     16428     16423     16426     16429
     16424     16423     16425     16424     16423     16426     16425     16423     16426
     16426     16429     16430     16426     16429     16431     16426     16429     16432
     16427     16426     16428     16427     16426     16429     16428     16426     16429
     16429     16432     16433     16429     16432     16434     16429     16432     16435
     16430     16429     16431     16430     16429     16432     16431     16429     16432
     16432     16435     16436     16432     16435     16437     16432     16435     16438
     16433     16432     16434     16433     16432     16435     16434     16432     16435
     16435     16438     16439     16435     16438     16440     16435     16438     16441
     16436     16435     16437     16436     16435     16438     16437     16435     16438
     16438     16441     16442     16438     16441     16443     16439     16438     16440
     16439     16438     16441     16440     16438     16441     16441     16443     16444
     16441     16443     16445     16442     16441     16443     16443     16445     16446
     16443     16445     16447     16443     16445     16448     16444     16443     16445
     16445     16448     16449     16445     16448     16450     16445     16448     16451
     16446     16445     16447     16446     16445     16448     16447     16445     16448
     16448     16451     16452     16448     16451     16453     16448     16451     16454
     16449     16448     16450     16449     16448     16451     16450     16448     16451
     16451     16454     16455     16451     16454     16456     16451     16454     16457
     16452     16451     16453     16452     16451     16454     16453     16451     16454
     16454     16457     16458     16454     16457     16459     16454     16457     16460
     16455     16454     16456     16455     16454     16457     16456     16454     16457
     16457     16460     16461     16457     16460     16462     16457     16460     16463
     16458     16457     16459     16458     16457     16460     16459     16457     16460
     16460     16463     16464     16460     16463     16465     16460     16463     16466
     16461     16460     16462     16461     16460     16463     16462     16460     16463
     16463     16466     16467     16463     16466     16468     16463     16466     16469
     16464     16463     16465     16464     16463     16466     16465     16463     16466
     16467     16466     16468     16467     16466     16469     16468     16466     16469
     16470     16473     16474     16470     16473     16475     16470     16473     16476
     16471     16470     16472     16471     16470     16473     16472     16470     16473
     16473     16476     16477     16473     16476     16478     16473     16476     16479
     16474     16473     16475     16474     16473     16476     16475     16473     16476
     16476     16479     16480     16476     16479     16481     16476     16479     16482
     16477     16476     16478     16477     16476     16479     16478     16476     16479
     16479     16482     16483     16479     16482     16484     16479     16482     16485
     16480     16479     16481     16480     16479     16482     16481     16479     16482
     16482     16485     16486     16482     16485     16487     16482     16485     16488
     16483     16482     16484     16483     16482     16485     16484     16482     16485
     16485     16488     16489     16485     16488     16490     16485     16488     16491
     16486     16485     16487     16486     16485     16488     16487     16485     16488
     16488     16491     16492     16488     16491     16493     16488     16491     16494
     16489     16488     16490     16489     16488     16491     16490     16488     16491
     16491     16494     16495     16491     16494     16496     16491     16494     16497
     16492     16491     16493     16492     16491     16494     16493     16491     16494
     16494     16497     16498     16494     16497     16499     16494     16497     16500
     16495     16494     16496     16495     16494     16497     16496     16494     16497
     16497     16500     16501     16497     16500     16502     16497     16500     16503
     16498     16497     16499     16498     16497     16500     16499     16497     16500
     16500     16503     16504     16500     16503     16505     16500     16503     16506
     16501     16500     16502     16501     16500     16503     16502     16500     16503
     16503     16506     16507     16503     16506     16508     16503     16506     16509
     16504     16503     16505     16504     16503     16506     16505     16503     16506
     16506     16509     16510     16506     16509     16511     16506     16509     16512
     16507     16506     16508     16507     16506     16509     16508     16506     16509
     16510     16509     16511     16510     16509     16512     16511     16509     16512
     16513     16514     16515     16513     16514     16516     16513     16514     16529
     16513     16517     16518     16513     16517     16519     16513     16517     16520
     16513     16521     16522     16513     16521     16523     16513     16521     16524
     16513     16525     16526     16513     16525     16527     16513     16525     16528
     16514     16513     16517     16514     16513     16521     16514     16513     16525
     16514     16529     16530     16514     16529     16531     16514     16529     16535
     16515     16514     16516     16515     16514     16529     16516     16514     16529
     16517     16513     16521     16517     16513     16525     16518     16517     16519
     16518     16517     16520     16519     16517     16520     16521     16513     16525
     16522     16521     16523     16522     16521     16524     16523     16521     16524
     16526     16525     16527     16526     16525     16528     16527     16525     16528
     16529     16535     16532     16530     16529     16531     16530     16529     16535
     16531     16529     16535     16532     16536     16537     16533     16532     16534
     16533     16532     16535     16533     16532     16536     16534     16532     16535
     16534     16532     16536     16535     16532     16536     16536     16537     16538
     16536     16537     16539     16536     16537     16540     16537     16540     16541
     16537     16540     16542     16537     16540     16548     16538     16537     16539
     16538     16537     16540     16539     16537     16540     16540     16542     16543
     16540     16548     16549     16540     16548     16550     16540     16548     16551
     16541     16540     16542     16541     16540     16548     16542     16540     16548
     16542     16543     16544     16542     16543     16545     16543     16545     16546
     16543     16545     16547     16543     16545     16557     16544     16543     16545
     16545     16557     16558     16545     16557     16559     16545     16557     16560
     16546     16545     16547     16546     16545     16557     16547     16545     16557
     16548     16551     16552     16549     16548     16550     16549     16548     16551
     16550     16548     16551     16551     16552     16553     16551     16552     16554
     16552     16554     16555     16552     16554     16556     16552     16554     16604
     16553     16552     16554     16554     16604     16605     16554     16604     16606
     16554     16604     16607     16555     16554     16556     16555     16554     16604
     16556     16554     16604     16557     16560     16561     16557     16560     16562
     16557     16560     16563     16558     16557     16559     16558     16557     16560
     16559     16557     16560     16560     16563     16564     16560     16563     16565
     16560     16563     16566     16561     16560     16562     16561     16560     16563
     16562     16560     16563     16563     16566     16567     16563     16566     16568
     16563     16566     16569     16564     16563     16565     16564     16563     16566
     16565     16563     16566     16566     16569     16570     16566     16569     16571
     16566     16569     16572     16567     16566     16568     16567     16566     16569
     16568     16566     16569     16569     16572     16573     16569     16572     16574
     16569     16572     16575     16570     16569     16571     16570     16569     16572
     16571     16569     16572     16572     16575     16576     16572     16575     16577
     16573     16572     16574     16573     16572     16575     16574     16572     16575
     16575     16577     16578     16575     16577     16579     16576     16575     16577
     16577     16579     16580     16577     16579     16581     16577     16579     16582
     16578     16577     16579     16579     16582     16583     16579     16582     16584
     16579     16582     16585     16580     16579     16581     16580     16579     16582
     16581     16579     16582     16582     16585     16586     16582     16585     16587
     16582     16585     16588     16583     16582     16584     16583     16582     16585
     16584     16582     16585     16585     16588     16589     16585     16588     16590
     16585     16588     16591     16586     16585     16587     16586     16585     16588
     16587     16585     16588     16588     16591     16592     16588     16591     16593
     16588     16591     16594     16589     16588     16590     16589     16588     16591
     16590     16588     16591     16591     16594     16595     16591     16594     16596
     16591     16594     16597     16592     16591     16593     16592     16591     16594
     16593     16591     16594     16594     16597     16598     16594     16597     16599
     16594     16597     16600     16595     16594     16596     16595     16594     16597
     16596     16594     16597     16597     16600     16601     16597     16600     16602
     16597     16600     16603     16598     16597     16599     16598     16597     16600
     16599     16597     16600     16601     16600     16602     16601     16600     16603
     16602     16600     16603     16604     16607     16608     16604     16607     16609
     16604     16607     16610     16605     16604     16606     16605     16604     16607
     16606     16604     16607     16607     16610     16611     16607     16610     16612
     16607     16610     16613     16608     16607     16609     16608     16607     16610
     16609     16607     16610     16610     16613     16614     16610     16613     16615
     16610     16613     16616     16611     16610     16612     16611     16610     16613
     16612     16610     16613     16613     16616     16617     16613     16616     16618
     16613     16616     16619     16614     16613     16615     16614     16613     16616
     16615     16613     16616     16616     16619     16620     16616     16619     16621
     16616     16619     16622     16617     16616     16618     16617     16616     16619
     16618     16616     16619     16619     16622     16623     16619     16622     16624
     16619     16622     16625     16620     16619     16621     16620     16619     16622
     16621     16619     16622     16622     16625     16626     16622     16625     16627
     16622     16625     16628     16623     16622     16624     16623     16622     16625
     16624     16622     16625     16625     16628     16629     16625     16628     16630
     16625     16628     16631     16626     16625     16627     16626     16625     16628
     16627     16625     16628     16628     16631     16632     16628     16631     16633
     16628     16631     16634     16629     16628     16630     16629     16628     16631
     16630     16628     16631     16631     16634     16635     16631     16634     16636
     16631     16634     16637     16632     16631     16633     16632     16631     16634
     16633     16631     16634     16634     16637     16638     16634     16637     16639
     16634     16637     16640     16635     16634     16636     16635     16634     16637
     16636     16634     16637     16637     16640     16641     16637     16640     16642
     16637     16640     16643     16638     16637     16639     16638     16637     16640
     16639     16637     16640     16640     16643     16644     16640     16643     16645
     16640     16643     16646     16641     16640     16642     16641     16640     16643
     16642     16640     16643     16644     16643     16645     16644     16643     16646
     16645     16643     16646     16647     16648     16649     16647     16648     16650
     16647     16648     16663     16647     16651     16652     16647     16651     16653
     16647     16651     16654     16647     16655     16656     16647     16655     16657
     16647     16655     16658     16647     16659     16660     16647     16659     16661
     16647     16659     16662     16648     16647     16651     16648     16647     16655
     16648     16647     16659     16648     16663     16664     16648     16663     16665
     16648     16663     16669     16649     16648     16650     16649     16648     16663
     16650     16648     16663     16651     16647     16655     16651     16647     16659
     16652     16651     16653     16652     16651     16654     16653     16651     16654
     16655     16647     16659     16656     16655     16657     16656     16655     16658
     16657     16655     16658     16660     16659     16661     16660     16659     16662
     16661     16659     16662     16663     16669     16666     16664     16663     16665
     16664     16663     16669     16665     16663     16669     16666     16670     16671
     16667     16666     16668     16667     16666     16669     16667     16666     16670
     16668     16666     16669     16668     16666     16670     16669     16666     16670
     16670     16671     16672     16670     16671     16673     16670     16671     16674
     16671     16674     16675     16671     16674     16676     16671     16674     16682
     16672     16671     16673     16672     16671     16674     16673     16671     16674
     16674     16676     16677     16674     16682     16683     16674     16682     16684
     16674     16682     16685     16675     16674     16676     16675     16674     16682
     16676     16674     16682     16676     16677     16678     16676     16677     16679
     16677     16679     16680     16677     16679     16681     16677     16679     16691
     16678     16677     16679     16679     16691     16692     16679     16691     16693
     16679     16691     16694     16680     16679     16681     16680     16679     16691
     16681     16679     16691     16682     16685     16686     16683     16682     16684
     16683     16682     16685     16684     16682     16685     16685     16686     16687
     16685     16686     16688     16686     16688     16689     16686     16688     16690
     16686     16688     16738     16687     16686     16688     16688     16738     16739
     16688     16738     16740     16688     16738     16741     16689     16688     16690
     16689     16688     16738     16690     16688     16738     16691     16694     16695
     16691     16694     16696     16691     16694     16697     16692     16691     16693
     16692     16691     16694     16693     16691     16694     16694     16697     16698
     16694     16697     16699     16694     16697     16700     16695     16694     16696
     16695     16694     16697     16696     16694     16697     16697     16700     16701
     16697     16700     16702     16697     16700     16703     16698     16697     16699
     16698     16697     16700     16699     16697     16700     16700     16703     16704
     16700     16703     16705     16700     16703     16706     16701     16700     16702
     16701     16700     16703     16702     16700     16703     16703     16706     16707
     16703     16706     16708     16703     16706     16709     16704     16703     16705
     16704     16703     16706     16705     16703     16706     16706     16709     16710
     16706     16709     16711     16707     16706     16708     16707     16706     16709
     16708     16706     16709     16709     16711     16712     16709     16711     16713
     16710     16709     16711     16711     16713     16714     16711     16713     16715
     16711     16713     16716     16712     16711     16713     16713     16716     16717
     16713     16716     16718     16713     16716     16719     16714     16713     16715
     16714     16713     16716     16715     16713     16716     16716     16719     16720
     16716     16719     16721     16716     16719     16722     16717     16716     16718
     16717     16716     16719     16718     16716     16719     16719     16722     16723
     16719     16722     16724     16719     16722     16725     16720     16719     16721
     16720     16719     16722     16721     16719     16722     16722     16725     16726
     16722     16725     16727     16722     16725     16728     16723     16722     16724
     16723     16722     16725     16724     16722     16725     16725     16728     16729
     16725     16728     16730     16725     16728     16731     16726     16725     16727
     16726     16725     16728     16727     16725     16728     16728     16731     16732
     16728     16731     16733     16728     16731     16734     16729     16728     16730
     16729     16728     16731     16730     16728     16731     16731     16734     16735
     16731     16734     16736     16731     16734     16737     16732     16731     16733
     16732     16731     16734     16733     16731     16734     16735     16734     16736
     16735     16734     16737     16736     16734     16737     16738     16741     16742
     16738     16741     16743     16738     16741     16744     16739     16738     16740
     16739     16738     16741     16740     16738     16741     16741     16744     16745
     16741     16744     16746     16741     16744     16747     16742     16741     16743
     16742     16741     16744     16743     16741     16744     16744     16747     16748
     16744     16747     16749     16744     16747     16750     16745     16744     16746
     16745     16744     16747     16746     16744     16747     16747     16750     16751
     16747     16750     16752     16747     16750     16753     16748     16747     16749
     16748     16747     16750     16749     16747     16750     16750     16753     16754
     16750     16753     16755     16750     16753     16756     16751     16750     16752
     16751     16750     16753     16752     16750     16753     16753     16756     16757
     16753     16756     16758     16753     16756     16759     16754     16753     16755
     16754     16753     16756     16755     16753     16756     16756     16759     16760
     16756     16759     16761     16756     16759     16762     16757     16756     16758
     16757     16756     16759     16758     16756     16759     16759     16762     16763
     16759     16762     16764     16759     16762     16765     16760     16759     16761
     16760     16759     16762     16761     16759     16762     16762     16765     16766
     16762     16765     16767     16762     16765     16768     16763     16762     16764
     16763     16762     16765     16764     16762     16765     16765     16768     16769
     16765     16768     16770     16765     16768     16771     16766     16765     16767
     16766     16765     16768     16767     16765     16768     16768     16771     16772
     16768     16771     16773     16768     16771     16774     16769     16768     16770
     16769     16768     16771     16770     16768     16771     16771     16774     16775
     16771     16774     16776     16771     16774     16777     16772     16771     16773
     16772     16771     16774     16773     16771     16774     16774     16777     16778
     16774     16777     16779     16774     16777     16780     16775     16774     16776
     16775     16774     16777     16776     16774     16777     16778     16777     16779
     16778     16777     16780     16779     16777     16780     16781     16782     16783
     16781     16782     16784     16781     16782     16797     16781     16785     16786
     16781     16785     16787     16781     16785     16788     16781     16789     16790
     16781     16789     16791     16781     16789     16792     16781     16793     16794
     16781     16793     16795     16781     16793     16796     16782     16781     16785
     16782     16781     16789     16782     16781     16793     16782     16797     16798
     16782     16797     16799     16782     16797     16803     16783     16782     16784
     16783     16782     16797     16784     16782     16797     16785     16781     16789
     16785     16781     16793     16786     16785     16787     16786     16785     16788
     16787     16785     16788     16789     16781     16793     16790     16789     16791
     16790     16789     16792     16791     16789     16792     16794     16793     16795
     16794     16793     16796     16795     16793     16796     16797     16803     16800
     16798     16797     16799     16798     16797     16803     16799     16797     16803
     16800     16804     16805     16801     16800     16802     16801     16800     16803
     16801     16800     16804     16802     16800     16803     16802     16800     16804
     16803     16800     16804     16804     16805     16806     16804     16805     16807
     16804     16805     16808     16805     16808     16809     16805     16808     16810
     16805     16808     16816     16806     16805     16807     16806     16805     16808
     16807     16805     16808     16808     16810     16811     16808     16816     16817
     16808     16816     16818     16808     16816     16819     16809     16808     16810
     16809     16808     16816     16810     16808     16816     16810     16811     16812
     16810     16811     16813     16811     16813     16814     16811     16813     16815
     16811     16813     16825     16812     16811     16813     16813     16825     16826
     16813     16825     16827     16813     16825     16828     16814     16813     16815
     16814     16813     16825     16815     16813     16825     16816     16819     16820
     16817     16816     16818     16817     16816     16819     16818     16816     16819
     16819     16820     16821     16819     16820     16822     16820     16822     16823
     16820     16822     16824     16820     16822     16872     16821     16820     16822
     16822     16872     16873     16822     16872     16874     16822     16872     16875
     16823     16822     16824     16823     16822     16872     16824     16822     16872
     16825     16828     16829     16825     16828     16830     16825     16828     16831
     16826     16825     16827     16826     16825     16828     16827     16825     16828
     16828     16831     16832     16828     16831     16833     16828     16831     16834
     16829     16828     16830     16829     16828     16831     16830     16828     16831
     16831     16834     16835     16831     16834     16836     16831     16834     16837
     16832     16831     16833     16832     16831     16834     16833     16831     16834
     16834     16837     16838     16834     16837     16839     16834     16837     16840
     16835     16834     16836     16835     16834     16837     16836     16834     16837
     16837     16840     16841     16837     16840     16842     16837     16840     16843
     16838     16837     16839     16838     16837     16840     16839     16837     16840
     16840     16843     16844     16840     16843     16845     16841     16840     16842
     16841     16840     16843     16842     16840     16843     16843     16845     16846
     16843     16845     16847     16844     16843     16845     16845     16847     16848
     16845     16847     16849     16845     16847     16850     16846     16845     16847
     16847     16850     16851     16847     16850     16852     16847     16850     16853
     16848     16847     16849     16848     16847     16850     16849     16847     16850
     16850     16853     16854     16850     16853     16855     16850     16853     16856
     16851     16850     16852     16851     16850     16853     16852     16850     16853
     16853     16856     16857     16853     16856     16858     16853     16856     16859
     16854     16853     16855     16854     16853     16856     16855     16853     16856
     16856     16859     16860     16856     16859     16861     16856     16859     16862
     16857     16856     16858     16857     16856     16859     16858     16856     16859
     16859     16862     16863     16859     16862     16864     16859     16862     16865
     16860     16859     16861     16860     16859     16862     16861     16859     16862
     16862     16865     16866     16862     16865     16867     16862     16865     16868
     16863     16862     16864     16863     16862     16865     16864     16862     16865
     16865     16868     16869     16865     16868     16870     16865     16868     16871
     16866     16865     16867     16866     16865     16868     16867     16865     16868
     16869     16868     16870     16869     16868     16871     16870     16868     16871
     16872     16875     16876     16872     16875     16877     16872     16875     16878
     16873     16872     16874     16873     16872     16875     16874     16872     16875
     16875     16878     16879     16875     16878     16880     16875     16878     16881
     16876     16875     16877     16876     16875     16878     16877     16875     16878
     16878     16881     16882     16878     16881     16883     16878     16881     16884
     16879     16878     16880     16879     16878     16881     16880     16878     16881
     16881     16884     16885     16881     16884     16886     16881     16884     16887
     16882     16881     16883     16882     16881     16884     16883     16881     16884
     16884     16887     16888     16884     16887     16889     16884     16887     16890
     16885     16884     16886     16885     16884     16887     16886     16884     16887
     16887     16890     16891     16887     16890     16892     16887     16890     16893
     16888     16887     16889     16888     16887     16890     16889     16887     16890
     16890     16893     16894     16890     16893     16895     16890     16893     16896
     16891     16890     16892     16891     16890     16893     16892     16890     16893
     16893     16896     16897     16893     16896     16898     16893     16896     16899
     16894     16893     16895     16894     16893     16896     16895     16893     16896
     16896     16899     16900     16896     16899     16901     16896     16899     16902
     16897     16896     16898     16897     16896     16899     16898     16896     16899
     16899     16902     16903     16899     16902     16904     16899     16902     16905
     16900     16899     16901     16900     16899     16902     16901     16899     16902
     16902     16905     16906     16902     16905     16907     16902     16905     16908
     16903     16902     16904     16903     16902     16905     16904     16902     16905
     16905     16908     16909     16905     16908     16910     16905     16908     16911
     16906     16905     16907     16906     16905     16908     16907     16905     16908
     16908     16911     16912     16908     16911     16913     16908     16911     16914
     16909     16908     16910     16909     16908     16911     16910     16908     16911
     16912     16911     16913     16912     16911     16914     16913     16911     16914
     16915     16916     16917     16915     16916     16918     16915     16916     16931
     16915     16919     16920     16915     16919     16921     16915     16919     16922
     16915     16923     16924     16915     16923     16925     16915     16923     16926
     16915     16927     16928     16915     16927     16929     16915     16927     16930
     16916     16915     16919     16916     16915     16923     16916     16915     16927
     16916     16931     16932     16916     16931     16933     16916     16931     16937
     16917     16916     16918     16917     16916     16931     16918     16916     16931
     16919     16915     16923     16919     16915     16927     16920     16919     16921
     16920     16919     16922     16921     16919     16922     16923     16915     16927
     16924     16923     16925     16924     16923     16926     16925     16923     16926
     16928     16927     16929     16928     16927     16930     16929     16927     16930
     16931     16937     16934     16932     16931     16933     16932     16931     16937
     16933     16931     16937     16934     16938     16939     16935     16934     16936
     16935     16934     16937     16935     16934     16938     16936     16934     16937
     16936     16934     16938     16937     16934     16938     16938     16939     16940
     16938     16939     16941     16938     16939     16942     16939     16942     16943
     16939     16942     16944     16939     16942     16950     16940     16939     16941
     16940     16939     16942     16941     16939     16942     16942     16944     16945
     16942     16950     16951     16942     16950     16952     16942     16950     16953
     16943     16942     16944     16943     16942     16950     16944     16942     16950
     16944     16945     16946     16944     16945     16947     16945     16947     16948
     16945     16947     16949     16945     16947     16959     16946     16945     16947
     16947     16959     16960     16947     16959     16961     16947     16959     16962
     16948     16947     16949     16948     16947     16959     16949     16947     16959
     16950     16953     16954     16951     16950     16952     16951     16950     16953
     16952     16950     16953     16953     16954     16955     16953     16954     16956
     16954     16956     16957     16954     16956     16958     16954     16956     17006
     16955     16954     16956     16956     17006     17007     16956     17006     17008
     16956     17006     17009     16957     16956     16958     16957     16956     17006
     16958     16956     17006     16959     16962     16963     16959     16962     16964
     16959     16962     16965     16960     16959     16961     16960     16959     16962
     16961     16959     16962     16962     16965     16966     16962     16965     16967
     16962     16965     16968     16963     16962     16964     16963     16962     16965
     16964     16962     16965     16965     16968     16969     16965     16968     16970
     16965     16968     16971     16966     16965     16967     16966     16965     16968
     16967     16965     16968     16968     16971     16972     16968     16971     16973
     16968     16971     16974     16969     16968     16970     16969     16968     16971
     16970     16968     16971     16971     16974     16975     16971     16974     16976
     16971     16974     16977     16972     16971     16973     16972     16971     16974
     16973     16971     16974     16974     16977     16978     16974     16977     16979
     16975     16974     16976     16975     16974     16977     16976     16974     16977
     16977     16979     16980     16977     16979     16981     16978     16977     16979
     16979     16981     16982     16979     16981     16983     16979     16981     16984
     16980     16979     16981     16981     16984     16985     16981     16984     16986
     16981     16984     16987     16982     16981     16983     16982     16981     16984
     16983     16981     16984     16984     16987     16988     16984     16987     16989
     16984     16987     16990     16985     16984     16986     16985     16984     16987
     16986     16984     16987     16987     16990     16991     16987     16990     16992
     16987     16990     16993     16988     16987     16989     16988     16987     16990
     16989     16987     16990     16990     16993     16994     16990     16993     16995
     16990     16993     16996     16991     16990     16992     16991     16990     16993
     16992     16990     16993     16993     16996     16997     16993     16996     16998
     16993     16996     16999     16994     16993     16995     16994     16993     16996
     16995     16993     16996     16996     16999     17000     16996     16999     17001
     16996     16999     17002     16997     16996     16998     16997     16996     16999
     16998     16996     16999     16999     17002     17003     16999     17002     17004
     16999     17002     17005     17000     16999     17001     17000     16999     17002
     17001     16999     17002     17003     17002     17004     17003     17002     17005
     17004     17002     17005     17006     17009     17010     17006     17009     17011
     17006     17009     17012     17007     17006     17008     17007     17006     17009
     17008     17006     17009     17009     17012     17013     17009     17012     17014
     17009     17012     17015     17010     17009     17011     17010     17009     17012
     17011     17009     17012     17012     17015     17016     17012     17015     17017
     17012     17015     17018     17013     17012     17014     17013     17012     17015
     17014     17012     17015     17015     17018     17019     17015     17018     17020
     17015     17018     17021     17016     17015     17017     17016     17015     17018
     17017     17015     17018     17018     17021     17022     17018     17021     17023
     17018     17021     17024     17019     17018     17020     17019     17018     17021
     17020     17018     17021     17021     17024     17025     17021     17024     17026
     17021     17024     17027     17022     17021     17023     17022     17021     17024
     17023     17021     17024     17024     17027     17028     17024     17027     17029
     17024     17027     17030     17025     17024     17026     17025     17024     17027
     17026     17024     17027     17027     17030     17031     17027     17030     17032
     17027     17030     17033     17028     17027     17029     17028     17027     17030
     17029     17027     17030     17030     17033     17034     17030     17033     17035
     17030     17033     17036     17031     17030     17032     17031     17030     17033
     17032     17030     17033     17033     17036     17037     17033     17036     17038
     17033     17036     17039     17034     17033     17035     17034     17033     17036
     17035     17033     17036     17036     17039     17040     17036     17039     17041
     17036     17039     17042     17037     17036     17038     17037     17036     17039
     17038     17036     17039     17039     17042     17043     17039     17042     17044
     17039     17042     17045     17040     17039     17041     17040     17039     17042
     17041     17039     17042     17042     17045     17046     17042     17045     17047
     17042     17045     17048     17043     17042     17044     17043     17042     17045
     17044     17042     17045     17046     17045     17047     17046     17045     17048
     17047     17045     17048     17049     17053     17054     17049     17053     17055
     17049     17053     17056     17050     17049     17051     17050     17049     17052
     17050     17049     17053     17051     17049     17052     17051     17049     17053
     17052     17049     17053     17053     17056     17057     17053     17056     17058
     17053     17056     17063     17054     17053     17055     17054     17053     17056
     17055     17053     17056     17056     17063     17059     17057     17056     17058
     17057     17056     17063     17058     17056     17063     17059     17062     17064
     17060     17059     17061     17060     17059     17062     17060     17059     17063
     17061     17059     17062     17061     17059     17063     17062     17059     17063
     17062     17064     17065     17062     17064     17066     17062     17064     17067
     17064     17067     17068     17064     17067     17069     17064     17067     17075
     17065     17064     17066     17065     17064     17067     17066     17064     17067
     17067     17069     17070     17067     17075     17076     17067     17075     17077
     17067     17075     17078     17068     17067     17069     17068     17067     17075
     17069     17067     17075     17069     17070     17071     17069     17070     17072
     17070     17072     17073     17070     17072     17074     17070     17072     17084
     17071     17070     17072     17072     17084     17085     17072     17084     17086
     17072     17084     17087     17073     17072     17074     17073     17072     17084
     17074     17072     17084     17075     17078     17079     17076     17075     17077
     17076     17075     17078     17077     17075     17078     17078     17079     17080
     17078     17079     17081     17079     17081     17082     17079     17081     17083
     17079     17081     17131     17080     17079     17081     17081     17131     17132
     17081     17131     17133     17081     17131     17134     17082     17081     17083
     17082     17081     17131     17083     17081     17131     17084     17087     17088
     17084     17087     17089     17084     17087     17090     17085     17084     17086
     17085     17084     17087     17086     17084     17087     17087     17090     17091
     17087     17090     17092     17087     17090     17093     17088     17087     17089
     17088     17087     17090     17089     17087     17090     17090     17093     17094
     17090     17093     17095     17090     17093     17096     17091     17090     17092
     17091     17090     17093     17092     17090     17093     17093     17096     17097
     17093     17096     17098     17093     17096     17099     17094     17093     17095
     17094     17093     17096     17095     17093     17096     17096     17099     17100
     17096     17099     17101     17096     17099     17102     17097     17096     17098
     17097     17096     17099     17098     17096     17099     17099     17102     17103
     17099     17102     17104     17100     17099     17101     17100     17099     17102
     17101     17099     17102     17102     17104     17105     17102     17104     17106
     17103     17102     17104     17104     17106     17107     17104     17106     17108
     17104     17106     17109     17105     17104     17106     17106     17109     17110
     17106     17109     17111     17106     17109     17112     17107     17106     17108
     17107     17106     17109     17108     17106     17109     17109     17112     17113
     17109     17112     17114     17109     17112     17115     17110     17109     17111
     17110     17109     17112     17111     17109     17112     17112     17115     17116
     17112     17115     17117     17112     17115     17118     17113     17112     17114
     17113     17112     17115     17114     17112     17115     17115     17118     17119
     17115     17118     17120     17115     17118     17121     17116     17115     17117
     17116     17115     17118     17117     17115     17118     17118     17121     17122
     17118     17121     17123     17118     17121     17124     17119     17118     17120
     17119     17118     17121     17120     17118     17121     17121     17124     17125
     17121     17124     17126     17121     17124     17127     17122     17121     17123
     17122     17121     17124     17123     17121     17124     17124     17127     17128
     17124     17127     17129     17124     17127     17130     17125     17124     17126
     17125     17124     17127     17126     17124     17127     17128     17127     17129
     17128     17127     17130     17129     17127     17130     17131     17134     17135
     17131     17134     17136     17131     17134     17137     17132     17131     17133
     17132     17131     17134     17133     17131     17134     17134     17137     17138
     17134     17137     17139     17134     17137     17140     17135     17134     17136
     17135     17134     17137     17136     17134     17137     17137     17140     17141
     17137     17140     17142     17137     17140     17143     17138     17137     17139
     17138     17137     17140     17139     17137     17140     17140     17143     17144
     17140     17143     17145     17140     17143     17146     17141     17140     17142
     17141     17140     17143     17142     17140     17143     17143     17146     17147
     17143     17146     17148     17143     17146     17149     17144     17143     17145
     17144     17143     17146     17145     17143     17146     17146     17149     17150
     17146     17149     17151     17146     17149     17152     17147     17146     17148
     17147     17146     17149     17148     17146     17149     17149     17152     17153
     17149     17152     17154     17149     17152     17155     17150     17149     17151
     17150     17149     17152     17151     17149     17152     17152     17155     17156
     17152     17155     17157     17152     17155     17158     17153     17152     17154
     17153     17152     17155     17154     17152     17155     17155     17158     17159
     17155     17158     17160     17155     17158     17161     17156     17155     17157
     17156     17155     17158     17157     17155     17158     17158     17161     17162
     17158     17161     17163     17158     17161     17164     17159     17158     17160
     17159     17158     17161     17160     17158     17161     17161     17164     17165
     17161     17164     17166     17161     17164     17167     17162     17161     17163
     17162     17161     17164     17163     17161     17164     17164     17167     17168
     17164     17167     17169     17164     17167     17170     17165     17164     17166
     17165     17164     17167     17166     17164     17167     17167     17170     17171
     17167     17170     17172     17167     17170     17173     17168     17167     17169
     17168     17167     17170     17169     17167     17170     17171     17170     17172
     17171     17170     17173     17172     17170     17173     17174     17175     17176
     17174     17175     17177     17174     17175     17190     17174     17178     17179
     17174     17178     17180     17174     17178     17181     17174     17182     17183
     17174     17182     17184     17174     17182     17185     17174     17186     17187
     17174     17186     17188     17174     17186     17189     17175     17174     17178
     17175     17174     17182     17175     17174     17186     17175     17190     17191
     17175     17190     17192     17175     17190     17196     17176     17175     17177
     17176     17175     17190     17177     17175     17190     17178     17174     17182
     17178     17174     17186     17179     17178     17180     17179     17178     17181
     17180     17178     17181     17182     17174     17186     17183     17182     17184
     17183     17182     17185     17184     17182     17185     17187     17186     17188
     17187     17186     17189     17188     17186     17189     17190     17196     17193
     17191     17190     17192     17191     17190     17196     17192     17190     17196
     17193     17197     17198     17194     17193     17195     17194     17193     17196
     17194     17193     17197     17195     17193     17196     17195     17193     17197
     17196     17193     17197     17197     17198     17199     17197     17198     17200
     17197     17198     17201     17198     17201     17202     17198     17201     17203
     17198     17201     17209     17199     17198     17200     17199     17198     17201
     17200     17198     17201     17201     17203     17204     17201     17209     17210
     17201     17209     17211     17201     17209     17212     17202     17201     17203
     17202     17201     17209     17203     17201     17209     17203     17204     17205
     17203     17204     17206     17204     17206     17207     17204     17206     17208
     17204     17206     17218     17205     17204     17206     17206     17218     17219
     17206     17218     17220     17206     17218     17221     17207     17206     17208
     17207     17206     17218     17208     17206     17218     17209     17212     17213
     17210     17209     17211     17210     17209     17212     17211     17209     17212
     17212     17213     17214     17212     17213     17215     17213     17215     17216
     17213     17215     17217     17213     17215     17265     17214     17213     17215
     17215     17265     17266     17215     17265     17267     17215     17265     17268
     17216     17215     17217     17216     17215     17265     17217     17215     17265
     17218     17221     17222     17218     17221     17223     17218     17221     17224
     17219     17218     17220     17219     17218     17221     17220     17218     17221
     17221     17224     17225     17221     17224     17226     17221     17224     17227
     17222     17221     17223     17222     17221     17224     17223     17221     17224
     17224     17227     17228     17224     17227     17229     17224     17227     17230
     17225     17224     17226     17225     17224     17227     17226     17224     17227
     17227     17230     17231     17227     17230     17232     17227     17230     17233
     17228     17227     17229     17228     17227     17230     17229     17227     17230
     17230     17233     17234     17230     17233     17235     17230     17233     17236
     17231     17230     17232     17231     17230     17233     17232     17230     17233
     17233     17236     17237     17233     17236     17238     17234     17233     17235
     17234     17233     17236     17235     17233     17236     17236     17238     17239
     17236     17238     17240     17237     17236     17238     17238     17240     17241
     17238     17240     17242     17238     17240     17243     17239     17238     17240
     17240     17243     17244     17240     17243     17245     17240     17243     17246
     17241     17240     17242     17241     17240     17243     17242     17240     17243
     17243     17246     17247     17243     17246     17248     17243     17246     17249
     17244     17243     17245     17244     17243     17246     17245     17243     17246
     17246     17249     17250     17246     17249     17251     17246     17249     17252
     17247     17246     17248     17247     17246     17249     17248     17246     17249
     17249     17252     17253     17249     17252     17254     17249     17252     17255
     17250     17249     17251     17250     17249     17252     17251     17249     17252
     17252     17255     17256     17252     17255     17257     17252     17255     17258
     17253     17252     17254     17253     17252     17255     17254     17252     17255
     17255     17258     17259     17255     17258     17260     17255     17258     17261
     17256     17255     17257     17256     17255     17258     17257     17255     17258
     17258     17261     17262     17258     17261     17263     17258     17261     17264
     17259     17258     17260     17259     17258     17261     17260     17258     17261
     17262     17261     17263     17262     17261     17264     17263     17261     17264
     17265     17268     17269     17265     17268     17270     17265     17268     17271
     17266     17265     17267     17266     17265     17268     17267     17265     17268
     17268     17271     17272     17268     17271     17273     17268     17271     17274
     17269     17268     17270     17269     17268     17271     17270     17268     17271
     17271     17274     17275     17271     17274     17276     17271     17274     17277
     17272     17271     17273     17272     17271     17274     17273     17271     17274
     17274     17277     17278     17274     17277     17279     17274     17277     17280
     17275     17274     17276     17275     17274     17277     17276     17274     17277
     17277     17280     17281     17277     17280     17282     17277     17280     17283
     17278     17277     17279     17278     17277     17280     17279     17277     17280
     17280     17283     17284     17280     17283     17285     17280     17283     17286
     17281     17280     17282     17281     17280     17283     17282     17280     17283
     17283     17286     17287     17283     17286     17288     17283     17286     17289
     17284     17283     17285     17284     17283     17286     17285     17283     17286
     17286     17289     17290     17286     17289     17291     17286     17289     17292
     17287     17286     17288     17287     17286     17289     17288     17286     17289
     17289     17292     17293     17289     17292     17294     17289     17292     17295
     17290     17289     17291     17290     17289     17292     17291     17289     17292
     17292     17295     17296     17292     17295     17297     17292     17295     17298
     17293     17292     17294     17293     17292     17295     17294     17292     17295
     17295     17298     17299     17295     17298     17300     17295     17298     17301
     17296     17295     17297     17296     17295     17298     17297     17295     17298
     17298     17301     17302     17298     17301     17303     17298     17301     17304
     17299     17298     17300     17299     17298     17301     17300     17298     17301
     17301     17304     17305     17301     17304     17306     17301     17304     17307
     17302     17301     17303     17302     17301     17304     17303     17301     17304
     17305     17304     17306     17305     17304     17307     17306     17304     17307
     17308     17312     17313     17308     17312     17314     17308     17312     17315
     17309     17308     17310     17309     17308     17311     17309     17308     17312
     17310     17308     17311     17310     17308     17312     17311     17308     17312
     17312     17315     17316     17312     17315     17317     17312     17315     17322
     17313     17312     17314     17313     17312     17315     17314     17312     17315
     17315     17322     17318     17316     17315     17317     17316     17315     17322
     17317     17315     17322     17318     17321     17323     17319     17318     17320
     17319     17318     17321     17319     17318     17322     17320     17318     17321
     17320     17318     17322     17321     17318     17322     17321     17323     17324
     17321     17323     17325     17321     17323     17326     17323     17326     17327
     17323     17326     17328     17323     17326     17334     17324     17323     17325
     17324     17323     17326     17325     17323     17326     17326     17328     17329
     17326     17334     17335     17326     17334     17336     17326     17334     17337
     17327     17326     17328     17327     17326     17334     17328     17326     17334
     17328     17329     17330     17328     17329     17331     17329     17331     17332
     17329     17331     17333     17329     17331     17343     17330     17329     17331
     17331     17343     17344     17331     17343     17345     17331     17343     17346
     17332     17331     17333     17332     17331     17343     17333     17331     17343
     17334     17337     17338     17335     17334     17336     17335     17334     17337
     17336     17334     17337     17337     17338     17339     17337     17338     17340
     17338     17340     17341     17338     17340     17342     17338     17340     17390
     17339     17338     17340     17340     17390     17391     17340     17390     17392
     17340     17390     17393     17341     17340     17342     17341     17340     17390
     17342     17340     17390     17343     17346     17347     17343     17346     17348
     17343     17346     17349     17344     17343     17345     17344     17343     17346
     17345     17343     17346     17346     17349     17350     17346     17349     17351
     17346     17349     17352     17347     17346     17348     17347     17346     17349
     17348     17346     17349     17349     17352     17353     17349     17352     17354
     17349     17352     17355     17350     17349     17351     17350     17349     17352
     17351     17349     17352     17352     17355     17356     17352     17355     17357
     17352     17355     17358     17353     17352     17354     17353     17352     17355
     17354     17352     17355     17355     17358     17359     17355     17358     17360
     17355     17358     17361     17356     17355     17357     17356     17355     17358
     17357     17355     17358     17358     17361     17362     17358     17361     17363
     17359     17358     17360     17359     17358     17361     17360     17358     17361
     17361     17363     17364     17361     17363     17365     17362     17361     17363
     17363     17365     17366     17363     17365     17367     17363     17365     17368
     17364     17363     17365     17365     17368     17369     17365     17368     17370
     17365     17368     17371     17366     17365     17367     17366     17365     17368
     17367     17365     17368     17368     17371     17372     17368     17371     17373
     17368     17371     17374     17369     17368     17370     17369     17368     17371
     17370     17368     17371     17371     17374     17375     17371     17374     17376
     17371     17374     17377     17372     17371     17373     17372     17371     17374
     17373     17371     17374     17374     17377     17378     17374     17377     17379
     17374     17377     17380     17375     17374     17376     17375     17374     17377
     17376     17374     17377     17377     17380     17381     17377     17380     17382
     17377     17380     17383     17378     17377     17379     17378     17377     17380
     17379     17377     17380     17380     17383     17384     17380     17383     17385
     17380     17383     17386     17381     17380     17382     17381     17380     17383
     17382     17380     17383     17383     17386     17387     17383     17386     17388
     17383     17386     17389     17384     17383     17385     17384     17383     17386
     17385     17383     17386     17387     17386     17388     17387     17386     17389
     17388     17386     17389     17390     17393     17394     17390     17393     17395
     17390     17393     17396     17391     17390     17392     17391     17390     17393
     17392     17390     17393     17393     17396     17397     17393     17396     17398
     17393     17396     17399     17394     17393     17395     17394     17393     17396
     17395     17393     17396     17396     17399     17400     17396     17399     17401
     17396     17399     17402     17397     17396     17398     17397     17396     17399
     17398     17396     17399     17399     17402     17403     17399     17402     17404
     17399     17402     17405     17400     17399     17401     17400     17399     17402
     17401     17399     17402     17402     17405     17406     17402     17405     17407
     17402     17405     17408     17403     17402     17404     17403     17402     17405
     17404     17402     17405     17405     17408     17409     17405     17408     17410
     17405     17408     17411     17406     17405     17407     17406     17405     17408
     17407     17405     17408     17408     17411     17412     17408     17411     17413
     17408     17411     17414     17409     17408     17410     17409     17408     17411
     17410     17408     17411     17411     17414     17415     17411     17414     17416
     17411     17414     17417     17412     17411     17413     17412     17411     17414
     17413     17411     17414     17414     17417     17418     17414     17417     17419
     17414     17417     17420     17415     17414     17416     17415     17414     17417
     17416     17414     17417     17417     17420     17421     17417     17420     17422
     17417     17420     17423     17418     17417     17419     17418     17417     17420
     17419     17417     17420     17420     17423     17424     17420     17423     17425
     17420     17423     17426     17421     17420     17422     17421     17420     17423
     17422     17420     17423     17423     17426     17427     17423     17426     17428
     17423     17426     17429     17424     17423     17425     17424     17423     17426
     17425     17423     17426     17426     17429     17430     17426     17429     17431
     17426     17429     17432     17427     17426     17428     17427     17426     17429
     17428     17426     17429     17430     17429     17431     17430     17429     17432
     17431     17429     17432     17433     17437     17438     17433     17437     17439
     17433     17437     17440     17434     17433     17435     17434     17433     17436
     17434     17433     17437     17435     17433     17436     17435     17433     17437
     17436     17433     17437     17437     17440     17441     17437     17440     17442
     17437     17440     17447     17438     17437     17439     17438     17437     17440
     17439     17437     17440     17440     17447     17443     17441     17440     17442
     17441     17440     17447     17442     17440     17447     17443     17446     17448
     17444     17443     17445     17444     17443     17446     17444     17443     17447
     17445     17443     17446     17445     17443     17447     17446     17443     17447
     17446     17448     17449     17446     17448     17450     17446     17448     17451
     17448     17451     17452     17448     17451     17453     17448     17451     17459
     17449     17448     17450     17449     17448     17451     17450     17448     17451
     17451     17453     17454     17451     17459     17460     17451     17459     17461
     17451     17459     17462     17452     17451     17453     17452     17451     17459
     17453     17451     17459     17453     17454     17455     17453     17454     17456
     17454     17456     17457     17454     17456     17458     17454     17456     17468
     17455     17454     17456     17456     17468     17469     17456     17468     17470
     17456     17468     17471     17457     17456     17458     17457     17456     17468
     17458     17456     17468     17459     17462     17463     17460     17459     17461
     17460     17459     17462     17461     17459     17462     17462     17463     17464
     17462     17463     17465     17463     17465     17466     17463     17465     17467
     17463     17465     17515     17464     17463     17465     17465     17515     17516
     17465     17515     17517     17465     17515     17518     17466     17465     17467
     17466     17465     17515     17467     17465     17515     17468     17471     17472
     17468     17471     17473     17468     17471     17474     17469     17468     17470
     17469     17468     17471     17470     17468     17471     17471     17474     17475
     17471     17474     17476     17471     17474     17477     17472     17471     17473
     17472     17471     17474     17473     17471     17474     17474     17477     17478
     17474     17477     17479     17474     17477     17480     17475     17474     17476
     17475     17474     17477     17476     17474     17477     17477     17480     17481
     17477     17480     17482     17477     17480     17483     17478     17477     17479
     17478     17477     17480     17479     17477     17480     17480     17483     17484
     17480     17483     17485     17480     17483     17486     17481     17480     17482
     17481     17480     17483     17482     17480     17483     17483     17486     17487
     17483     17486     17488     17484     17483     17485     17484     17483     17486
     17485     17483     17486     17486     17488     17489     17486     17488     17490
     17487     17486     17488     17488     17490     17491     17488     17490     17492
     17488     17490     17493     17489     17488     17490     17490     17493     17494
     17490     17493     17495     17490     17493     17496     17491     17490     17492
     17491     17490     17493     17492     17490     17493     17493     17496     17497
     17493     17496     17498     17493     17496     17499     17494     17493     17495
     17494     17493     17496     17495     17493     17496     17496     17499     17500
     17496     17499     17501     17496     17499     17502     17497     17496     17498
     17497     17496     17499     17498     17496     17499     17499     17502     17503
     17499     17502     17504     17499     17502     17505     17500     17499     17501
     17500     17499     17502     17501     17499     17502     17502     17505     17506
     17502     17505     17507     17502     17505     17508     17503     17502     17504
     17503     17502     17505     17504     17502     17505     17505     17508     17509
     17505     17508     17510     17505     17508     17511     17506     17505     17507
     17506     17505     17508     17507     17505     17508     17508     17511     17512
     17508     17511     17513     17508     17511     17514     17509     17508     17510
     17509     17508     17511     17510     17508     17511     17512     17511     17513
     17512     17511     17514     17513     17511     17514     17515     17518     17519
     17515     17518     17520     17515     17518     17521     17516     17515     17517
     17516     17515     17518     17517     17515     17518     17518     17521     17522
     17518     17521     17523     17518     17521     17524     17519     17518     17520
     17519     17518     17521     17520     17518     17521     17521     17524     17525
     17521     17524     17526     17521     17524     17527     17522     17521     17523
     17522     17521     17524     17523     17521     17524     17524     17527     17528
     17524     17527     17529     17524     17527     17530     17525     17524     17526
     17525     17524     17527     17526     17524     17527     17527     17530     17531
     17527     17530     17532     17527     17530     17533     17528     17527     17529
     17528     17527     17530     17529     17527     17530     17530     17533     17534
     17530     17533     17535     17530     17533     17536     17531     17530     17532
     17531     17530     17533     17532     17530     17533     17533     17536     17537
     17533     17536     17538     17533     17536     17539     17534     17533     17535
     17534     17533     17536     17535     17533     17536     17536     17539     17540
     17536     17539     17541     17536     17539     17542     17537     17536     17538
     17537     17536     17539     17538     17536     17539     17539     17542     17543
     17539     17542     17544     17539     17542     17545     17540     17539     17541
     17540     17539     17542     17541     17539     17542     17542     17545     17546
     17542     17545     17547     17542     17545     17548     17543     17542     17544
     17543     17542     17545     17544     17542     17545     17545     17548     17549
     17545     17548     17550     17545     17548     17551     17546     17545     17547
     17546     17545     17548     17547     17545     17548     17548     17551     17552
     17548     17551     17553     17548     17551     17554     17549     17548     17550
     17549     17548     17551     17550     17548     17551     17551     17554     17555
     17551     17554     17556     17551     17554     17557     17552     17551     17553
     17552     17551     17554     17553     17551     17554     17555     17554     17556
     17555     17554     17557     17556     17554     17557     17558     17559     17560
     17558     17559     17561     17558     17559     17574     17558     17562     17563
     17558     17562     17564     17558     17562     17565     17558     17566     17567
     17558     17566     17568     17558     17566     17569     17558     17570     17571
     17558     17570     17572     17558     17570     17573     17559     17558     17562
     17559     17558     17566     17559     17558     17570     17559     17574     17575
     17559     17574     17576     17559     17574     17580     17560     17559     17561
     17560     17559     17574     17561     17559     17574     17562     17558     17566
     17562     17558     17570     17563     17562     17564     17563     17562     17565
     17564     17562     17565     17566     17558     17570     17567     17566     17568
     17567     17566     17569     17568     17566     17569     17571     17570     17572
     17571     17570     17573     17572     17570     17573     17574     17580     17577
     17575     17574     17576     17575     17574     17580     17576     17574     17580
     17577     17581     17582     17578     17577     17579     17578     17577     17580
     17578     17577     17581     17579     17577     17580     17579     17577     17581
     17580     17577     17581     17581     17582     17583     17581     17582     17584
     17581     17582     17585     17582     17585     17586     17582     17585     17587
     17582     17585     17593     17583     17582     17584     17583     17582     17585
     17584     17582     17585     17585     17587     17588     17585     17593     17594
     17585     17593     17595     17585     17593     17596     17586     17585     17587
     17586     17585     17593     17587     17585     17593     17587     17588     17589
     17587     17588     17590     17588     17590     17591     17588     17590     17592
     17588     17590     17602     17589     17588     17590     17590     17602     17603
     17590     17602     17604     17590     17602     17605     17591     17590     17592
     17591     17590     17602     17592     17590     17602     17593     17596     17597
     17594     17593     17595     17594     17593     17596     17595     17593     17596
     17596     17597     17598     17596     17597     17599     17597     17599     17600
     17597     17599     17601     17597     17599     17649     17598     17597     17599
     17599     17649     17650     17599     17649     17651     17599     17649     17652
     17600     17599     17601     17600     17599     17649     17601     17599     17649
     17602     17605     17606     17602     17605     17607     17602     17605     17608
     17603     17602     17604     17603     17602     17605     17604     17602     17605
     17605     17608     17609     17605     17608     17610     17605     17608     17611
     17606     17605     17607     17606     17605     17608     17607     17605     17608
     17608     17611     17612     17608     17611     17613     17608     17611     17614
     17609     17608     17610     17609     17608     17611     17610     17608     17611
     17611     17614     17615     17611     17614     17616     17611     17614     17617
     17612     17611     17613     17612     17611     17614     17613     17611     17614
     17614     17617     17618     17614     17617     17619     17614     17617     17620
     17615     17614     17616     17615     17614     17617     17616     17614     17617
     17617     17620     17621     17617     17620     17622     17618     17617     17619
     17618     17617     17620     17619     17617     17620     17620     17622     17623
     17620     17622     17624     17621     17620     17622     17622     17624     17625
     17622     17624     17626     17622     17624     17627     17623     17622     17624
     17624     17627     17628     17624     17627     17629     17624     17627     17630
     17625     17624     17626     17625     17624     17627     17626     17624     17627
     17627     17630     17631     17627     17630     17632     17627     17630     17633
     17628     17627     17629     17628     17627     17630     17629     17627     17630
     17630     17633     17634     17630     17633     17635     17630     17633     17636
     17631     17630     17632     17631     17630     17633     17632     17630     17633
     17633     17636     17637     17633     17636     17638     17633     17636     17639
     17634     17633     17635     17634     17633     17636     17635     17633     17636
     17636     17639     17640     17636     17639     17641     17636     17639     17642
     17637     17636     17638     17637     17636     17639     17638     17636     17639
     17639     17642     17643     17639     17642     17644     17639     17642     17645
     17640     17639     17641     17640     17639     17642     17641     17639     17642
     17642     17645     17646     17642     17645     17647     17642     17645     17648
     17643     17642     17644     17643     17642     17645     17644     17642     17645
     17646     17645     17647     17646     17645     17648     17647     17645     17648
     17649     17652     17653     17649     17652     17654     17649     17652     17655
     17650     17649     17651     17650     17649     17652     17651     17649     17652
     17652     17655     17656     17652     17655     17657     17652     17655     17658
     17653     17652     17654     17653     17652     17655     17654     17652     17655
     17655     17658     17659     17655     17658     17660     17655     17658     17661
     17656     17655     17657     17656     17655     17658     17657     17655     17658
     17658     17661     17662     17658     17661     17663     17658     17661     17664
     17659     17658     17660     17659     17658     17661     17660     17658     17661
     17661     17664     17665     17661     17664     17666     17661     17664     17667
     17662     17661     17663     17662     17661     17664     17663     17661     17664
     17664     17667     17668     17664     17667     17669     17664     17667     17670
     17665     17664     17666     17665     17664     17667     17666     17664     17667
     17667     17670     17671     17667     17670     17672     17667     17670     17673
     17668     17667     17669     17668     17667     17670     17669     17667     17670
     17670     17673     17674     17670     17673     17675     17670     17673     17676
     17671     17670     17672     17671     17670     17673     17672     17670     17673
     17673     17676     17677     17673     17676     17678     17673     17676     17679
     17674     17673     17675     17674     17673     17676     17675     17673     17676
     17676     17679     17680     17676     17679     17681     17676     17679     17682
     17677     17676     17678     17677     17676     17679     17678     17676     17679
     17679     17682     17683     17679     17682     17684     17679     17682     17685
     17680     17679     17681     17680     17679     17682     17681     17679     17682
     17682     17685     17686     17682     17685     17687     17682     17685     17688
     17683     17682     17684     17683     17682     17685     17684     17682     17685
     17685     17688     17689     17685     17688     17690     17685     17688     17691
     17686     17685     17687     17686     17685     17688     17687     17685     17688
     17689     17688     17690     17689     17688     17691     17690     17688     17691
     17692     17693     17694     17692     17693     17695     17692     17693     17708
     17692     17696     17697     17692     17696     17698     17692     17696     17699
     17692     17700     17701     17692     17700     17702     17692     17700     17703
     17692     17704     17705     17692     17704     17706     17692     17704     17707
     17693     17692     17696     17693     17692     17700     17693     17692     17704
     17693     17708     17709     17693     17708     17710     17693     17708     17714
     17694     17693     17695     17694     17693     17708     17695     17693     17708
     17696     17692     17700     17696     17692     17704     17697     17696     17698
     17697     17696     17699     17698     17696     17699     17700     17692     17704
     17701     17700     17702     17701     17700     17703     17702     17700     17703
     17705     17704     17706     17705     17704     17707     17706     17704     17707
     17708     17714     17711     17709     17708     17710     17709     17708     17714
     17710     17708     17714     17711     17715     17716     17712     17711     17713
     17712     17711     17714     17712     17711     17715     17713     17711     17714
     17713     17711     17715     17714     17711     17715     17715     17716     17717
     17715     17716     17718     17715     17716     17719     17716     17719     17720
     17716     17719     17721     17716     17719     17727     17717     17716     17718
     17717     17716     17719     17718     17716     17719     17719     17721     17722
     17719     17727     17728     17719     17727     17729     17719     17727     17730
     17720     17719     17721     17720     17719     17727     17721     17719     17727
     17721     17722     17723     17721     17722     17724     17722     17724     17725
     17722     17724     17726     17722     17724     17736     17723     17722     17724
     17724     17736     17737     17724     17736     17738     17724     17736     17739
     17725     17724     17726     17725     17724     17736     17726     17724     17736
     17727     17730     17731     17728     17727     17729     17728     17727     17730
     17729     17727     17730     17730     17731     17732     17730     17731     17733
     17731     17733     17734     17731     17733     17735     17731     17733     17783
     17732     17731     17733     17733     17783     17784     17733     17783     17785
     17733     17783     17786     17734     17733     17735     17734     17733     17783
     17735     17733     17783     17736     17739     17740     17736     17739     17741
     17736     17739     17742     17737     17736     17738     17737     17736     17739
     17738     17736     17739     17739     17742     17743     17739     17742     17744
     17739     17742     17745     17740     17739     17741     17740     17739     17742
     17741     17739     17742     17742     17745     17746     17742     17745     17747
     17742     17745     17748     17743     17742     17744     17743     17742     17745
     17744     17742     17745     17745     17748     17749     17745     17748     17750
     17745     17748     17751     17746     17745     17747     17746     17745     17748
     17747     17745     17748     17748     17751     17752     17748     17751     17753
     17748     17751     17754     17749     17748     17750     17749     17748     17751
     17750     17748     17751     17751     17754     17755     17751     17754     17756
     17752     17751     17753     17752     17751     17754     17753     17751     17754
     17754     17756     17757     17754     17756     17758     17755     17754     17756
     17756     17758     17759     17756     17758     17760     17756     17758     17761
     17757     17756     17758     17758     17761     17762     17758     17761     17763
     17758     17761     17764     17759     17758     17760     17759     17758     17761
     17760     17758     17761     17761     17764     17765     17761     17764     17766
     17761     17764     17767     17762     17761     17763     17762     17761     17764
     17763     17761     17764     17764     17767     17768     17764     17767     17769
     17764     17767     17770     17765     17764     17766     17765     17764     17767
     17766     17764     17767     17767     17770     17771     17767     17770     17772
     17767     17770     17773     17768     17767     17769     17768     17767     17770
     17769     17767     17770     17770     17773     17774     17770     17773     17775
     17770     17773     17776     17771     17770     17772     17771     17770     17773
     17772     17770     17773     17773     17776     17777     17773     17776     17778
     17773     17776     17779     17774     17773     17775     17774     17773     17776
     17775     17773     17776     17776     17779     17780     17776     17779     17781
     17776     17779     17782     17777     17776     17778     17777     17776     17779
     17778     17776     17779     17780     17779     17781     17780     17779     17782
     17781     17779     17782     17783     17786     17787     17783     17786     17788
     17783     17786     17789     17784     17783     17785     17784     17783     17786
     17785     17783     17786     17786     17789     17790     17786     17789     17791
     17786     17789     17792     17787     17786     17788     17787     17786     17789
     17788     17786     17789     17789     17792     17793     17789     17792     17794
     17789     17792     17795     17790     17789     17791     17790     17789     17792
     17791     17789     17792     17792     17795     17796     17792     17795     17797
     17792     17795     17798     17793     17792     17794     17793     17792     17795
     17794     17792     17795     17795     17798     17799     17795     17798     17800
     17795     17798     17801     17796     17795     17797     17796     17795     17798
     17797     17795     17798     17798     17801     17802     17798     17801     17803
     17798     17801     17804     17799     17798     17800     17799     17798     17801
     17800     17798     17801     17801     17804     17805     17801     17804     17806
     17801     17804     17807     17802     17801     17803     17802     17801     17804
     17803     17801     17804     17804     17807     17808     17804     17807     17809
     17804     17807     17810     17805     17804     17806     17805     17804     17807
     17806     17804     17807     17807     17810     17811     17807     17810     17812
     17807     17810     17813     17808     17807     17809     17808     17807     17810
     17809     17807     17810     17810     17813     17814     17810     17813     17815
     17810     17813     17816     17811     17810     17812     17811     17810     17813
     17812     17810     17813     17813     17816     17817     17813     17816     17818
     17813     17816     17819     17814     17813     17815     17814     17813     17816
     17815     17813     17816     17816     17819     17820     17816     17819     17821
     17816     17819     17822     17817     17816     17818     17817     17816     17819
     17818     17816     17819     17819     17822     17823     17819     17822     17824
     17819     17822     17825     17820     17819     17821     17820     17819     17822
     17821     17819     17822     17823     17822     17824     17823     17822     17825
     17824     17822     17825     17826     17830     17831     17826     17830     17832
     17826     17830     17833     17827     17826     17828     17827     17826     17829
     17827     17826     17830     17828     17826     17829     17828     17826     17830
     17829     17826     17830     17830     17833     17834     17830     17833     17835
     17830     17833     17840     17831     17830     17832     17831     17830     17833
     17832     17830     17833     17833     17840     17836     17834     17833     17835
     17834     17833     17840     17835     17833     17840     17836     17839     17841
     17837     17836     17838     17837     17836     17839     17837     17836     17840
     17838     17836     17839     17838     17836     17840     17839     17836     17840
     17839     17841     17842     17839     17841     17843     17839     17841     17844
     17841     17844     17845     17841     17844     17846     17841     17844     17852
     17842     17841     17843     17842     17841     17844     17843     17841     17844
     17844     17846     17847     17844     17852     17853     17844     17852     17854
     17844     17852     17855     17845     17844     17846     17845     17844     17852
     17846     17844     17852     17846     17847     17848     17846     17847     17849
     17847     17849     17850     17847     17849     17851     17847     17849     17861
     17848     17847     17849     17849     17861     17862     17849     17861     17863
     17849     17861     17864     17850     17849     17851     17850     17849     17861
     17851     17849     17861     17852     17855     17856     17853     17852     17854
     17853     17852     17855     17854     17852     17855     17855     17856     17857
     17855     17856     17858     17856     17858     17859     17856     17858     17860
     17856     17858     17908     17857     17856     17858     17858     17908     17909
     17858     17908     17910     17858     17908     17911     17859     17858     17860
     17859     17858     17908     17860     17858     17908     17861     17864     17865
     17861     17864     17866     17861     17864     17867     17862     17861     17863
     17862     17861     17864     17863     17861     17864     17864     17867     17868
     17864     17867     17869     17864     17867     17870     17865     17864     17866
     17865     17864     17867     17866     17864     17867     17867     17870     17871
     17867     17870     17872     17867     17870     17873     17868     17867     17869
     17868     17867     17870     17869     17867     17870     17870     17873     17874
     17870     17873     17875     17870     17873     17876     17871     17870     17872
     17871     17870     17873     17872     17870     17873     17873     17876     17877
     17873     17876     17878     17873     17876     17879     17874     17873     17875
     17874     17873     17876     17875     17873     17876     17876     17879     17880
     17876     17879     17881     17877     17876     17878     17877     17876     17879
     17878     17876     17879     17879     17881     17882     17879     17881     17883
     17880     17879     17881     17881     17883     17884     17881     17883     17885
     17881     17883     17886     17882     17881     17883     17883     17886     17887
     17883     17886     17888     17883     17886     17889     17884     17883     17885
     17884     17883     17886     17885     17883     17886     17886     17889     17890
     17886     17889     17891     17886     17889     17892     17887     17886     17888
     17887     17886     17889     17888     17886     17889     17889     17892     17893
     17889     17892     17894     17889     17892     17895     17890     17889     17891
     17890     17889     17892     17891     17889     17892     17892     17895     17896
     17892     17895     17897     17892     17895     17898     17893     17892     17894
     17893     17892     17895     17894     17892     17895     17895     17898     17899
     17895     17898     17900     17895     17898     17901     17896     17895     17897
     17896     17895     17898     17897     17895     17898     17898     17901     17902
     17898     17901     17903     17898     17901     17904     17899     17898     17900
     17899     17898     17901     17900     17898     17901     17901     17904     17905
     17901     17904     17906     17901     17904     17907     17902     17901     17903
     17902     17901     17904     17903     17901     17904     17905     17904     17906
     17905     17904     17907     17906     17904     17907     17908     17911     17912
     17908     17911     17913     17908     17911     17914     17909     17908     17910
     17909     17908     17911     17910     17908     17911     17911     17914     17915
     17911     17914     17916     17911     17914     17917     17912     17911     17913
     17912     17911     17914     17913     17911     17914     17914     17917     17918
     17914     17917     17919     17914     17917     17920     17915     17914     17916
     17915     17914     17917     17916     17914     17917     17917     17920     17921
     17917     17920     17922     17917     17920     17923     17918     17917     17919
     17918     17917     17920     17919     17917     17920     17920     17923     17924
     17920     17923     17925     17920     17923     17926     17921     17920     17922
     17921     17920     17923     17922     17920     17923     17923     17926     17927
     17923     17926     17928     17923     17926     17929     17924     17923     17925
     17924     17923     17926     17925     17923     17926     17926     17929     17930
     17926     17929     17931     17926     17929     17932     17927     17926     17928
     17927     17926     17929     17928     17926     17929     17929     17932     17933
     17929     17932     17934     17929     17932     17935     17930     17929     17931
     17930     17929     17932     17931     17929     17932     17932     17935     17936
     17932     17935     17937     17932     17935     17938     17933     17932     17934
     17933     17932     17935     17934     17932     17935     17935     17938     17939
     17935     17938     17940     17935     17938     17941     17936     17935     17937
     17936     17935     17938     17937     17935     17938     17938     17941     17942
     17938     17941     17943     17938     17941     17944     17939     17938     17940
     17939     17938     17941     17940     17938     17941     17941     17944     17945
     17941     17944     17946     17941     17944     17947     17942     17941     17943
     17942     17941     17944     17943     17941     17944     17944     17947     17948
     17944     17947     17949     17944     17947     17950     17945     17944     17946
     17945     17944     17947     17946     17944     17947     17948     17947     17949
     17948     17947     17950     17949     17947     17950     17951     17955     17956
     17951     17955     17957     17951     17955     17958     17952     17951     17953
     17952     17951     17954     17952     17951     17955     17953     17951     17954
     17953     17951     17955     17954     17951     17955     17955     17958     17959
     17955     17958     17960     17955     17958     17965     17956     17955     17957
     17956     17955     17958     17957     17955     17958     17958     17965     17961
     17959     17958     17960     17959     17958     17965     17960     17958     17965
     17961     17964     17966     17962     17961     17963     17962     17961     17964
     17962     17961     17965     17963     17961     17964     17963     17961     17965
     17964     17961     17965     17964     17966     17967     17964     17966     17968
     17964     17966     17969     17966     17969     17970     17966     17969     17971
     17966     17969     17977     17967     17966     17968     17967     17966     17969
     17968     17966     17969     17969     17971     17972     17969     17977     17978
     17969     17977     17979     17969     17977     17980     17970     17969     17971
     17970     17969     17977     17971     17969     17977     17971     17972     17973
     17971     17972     17974     17972     17974     17975     17972     17974     17976
     17972     17974     17986     17973     17972     17974     17974     17986     17987
     17974     17986     17988     17974     17986     17989     17975     17974     17976
     17975     17974     17986     17976     17974     17986     17977     17980     17981
     17978     17977     17979     17978     17977     17980     17979     17977     17980
     17980     17981     17982     17980     17981     17983     17981     17983     17984
     17981     17983     17985     17981     17983     18033     17982     17981     17983
     17983     18033     18034     17983     18033     18035     17983     18033     18036
     17984     17983     17985     17984     17983     18033     17985     17983     18033
     17986     17989     17990     17986     17989     17991     17986     17989     17992
     17987     17986     17988     17987     17986     17989     17988     17986     17989
     17989     17992     17993     17989     17992     17994     17989     17992     17995
     17990     17989     17991     17990     17989     17992     17991     17989     17992
     17992     17995     17996     17992     17995     17997     17992     17995     17998
     17993     17992     17994     17993     17992     17995     17994     17992     17995
     17995     17998     17999     17995     17998     18000     17995     17998     18001
     17996     17995     17997     17996     17995     17998     17997     17995     17998
     17998     18001     18002     17998     18001     18003     17998     18001     18004
     17999     17998     18000     17999     17998     18001     18000     17998     18001
     18001     18004     18005     18001     18004     18006     18002     18001     18003
     18002     18001     18004     18003     18001     18004     18004     18006     18007
     18004     18006     18008     18005     18004     18006     18006     18008     18009
     18006     18008     18010     18006     18008     18011     18007     18006     18008
     18008     18011     18012     18008     18011     18013     18008     18011     18014
     18009     18008     18010     18009     18008     18011     18010     18008     18011
     18011     18014     18015     18011     18014     18016     18011     18014     18017
     18012     18011     18013     18012     18011     18014     18013     18011     18014
     18014     18017     18018     18014     18017     18019     18014     18017     18020
     18015     18014     18016     18015     18014     18017     18016     18014     18017
     18017     18020     18021     18017     18020     18022     18017     18020     18023
     18018     18017     18019     18018     18017     18020     18019     18017     18020
     18020     18023     18024     18020     18023     18025     18020     18023     18026
     18021     18020     18022     18021     18020     18023     18022     18020     18023
     18023     18026     18027     18023     18026     18028     18023     18026     18029
     18024     18023     18025     18024     18023     18026     18025     18023     18026
     18026     18029     18030     18026     18029     18031     18026     18029     18032
     18027     18026     18028     18027     18026     18029     18028     18026     18029
     18030     18029     18031     18030     18029     18032     18031     18029     18032
     18033     18036     18037     18033     18036     18038     18033     18036     18039
     18034     18033     18035     18034     18033     18036     18035     18033     18036
     18036     18039     18040     18036     18039     18041     18036     18039     18042
     18037     18036     18038     18037     18036     18039     18038     18036     18039
     18039     18042     18043     18039     18042     18044     18039     18042     18045
     18040     18039     18041     18040     18039     18042     18041     18039     18042
     18042     18045     18046     18042     18045     18047     18042     18045     18048
     18043     18042     18044     18043     18042     18045     18044     18042     18045
     18045     18048     18049     18045     18048     18050     18045     18048     18051
     18046     18045     18047     18046     18045     18048     18047     18045     18048
     18048     18051     18052     18048     18051     18053     18048     18051     18054
     18049     18048     18050     18049     18048     18051     18050     18048     18051
     18051     18054     18055     18051     18054     18056     18051     18054     18057
     18052     18051     18053     18052     18051     18054     18053     18051     18054
     18054     18057     18058     18054     18057     18059     18054     18057     18060
     18055     18054     18056     18055     18054     18057     18056     18054     18057
     18057     18060     18061     18057     18060     18062     18057     18060     18063
     18058     18057     18059     18058     18057     18060     18059     18057     18060
     18060     18063     18064     18060     18063     18065     18060     18063     18066
     18061     18060     18062     18061     18060     18063     18062     18060     18063
     18063     18066     18067     18063     18066     18068     18063     18066     18069
     18064     18063     18065     18064     18063     18066     18065     18063     18066
     18066     18069     18070     18066     18069     18071     18066     18069     18072
     18067     18066     18068     18067     18066     18069     18068     18066     18069
     18069     18072     18073     18069     18072     18074     18069     18072     18075
     18070     18069     18071     18070     18069     18072     18071     18069     18072
     18073     18072     18074     18073     18072     18075     18074     18072     18075
     18076     18077     18078     18076     18077     18079     18076     18077     18092
     18076     18080     18081     18076     18080     18082     18076     18080     18083
     18076     18084     18085     18076     18084     18086     18076     18084     18087
     18076     18088     18089     18076     18088     18090     18076     18088     18091
     18077     18076     18080     18077     18076     18084     18077     18076     18088
     18077     18092     18093     18077     18092     18094     18077     18092     18098
     18078     18077     18079     18078     18077     18092     18079     18077     18092
     18080     18076     18084     18080     18076     18088     18081     18080     18082
     18081     18080     18083     18082     18080     18083     18084     18076     18088
     18085     18084     18086     18085     18084     18087     18086     18084     18087
     18089     18088     18090     18089     18088     18091     18090     18088     18091
     18092     18098     18095     18093     18092     18094     18093     18092     18098
     18094     18092     18098     18095     18099     18100     18096     18095     18097
     18096     18095     18098     18096     18095     18099     18097     18095     18098
     18097     18095     18099     18098     18095     18099     18099     18100     18101
     18099     18100     18102     18099     18100     18103     18100     18103     18104
     18100     18103     18105     18100     18103     18111     18101     18100     18102
     18101     18100     18103     18102     18100     18103     18103     18105     18106
     18103     18111     18112     18103     18111     18113     18103     18111     18114
     18104     18103     18105     18104     18103     18111     18105     18103     18111
     18105     18106     18107     18105     18106     18108     18106     18108     18109
     18106     18108     18110     18106     18108     18120     18107     18106     18108
     18108     18120     18121     18108     18120     18122     18108     18120     18123
     18109     18108     18110     18109     18108     18120     18110     18108     18120
     18111     18114     18115     18112     18111     18113     18112     18111     18114
     18113     18111     18114     18114     18115     18116     18114     18115     18117
     18115     18117     18118     18115     18117     18119     18115     18117     18167
     18116     18115     18117     18117     18167     18168     18117     18167     18169
     18117     18167     18170     18118     18117     18119     18118     18117     18167
     18119     18117     18167     18120     18123     18124     18120     18123     18125
     18120     18123     18126     18121     18120     18122     18121     18120     18123
     18122     18120     18123     18123     18126     18127     18123     18126     18128
     18123     18126     18129     18124     18123     18125     18124     18123     18126
     18125     18123     18126     18126     18129     18130     18126     18129     18131
     18126     18129     18132     18127     18126     18128     18127     18126     18129
     18128     18126     18129     18129     18132     18133     18129     18132     18134
     18129     18132     18135     18130     18129     18131     18130     18129     18132
     18131     18129     18132     18132     18135     18136     18132     18135     18137
     18132     18135     18138     18133     18132     18134     18133     18132     18135
     18134     18132     18135     18135     18138     18139     18135     18138     18140
     18136     18135     18137     18136     18135     18138     18137     18135     18138
     18138     18140     18141     18138     18140     18142     18139     18138     18140
     18140     18142     18143     18140     18142     18144     18140     18142     18145
     18141     18140     18142     18142     18145     18146     18142     18145     18147
     18142     18145     18148     18143     18142     18144     18143     18142     18145
     18144     18142     18145     18145     18148     18149     18145     18148     18150
     18145     18148     18151     18146     18145     18147     18146     18145     18148
     18147     18145     18148     18148     18151     18152     18148     18151     18153
     18148     18151     18154     18149     18148     18150     18149     18148     18151
     18150     18148     18151     18151     18154     18155     18151     18154     18156
     18151     18154     18157     18152     18151     18153     18152     18151     18154
     18153     18151     18154     18154     18157     18158     18154     18157     18159
     18154     18157     18160     18155     18154     18156     18155     18154     18157
     18156     18154     18157     18157     18160     18161     18157     18160     18162
     18157     18160     18163     18158     18157     18159     18158     18157     18160
     18159     18157     18160     18160     18163     18164     18160     18163     18165
     18160     18163     18166     18161     18160     18162     18161     18160     18163
     18162     18160     18163     18164     18163     18165     18164     18163     18166
     18165     18163     18166     18167     18170     18171     18167     18170     18172
     18167     18170     18173     18168     18167     18169     18168     18167     18170
     18169     18167     18170     18170     18173     18174     18170     18173     18175
     18170     18173     18176     18171     18170     18172     18171     18170     18173
     18172     18170     18173     18173     18176     18177     18173     18176     18178
     18173     18176     18179     18174     18173     18175     18174     18173     18176
     18175     18173     18176     18176     18179     18180     18176     18179     18181
     18176     18179     18182     18177     18176     18178     18177     18176     18179
     18178     18176     18179     18179     18182     18183     18179     18182     18184
     18179     18182     18185     18180     18179     18181     18180     18179     18182
     18181     18179     18182     18182     18185     18186     18182     18185     18187
     18182     18185     18188     18183     18182     18184     18183     18182     18185
     18184     18182     18185     18185     18188     18189     18185     18188     18190
     18185     18188     18191     18186     18185     18187     18186     18185     18188
     18187     18185     18188     18188     18191     18192     18188     18191     18193
     18188     18191     18194     18189     18188     18190     18189     18188     18191
     18190     18188     18191     18191     18194     18195     18191     18194     18196
     18191     18194     18197     18192     18191     18193     18192     18191     18194
     18193     18191     18194     18194     18197     18198     18194     18197     18199
     18194     18197     18200     18195     18194     18196     18195     18194     18197
     18196     18194     18197     18197     18200     18201     18197     18200     18202
     18197     18200     18203     18198     18197     18199     18198     18197     18200
     18199     18197     18200     18200     18203     18204     18200     18203     18205
     18200     18203     18206     18201     18200     18202     18201     18200     18203
     18202     18200     18203     18203     18206     18207     18203     18206     18208
     18203     18206     18209     18204     18203     18205     18204     18203     18206
     18205     18203     18206     18207     18206     18208     18207     18206     18209
     18208     18206     18209     18210     18211     18212     18210     18211     18213
     18210     18211     18226     18210     18214     18215     18210     18214     18216
     18210     18214     18217     18210     18218     18219     18210     18218     18220
     18210     18218     18221     18210     18222     18223     18210     18222     18224
     18210     18222     18225     18211     18210     18214     18211     18210     18218
     18211     18210     18222     18211     18226     18227     18211     18226     18228
     18211     18226     18232     18212     18211     18213     18212     18211     18226
     18213     18211     18226     18214     18210     18218     18214     18210     18222
     18215     18214     18216     18215     18214     18217     18216     18214     18217
     18218     18210     18222     18219     18218     18220     18219     18218     18221
     18220     18218     18221     18223     18222     18224     18223     18222     18225
     18224     18222     18225     18226     18232     18229     18227     18226     18228
     18227     18226     18232     18228     18226     18232     18229     18233     18234
     18230     18229     18231     18230     18229     18232     18230     18229     18233
     18231     18229     18232     18231     18229     18233     18232     18229     18233
     18233     18234     18235     18233     18234     18236     18233     18234     18237
     18234     18237     18238     18234     18237     18239     18234     18237     18245
     18235     18234     18236     18235     18234     18237     18236     18234     18237
     18237     18239     18240     18237     18245     18246     18237     18245     18247
     18237     18245     18248     18238     18237     18239     18238     18237     18245
     18239     18237     18245     18239     18240     18241     18239     18240     18242
     18240     18242     18243     18240     18242     18244     18240     18242     18254
     18241     18240     18242     18242     18254     18255     18242     18254     18256
     18242     18254     18257     18243     18242     18244     18243     18242     18254
     18244     18242     18254     18245     18248     18249     18246     18245     18247
     18246     18245     18248     18247     18245     18248     18248     18249     18250
     18248     18249     18251     18249     18251     18252     18249     18251     18253
     18249     18251     18301     18250     18249     18251     18251     18301     18302
     18251     18301     18303     18251     18301     18304     18252     18251     18253
     18252     18251     18301     18253     18251     18301     18254     18257     18258
     18254     18257     18259     18254     18257     18260     18255     18254     18256
     18255     18254     18257     18256     18254     18257     18257     18260     18261
     18257     18260     18262     18257     18260     18263     18258     18257     18259
     18258     18257     18260     18259     18257     18260     18260     18263     18264
     18260     18263     18265     18260     18263     18266     18261     18260     18262
     18261     18260     18263     18262     18260     18263     18263     18266     18267
     18263     18266     18268     18263     18266     18269     18264     18263     18265
     18264     18263     18266     18265     18263     18266     18266     18269     18270
     18266     18269     18271     18266     18269     18272     18267     18266     18268
     18267     18266     18269     18268     18266     18269     18269     18272     18273
     18269     18272     18274     18270     18269     18271     18270     18269     18272
     18271     18269     18272     18272     18274     18275     18272     18274     18276
     18273     18272     18274     18274     18276     18277     18274     18276     18278
     18274     18276     18279     18275     18274     18276     18276     18279     18280
     18276     18279     18281     18276     18279     18282     18277     18276     18278
     18277     18276     18279     18278     18276     18279     18279     18282     18283
     18279     18282     18284     18279     18282     18285     18280     18279     18281
     18280     18279     18282     18281     18279     18282     18282     18285     18286
     18282     18285     18287     18282     18285     18288     18283     18282     18284
     18283     18282     18285     18284     18282     18285     18285     18288     18289
     18285     18288     18290     18285     18288     18291     18286     18285     18287
     18286     18285     18288     18287     18285     18288     18288     18291     18292
     18288     18291     18293     18288     18291     18294     18289     18288     18290
     18289     18288     18291     18290     18288     18291     18291     18294     18295
     18291     18294     18296     18291     18294     18297     18292     18291     18293
     18292     18291     18294     18293     18291     18294     18294     18297     18298
     18294     18297     18299     18294     18297     18300     18295     18294     18296
     18295     18294     18297     18296     18294     18297     18298     18297     18299
     18298     18297     18300     18299     18297     18300     18301     18304     18305
     18301     18304     18306     18301     18304     18307     18302     18301     18303
     18302     18301     18304     18303     18301     18304     18304     18307     18308
     18304     18307     18309     18304     18307     18310     18305     18304     18306
     18305     18304     18307     18306     18304     18307     18307     18310     18311
     18307     18310     18312     18307     18310     18313     18308     18307     18309
     18308     18307     18310     18309     18307     18310     18310     18313     18314
     18310     18313     18315     18310     18313     18316     18311     18310     18312
     18311     18310     18313     18312     18310     18313     18313     18316     18317
     18313     18316     18318     18313     18316     18319     18314     18313     18315
     18314     18313     18316     18315     18313     18316     18316     18319     18320
     18316     18319     18321     18316     18319     18322     18317     18316     18318
     18317     18316     18319     18318     18316     18319     18319     18322     18323
     18319     18322     18324     18319     18322     18325     18320     18319     18321
     18320     18319     18322     18321     18319     18322     18322     18325     18326
     18322     18325     18327     18322     18325     18328     18323     18322     18324
     18323     18322     18325     18324     18322     18325     18325     18328     18329
     18325     18328     18330     18325     18328     18331     18326     18325     18327
     18326     18325     18328     18327     18325     18328     18328     18331     18332
     18328     18331     18333     18328     18331     18334     18329     18328     18330
     18329     18328     18331     18330     18328     18331     18331     18334     18335
     18331     18334     18336     18331     18334     18337     18332     18331     18333
     18332     18331     18334     18333     18331     18334     18334     18337     18338
     18334     18337     18339     18334     18337     18340     18335     18334     18336
     18335     18334     18337     18336     18334     18337     18337     18340     18341
     18337     18340     18342     18337     18340     18343     18338     18337     18339
     18338     18337     18340     18339     18337     18340     18341     18340     18342
     18341     18340     18343     18342     18340     18343     18344     18345     18346
     18344     18345     18347     18344     18345     18360     18344     18348     18349
     18344     18348     18350     18344     18348     18351     18344     18352     18353
     18344     18352     18354     18344     18352     18355     18344     18356     18357
     18344     18356     18358     18344     18356     18359     18345     18344     18348
     18345     18344     18352     18345     18344     18356     18345     18360     18361
     18345     18360     18362     18345     18360     18366     18346     18345     18347
     18346     18345     18360     18347     18345     18360     18348     18344     18352
     18348     18344     18356     18349     18348     18350     18349     18348     18351
     18350     18348     18351     18352     18344     18356     18353     18352     18354
     18353     18352     18355     18354     18352     18355     18357     18356     18358
     18357     18356     18359     18358     18356     18359     18360     18366     18363
     18361     18360     18362     18361     18360     18366     18362     18360     18366
     18363     18367     18368     18364     18363     18365     18364     18363     18366
     18364     18363     18367     18365     18363     18366     18365     18363     18367
     18366     18363     18367     18367     18368     18369     18367     18368     18370
     18367     18368     18371     18368     18371     18372     18368     18371     18373
     18368     18371     18379     18369     18368     18370     18369     18368     18371
     18370     18368     18371     18371     18373     18374     18371     18379     18380
     18371     18379     18381     18371     18379     18382     18372     18371     18373
     18372     18371     18379     18373     18371     18379     18373     18374     18375
     18373     18374     18376     18374     18376     18377     18374     18376     18378
     18374     18376     18388     18375     18374     18376     18376     18388     18389
     18376     18388     18390     18376     18388     18391     18377     18376     18378
     18377     18376     18388     18378     18376     18388     18379     18382     18383
     18380     18379     18381     18380     18379     18382     18381     18379     18382
     18382     18383     18384     18382     18383     18385     18383     18385     18386
     18383     18385     18387     18383     18385     18435     18384     18383     18385
     18385     18435     18436     18385     18435     18437     18385     18435     18438
     18386     18385     18387     18386     18385     18435     18387     18385     18435
     18388     18391     18392     18388     18391     18393     18388     18391     18394
     18389     18388     18390     18389     18388     18391     18390     18388     18391
     18391     18394     18395     18391     18394     18396     18391     18394     18397
     18392     18391     18393     18392     18391     18394     18393     18391     18394
     18394     18397     18398     18394     18397     18399     18394     18397     18400
     18395     18394     18396     18395     18394     18397     18396     18394     18397
     18397     18400     18401     18397     18400     18402     18397     18400     18403
     18398     18397     18399     18398     18397     18400     18399     18397     18400
     18400     18403     18404     18400     18403     18405     18400     18403     18406
     18401     18400     18402     18401     18400     18403     18402     18400     18403
     18403     18406     18407     18403     18406     18408     18404     18403     18405
     18404     18403     18406     18405     18403     18406     18406     18408     18409
     18406     18408     18410     18407     18406     18408     18408     18410     18411
     18408     18410     18412     18408     18410     18413     18409     18408     18410
     18410     18413     18414     18410     18413     18415     18410     18413     18416
     18411     18410     18412     18411     18410     18413     18412     18410     18413
     18413     18416     18417     18413     18416     18418     18413     18416     18419
     18414     18413     18415     18414     18413     18416     18415     18413     18416
     18416     18419     18420     18416     18419     18421     18416     18419     18422
     18417     18416     18418     18417     18416     18419     18418     18416     18419
     18419     18422     18423     18419     18422     18424     18419     18422     18425
     18420     18419     18421     18420     18419     18422     18421     18419     18422
     18422     18425     18426     18422     18425     18427     18422     18425     18428
     18423     18422     18424     18423     18422     18425     18424     18422     18425
     18425     18428     18429     18425     18428     18430     18425     18428     18431
     18426     18425     18427     18426     18425     18428     18427     18425     18428
     18428     18431     18432     18428     18431     18433     18428     18431     18434
     18429     18428     18430     18429     18428     18431     18430     18428     18431
     18432     18431     18433     18432     18431     18434     18433     18431     18434
     18435     18438     18439     18435     18438     18440     18435     18438     18441
     18436     18435     18437     18436     18435     18438     18437     18435     18438
     18438     18441     18442     18438     18441     18443     18438     18441     18444
     18439     18438     18440     18439     18438     18441     18440     18438     18441
     18441     18444     18445     18441     18444     18446     18441     18444     18447
     18442     18441     18443     18442     18441     18444     18443     18441     18444
     18444     18447     18448     18444     18447     18449     18444     18447     18450
     18445     18444     18446     18445     18444     18447     18446     18444     18447
     18447     18450     18451     18447     18450     18452     18447     18450     18453
     18448     18447     18449     18448     18447     18450     18449     18447     18450
     18450     18453     18454     18450     18453     18455     18450     18453     18456
     18451     18450     18452     18451     18450     18453     18452     18450     18453
     18453     18456     18457     18453     18456     18458     18453     18456     18459
     18454     18453     18455     18454     18453     18456     18455     18453     18456
     18456     18459     18460     18456     18459     18461     18456     18459     18462
     18457     18456     18458     18457     18456     18459     18458     18456     18459
     18459     18462     18463     18459     18462     18464     18459     18462     18465
     18460     18459     18461     18460     18459     18462     18461     18459     18462
     18462     18465     18466     18462     18465     18467     18462     18465     18468
     18463     18462     18464     18463     18462     18465     18464     18462     18465
     18465     18468     18469     18465     18468     18470     18465     18468     18471
     18466     18465     18467     18466     18465     18468     18467     18465     18468
     18468     18471     18472     18468     18471     18473     18468     18471     18474
     18469     18468     18470     18469     18468     18471     18470     18468     18471
     18471     18474     18475     18471     18474     18476     18471     18474     18477
     18472     18471     18473     18472     18471     18474     18473     18471     18474
     18475     18474     18476     18475     18474     18477     18476     18474     18477
     18478     18479     18480     18478     18479     18481     18478     18479     18494
     18478     18482     18483     18478     18482     18484     18478     18482     18485
     18478     18486     18487     18478     18486     18488     18478     18486     18489
     18478     18490     18491     18478     18490     18492     18478     18490     18493
     18479     18478     18482     18479     18478     18486     18479     18478     18490
     18479     18494     18495     18479     18494     18496     18479     18494     18500
     18480     18479     18481     18480     18479     18494     18481     18479     18494
     18482     18478     18486     18482     18478     18490     18483     18482     18484
     18483     18482     18485     18484     18482     18485     18486     18478     18490
     18487     18486     18488     18487     18486     18489     18488     18486     18489
     18491     18490     18492     18491     18490     18493     18492     18490     18493
     18494     18500     18497     18495     18494     18496     18495     18494     18500
     18496     18494     18500     18497     18501     18502     18498     18497     18499
     18498     18497     18500     18498     18497     18501     18499     18497     18500
     18499     18497     18501     18500     18497     18501     18501     18502     18503
     18501     18502     18504     18501     18502     18505     18502     18505     18506
     18502     18505     18507     18502     18505     18513     18503     18502     18504
     18503     18502     18505     18504     18502     18505     18505     18507     18508
     18505     18513     18514     18505     18513     18515     18505     18513     18516
     18506     18505     18507     18506     18505     18513     18507     18505     18513
     18507     18508     18509     18507     18508     18510     18508     18510     18511
     18508     18510     18512     18508     18510     18522     18509     18508     18510
     18510     18522     18523     18510     18522     18524     18510     18522     18525
     18511     18510     18512     18511     18510     18522     18512     18510     18522
     18513     18516     18517     18514     18513     18515     18514     18513     18516
     18515     18513     18516     18516     18517     18518     18516     18517     18519
     18517     18519     18520     18517     18519     18521     18517     18519     18569
     18518     18517     18519     18519     18569     18570     18519     18569     18571
     18519     18569     18572     18520     18519     18521     18520     18519     18569
     18521     18519     18569     18522     18525     18526     18522     18525     18527
     18522     18525     18528     18523     18522     18524     18523     18522     18525
     18524     18522     18525     18525     18528     18529     18525     18528     18530
     18525     18528     18531     18526     18525     18527     18526     18525     18528
     18527     18525     18528     18528     18531     18532     18528     18531     18533
     18528     18531     18534     18529     18528     18530     18529     18528     18531
     18530     18528     18531     18531     18534     18535     18531     18534     18536
     18531     18534     18537     18532     18531     18533     18532     18531     18534
     18533     18531     18534     18534     18537     18538     18534     18537     18539
     18534     18537     18540     18535     18534     18536     18535     18534     18537
     18536     18534     18537     18537     18540     18541     18537     18540     18542
     18538     18537     18539     18538     18537     18540     18539     18537     18540
     18540     18542     18543     18540     18542     18544     18541     18540     18542
     18542     18544     18545     18542     18544     18546     18542     18544     18547
     18543     18542     18544     18544     18547     18548     18544     18547     18549
     18544     18547     18550     18545     18544     18546     18545     18544     18547
     18546     18544     18547     18547     18550     18551     18547     18550     18552
     18547     18550     18553     18548     18547     18549     18548     18547     18550
     18549     18547     18550     18550     18553     18554     18550     18553     18555
     18550     18553     18556     18551     18550     18552     18551     18550     18553
     18552     18550     18553     18553     18556     18557     18553     18556     18558
     18553     18556     18559     18554     18553     18555     18554     18553     18556
     18555     18553     18556     18556     18559     18560     18556     18559     18561
     18556     18559     18562     18557     18556     18558     18557     18556     18559
     18558     18556     18559     18559     18562     18563     18559     18562     18564
     18559     18562     18565     18560     18559     18561     18560     18559     18562
     18561     18559     18562     18562     18565     18566     18562     18565     18567
     18562     18565     18568     18563     18562     18564     18563     18562     18565
     18564     18562     18565     18566     18565     18567     18566     18565     18568
     18567     18565     18568     18569     18572     18573     18569     18572     18574
     18569     18572     18575     18570     18569     18571     18570     18569     18572
     18571     18569     18572     18572     18575     18576     18572     18575     18577
     18572     18575     18578     18573     18572     18574     18573     18572     18575
     18574     18572     18575     18575     18578     18579     18575     18578     18580
     18575     18578     18581     18576     18575     18577     18576     18575     18578
     18577     18575     18578     18578     18581     18582     18578     18581     18583
     18578     18581     18584     18579     18578     18580     18579     18578     18581
     18580     18578     18581     18581     18584     18585     18581     18584     18586
     18581     18584     18587     18582     18581     18583     18582     18581     18584
     18583     18581     18584     18584     18587     18588     18584     18587     18589
     18584     18587     18590     18585     18584     18586     18585     18584     18587
     18586     18584     18587     18587     18590     18591     18587     18590     18592
     18587     18590     18593     18588     18587     18589     18588     18587     18590
     18589     18587     18590     18590     18593     18594     18590     18593     18595
     18590     18593     18596     18591     18590     18592     18591     18590     18593
     18592     18590     18593     18593     18596     18597     18593     18596     18598
     18593     18596     18599     18594     18593     18595     18594     18593     18596
     18595     18593     18596     18596     18599     18600     18596     18599     18601
     18596     18599     18602     18597     18596     18598     18597     18596     18599
     18598     18596     18599     18599     18602     18603     18599     18602     18604
     18599     18602     18605     18600     18599     18601     18600     18599     18602
     18601     18599     18602     18602     18605     18606     18602     18605     18607
     18602     18605     18608     18603     18602     18604     18603     18602     18605
     18604     18602     18605     18605     18608     18609     18605     18608     18610
     18605     18608     18611     18606     18605     18607     18606     18605     18608
     18607     18605     18608     18609     18608     18610     18609     18608     18611
     18610     18608     18611     18612     18616     18617     18612     18616     18618
     18612     18616     18619     18613     18612     18614     18613     18612     18615
     18613     18612     18616     18614     18612     18615     18614     18612     18616
     18615     18612     18616     18616     18619     18620     18616     18619     18621
     18616     18619     18626     18617     18616     18618     18617     18616     18619
     18618     18616     18619     18619     18626     18622     18620     18619     18621
     18620     18619     18626     18621     18619     18626     18622     18625     18627
     18623     18622     18624     18623     18622     18625     18623     18622     18626
     18624     18622     18625     18624     18622     18626     18625     18622     18626
     18625     18627     18628     18625     18627     18629     18625     18627     18630
     18627     18630     18631     18627     18630     18632     18627     18630     18638
     18628     18627     18629     18628     18627     18630     18629     18627     18630
     18630     18632     18633     18630     18638     18639     18630     18638     18640
     18630     18638     18641     18631     18630     18632     18631     18630     18638
     18632     18630     18638     18632     18633     18634     18632     18633     18635
     18633     18635     18636     18633     18635     18637     18633     18635     18647
     18634     18633     18635     18635     18647     18648     18635     18647     18649
     18635     18647     18650     18636     18635     18637     18636     18635     18647
     18637     18635     18647     18638     18641     18642     18639     18638     18640
     18639     18638     18641     18640     18638     18641     18641     18642     18643
     18641     18642     18644     18642     18644     18645     18642     18644     18646
     18642     18644     18694     18643     18642     18644     18644     18694     18695
     18644     18694     18696     18644     18694     18697     18645     18644     18646
     18645     18644     18694     18646     18644     18694     18647     18650     18651
     18647     18650     18652     18647     18650     18653     18648     18647     18649
     18648     18647     18650     18649     18647     18650     18650     18653     18654
     18650     18653     18655     18650     18653     18656     18651     18650     18652
     18651     18650     18653     18652     18650     18653     18653     18656     18657
     18653     18656     18658     18653     18656     18659     18654     18653     18655
     18654     18653     18656     18655     18653     18656     18656     18659     18660
     18656     18659     18661     18656     18659     18662     18657     18656     18658
     18657     18656     18659     18658     18656     18659     18659     18662     18663
     18659     18662     18664     18659     18662     18665     18660     18659     18661
     18660     18659     18662     18661     18659     18662     18662     18665     18666
     18662     18665     18667     18663     18662     18664     18663     18662     18665
     18664     18662     18665     18665     18667     18668     18665     18667     18669
     18666     18665     18667     18667     18669     18670     18667     18669     18671
     18667     18669     18672     18668     18667     18669     18669     18672     18673
     18669     18672     18674     18669     18672     18675     18670     18669     18671
     18670     18669     18672     18671     18669     18672     18672     18675     18676
     18672     18675     18677     18672     18675     18678     18673     18672     18674
     18673     18672     18675     18674     18672     18675     18675     18678     18679
     18675     18678     18680     18675     18678     18681     18676     18675     18677
     18676     18675     18678     18677     18675     18678     18678     18681     18682
     18678     18681     18683     18678     18681     18684     18679     18678     18680
     18679     18678     18681     18680     18678     18681     18681     18684     18685
     18681     18684     18686     18681     18684     18687     18682     18681     18683
     18682     18681     18684     18683     18681     18684     18684     18687     18688
     18684     18687     18689     18684     18687     18690     18685     18684     18686
     18685     18684     18687     18686     18684     18687     18687     18690     18691
     18687     18690     18692     18687     18690     18693     18688     18687     18689
     18688     18687     18690     18689     18687     18690     18691     18690     18692
     18691     18690     18693     18692     18690     18693     18694     18697     18698
     18694     18697     18699     18694     18697     18700     18695     18694     18696
     18695     18694     18697     18696     18694     18697     18697     18700     18701
     18697     18700     18702     18697     18700     18703     18698     18697     18699
     18698     18697     18700     18699     18697     18700     18700     18703     18704
     18700     18703     18705     18700     18703     18706     18701     18700     18702
     18701     18700     18703     18702     18700     18703     18703     18706     18707
     18703     18706     18708     18703     18706     18709     18704     18703     18705
     18704     18703     18706     18705     18703     18706     18706     18709     18710
     18706     18709     18711     18706     18709     18712     18707     18706     18708
     18707     18706     18709     18708     18706     18709     18709     18712     18713
     18709     18712     18714     18709     18712     18715     18710     18709     18711
     18710     18709     18712     18711     18709     18712     18712     18715     18716
     18712     18715     18717     18712     18715     18718     18713     18712     18714
     18713     18712     18715     18714     18712     18715     18715     18718     18719
     18715     18718     18720     18715     18718     18721     18716     18715     18717
     18716     18715     18718     18717     18715     18718     18718     18721     18722
     18718     18721     18723     18718     18721     18724     18719     18718     18720
     18719     18718     18721     18720     18718     18721     18721     18724     18725
     18721     18724     18726     18721     18724     18727     18722     18721     18723
     18722     18721     18724     18723     18721     18724     18724     18727     18728
     18724     18727     18729     18724     18727     18730     18725     18724     18726
     18725     18724     18727     18726     18724     18727     18727     18730     18731
     18727     18730     18732     18727     18730     18733     18728     18727     18729
     18728     18727     18730     18729     18727     18730     18730     18733     18734
     18730     18733     18735     18730     18733     18736     18731     18730     18732
     18731     18730     18733     18732     18730     18733     18734     18733     18735
     18734     18733     18736     18735     18733     18736     18737     18741     18742
     18737     18741     18743     18737     18741     18744     18738     18737     18739
     18738     18737     18740     18738     18737     18741     18739     18737     18740
     18739     18737     18741     18740     18737     18741     18741     18744     18745
     18741     18744     18746     18741     18744     18751     18742     18741     18743
     18742     18741     18744     18743     18741     18744     18744     18751     18747
     18745     18744     18746     18745     18744     18751     18746     18744     18751
     18747     18750     18752     18748     18747     18749     18748     18747     18750
     18748     18747     18751     18749     18747     18750     18749     18747     18751
     18750     18747     18751     18750     18752     18753     18750     18752     18754
     18750     18752     18755     18752     18755     18756     18752     18755     18757
     18752     18755     18763     18753     18752     18754     18753     18752     18755
     18754     18752     18755     18755     18757     18758     18755     18763     18764
     18755     18763     18765     18755     18763     18766     18756     18755     18757
     18756     18755     18763     18757     18755     18763     18757     18758     18759
     18757     18758     18760     18758     18760     18761     18758     18760     18762
     18758     18760     18772     18759     18758     18760     18760     18772     18773
     18760     18772     18774     18760     18772     18775     18761     18760     18762
     18761     18760     18772     18762     18760     18772     18763     18766     18767
     18764     18763     18765     18764     18763     18766     18765     18763     18766
     18766     18767     18768     18766     18767     18769     18767     18769     18770
     18767     18769     18771     18767     18769     18819     18768     18767     18769
     18769     18819     18820     18769     18819     18821     18769     18819     18822
     18770     18769     18771     18770     18769     18819     18771     18769     18819
     18772     18775     18776     18772     18775     18777     18772     18775     18778
     18773     18772     18774     18773     18772     18775     18774     18772     18775
     18775     18778     18779     18775     18778     18780     18775     18778     18781
     18776     18775     18777     18776     18775     18778     18777     18775     18778
     18778     18781     18782     18778     18781     18783     18778     18781     18784
     18779     18778     18780     18779     18778     18781     18780     18778     18781
     18781     18784     18785     18781     18784     18786     18781     18784     18787
     18782     18781     18783     18782     18781     18784     18783     18781     18784
     18784     18787     18788     18784     18787     18789     18784     18787     18790
     18785     18784     18786     18785     18784     18787     18786     18784     18787
     18787     18790     18791     18787     18790     18792     18788     18787     18789
     18788     18787     18790     18789     18787     18790     18790     18792     18793
     18790     18792     18794     18791     18790     18792     18792     18794     18795
     18792     18794     18796     18792     18794     18797     18793     18792     18794
     18794     18797     18798     18794     18797     18799     18794     18797     18800
     18795     18794     18796     18795     18794     18797     18796     18794     18797
     18797     18800     18801     18797     18800     18802     18797     18800     18803
     18798     18797     18799     18798     18797     18800     18799     18797     18800
     18800     18803     18804     18800     18803     18805     18800     18803     18806
     18801     18800     18802     18801     18800     18803     18802     18800     18803
     18803     18806     18807     18803     18806     18808     18803     18806     18809
     18804     18803     18805     18804     18803     18806     18805     18803     18806
     18806     18809     18810     18806     18809     18811     18806     18809     18812
     18807     18806     18808     18807     18806     18809     18808     18806     18809
     18809     18812     18813     18809     18812     18814     18809     18812     18815
     18810     18809     18811     18810     18809     18812     18811     18809     18812
     18812     18815     18816     18812     18815     18817     18812     18815     18818
     18813     18812     18814     18813     18812     18815     18814     18812     18815
     18816     18815     18817     18816     18815     18818     18817     18815     18818
     18819     18822     18823     18819     18822     18824     18819     18822     18825
     18820     18819     18821     18820     18819     18822     18821     18819     18822
     18822     18825     18826     18822     18825     18827     18822     18825     18828
     18823     18822     18824     18823     18822     18825     18824     18822     18825
     18825     18828     18829     18825     18828     18830     18825     18828     18831
     18826     18825     18827     18826     18825     18828     18827     18825     18828
     18828     18831     18832     18828     18831     18833     18828     18831     18834
     18829     18828     18830     18829     18828     18831     18830     18828     18831
     18831     18834     18835     18831     18834     18836     18831     18834     18837
     18832     18831     18833     18832     18831     18834     18833     18831     18834
     18834     18837     18838     18834     18837     18839     18834     18837     18840
     18835     18834     18836     18835     18834     18837     18836     18834     18837
     18837     18840     18841     18837     18840     18842     18837     18840     18843
     18838     18837     18839     18838     18837     18840     18839     18837     18840
     18840     18843     18844     18840     18843     18845     18840     18843     18846
     18841     18840     18842     18841     18840     18843     18842     18840     18843
     18843     18846     18847     18843     18846     18848     18843     18846     18849
     18844     18843     18845     18844     18843     18846     18845     18843     18846
     18846     18849     18850     18846     18849     18851     18846     18849     18852
     18847     18846     18848     18847     18846     18849     18848     18846     18849
     18849     18852     18853     18849     18852     18854     18849     18852     18855
     18850     18849     18851     18850     18849     18852     18851     18849     18852
     18852     18855     18856     18852     18855     18857     18852     18855     18858
     18853     18852     18854     18853     18852     18855     18854     18852     18855
     18855     18858     18859     18855     18858     18860     18855     18858     18861
     18856     18855     18857     18856     18855     18858     18857     18855     18858
     18859     18858     18860     18859     18858     18861     18860     18858     18861
     18862     18866     18867     18862     18866     18868     18862     18866     18869
     18863     18862     18864     18863     18862     18865     18863     18862     18866
     18864     18862     18865     18864     18862     18866     18865     18862     18866
     18866     18869     18870     18866     18869     18871     18866     18869     18876
     18867     18866     18868     18867     18866     18869     18868     18866     18869
     18869     18876     18872     18870     18869     18871     18870     18869     18876
     18871     18869     18876     18872     18875     18877     18873     18872     18874
     18873     18872     18875     18873     18872     18876     18874     18872     18875
     18874     18872     18876     18875     18872     18876     18875     18877     18878
     18875     18877     18879     18875     18877     18880     18877     18880     18881
     18877     18880     18882     18877     18880     18888     18878     18877     18879
     18878     18877     18880     18879     18877     18880     18880     18882     18883
     18880     18888     18889     18880     18888     18890     18880     18888     18891
     18881     18880     18882     18881     18880     18888     18882     18880     18888
     18882     18883     18884     18882     18883     18885     18883     18885     18886
     18883     18885     18887     18883     18885     18897     18884     18883     18885
     18885     18897     18898     18885     18897     18899     18885     18897     18900
     18886     18885     18887     18886     18885     18897     18887     18885     18897
     18888     18891     18892     18889     18888     18890     18889     18888     18891
     18890     18888     18891     18891     18892     18893     18891     18892     18894
     18892     18894     18895     18892     18894     18896     18892     18894     18944
     18893     18892     18894     18894     18944     18945     18894     18944     18946
     18894     18944     18947     18895     18894     18896     18895     18894     18944
     18896     18894     18944     18897     18900     18901     18897     18900     18902
     18897     18900     18903     18898     18897     18899     18898     18897     18900
     18899     18897     18900     18900     18903     18904     18900     18903     18905
     18900     18903     18906     18901     18900     18902     18901     18900     18903
     18902     18900     18903     18903     18906     18907     18903     18906     18908
     18903     18906     18909     18904     18903     18905     18904     18903     18906
     18905     18903     18906     18906     18909     18910     18906     18909     18911
     18906     18909     18912     18907     18906     18908     18907     18906     18909
     18908     18906     18909     18909     18912     18913     18909     18912     18914
     18909     18912     18915     18910     18909     18911     18910     18909     18912
     18911     18909     18912     18912     18915     18916     18912     18915     18917
     18913     18912     18914     18913     18912     18915     18914     18912     18915
     18915     18917     18918     18915     18917     18919     18916     18915     18917
     18917     18919     18920     18917     18919     18921     18917     18919     18922
     18918     18917     18919     18919     18922     18923     18919     18922     18924
     18919     18922     18925     18920     18919     18921     18920     18919     18922
     18921     18919     18922     18922     18925     18926     18922     18925     18927
     18922     18925     18928     18923     18922     18924     18923     18922     18925
     18924     18922     18925     18925     18928     18929     18925     18928     18930
     18925     18928     18931     18926     18925     18927     18926     18925     18928
     18927     18925     18928     18928     18931     18932     18928     18931     18933
     18928     18931     18934     18929     18928     18930     18929     18928     18931
     18930     18928     18931     18931     18934     18935     18931     18934     18936
     18931     18934     18937     18932     18931     18933     18932     18931     18934
     18933     18931     18934     18934     18937     18938     18934     18937     18939
     18934     18937     18940     18935     18934     18936     18935     18934     18937
     18936     18934     18937     18937     18940     18941     18937     18940     18942
     18937     18940     18943     18938     18937     18939     18938     18937     18940
     18939     18937     18940     18941     18940     18942     18941     18940     18943
     18942     18940     18943     18944     18947     18948     18944     18947     18949
     18944     18947     18950     18945     18944     18946     18945     18944     18947
     18946     18944     18947     18947     18950     18951     18947     18950     18952
     18947     18950     18953     18948     18947     18949     18948     18947     18950
     18949     18947     18950     18950     18953     18954     18950     18953     18955
     18950     18953     18956     18951     18950     18952     18951     18950     18953
     18952     18950     18953     18953     18956     18957     18953     18956     18958
     18953     18956     18959     18954     18953     18955     18954     18953     18956
     18955     18953     18956     18956     18959     18960     18956     18959     18961
     18956     18959     18962     18957     18956     18958     18957     18956     18959
     18958     18956     18959     18959     18962     18963     18959     18962     18964
     18959     18962     18965     18960     18959     18961     18960     18959     18962
     18961     18959     18962     18962     18965     18966     18962     18965     18967
     18962     18965     18968     18963     18962     18964     18963     18962     18965
     18964     18962     18965     18965     18968     18969     18965     18968     18970
     18965     18968     18971     18966     18965     18967     18966     18965     18968
     18967     18965     18968     18968     18971     18972     18968     18971     18973
     18968     18971     18974     18969     18968     18970     18969     18968     18971
     18970     18968     18971     18971     18974     18975     18971     18974     18976
     18971     18974     18977     18972     18971     18973     18972     18971     18974
     18973     18971     18974     18974     18977     18978     18974     18977     18979
     18974     18977     18980     18975     18974     18976     18975     18974     18977
     18976     18974     18977     18977     18980     18981     18977     18980     18982
     18977     18980     18983     18978     18977     18979     18978     18977     18980
     18979     18977     18980     18980     18983     18984     18980     18983     18985
     18980     18983     18986     18981     18980     18982     18981     18980     18983
     18982     18980     18983     18984     18983     18985     18984     18983     18986
     18985     18983     18986     18987     18991     18992     18987     18991     18993
     18987     18991     18994     18988     18987     18989     18988     18987     18990
     18988     18987     18991     18989     18987     18990     18989     18987     18991
     18990     18987     18991     18991     18994     18995     18991     18994     18996
     18991     18994     19001     18992     18991     18993     18992     18991     18994
     18993     18991     18994     18994     19001     18997     18995     18994     18996
     18995     18994     19001     18996     18994     19001     18997     19000     19002
     18998     18997     18999     18998     18997     19000     18998     18997     19001
     18999     18997     19000     18999     18997     19001     19000     18997     19001
     19000     19002     19003     19000     19002     19004     19000     19002     19005
     19002     19005     19006     19002     19005     19007     19002     19005     19013
     19003     19002     19004     19003     19002     19005     19004     19002     19005
     19005     19007     19008     19005     19013     19014     19005     19013     19015
     19005     19013     19016     19006     19005     19007     19006     19005     19013
     19007     19005     19013     19007     19008     19009     19007     19008     19010
     19008     19010     19011     19008     19010     19012     19008     19010     19022
     19009     19008     19010     19010     19022     19023     19010     19022     19024
     19010     19022     19025     19011     19010     19012     19011     19010     19022
     19012     19010     19022     19013     19016     19017     19014     19013     19015
     19014     19013     19016     19015     19013     19016     19016     19017     19018
     19016     19017     19019     19017     19019     19020     19017     19019     19021
     19017     19019     19069     19018     19017     19019     19019     19069     19070
     19019     19069     19071     19019     19069     19072     19020     19019     19021
     19020     19019     19069     19021     19019     19069     19022     19025     19026
     19022     19025     19027     19022     19025     19028     19023     19022     19024
     19023     19022     19025     19024     19022     19025     19025     19028     19029
     19025     19028     19030     19025     19028     19031     19026     19025     19027
     19026     19025     19028     19027     19025     19028     19028     19031     19032
     19028     19031     19033     19028     19031     19034     19029     19028     19030
     19029     19028     19031     19030     19028     19031     19031     19034     19035
     19031     19034     19036     19031     19034     19037     19032     19031     19033
     19032     19031     19034     19033     19031     19034     19034     19037     19038
     19034     19037     19039     19034     19037     19040     19035     19034     19036
     19035     19034     19037     19036     19034     19037     19037     19040     19041
     19037     19040     19042     19038     19037     19039     19038     19037     19040
     19039     19037     19040     19040     19042     19043     19040     19042     19044
     19041     19040     19042     19042     19044     19045     19042     19044     19046
     19042     19044     19047     19043     19042     19044     19044     19047     19048
     19044     19047     19049     19044     19047     19050     19045     19044     19046
     19045     19044     19047     19046     19044     19047     19047     19050     19051
     19047     19050     19052     19047     19050     19053     19048     19047     19049
     19048     19047     19050     19049     19047     19050     19050     19053     19054
     19050     19053     19055     19050     19053     19056     19051     19050     19052
     19051     19050     19053     19052     19050     19053     19053     19056     19057
     19053     19056     19058     19053     19056     19059     19054     19053     19055
     19054     19053     19056     19055     19053     19056     19056     19059     19060
     19056     19059     19061     19056     19059     19062     19057     19056     19058
     19057     19056     19059     19058     19056     19059     19059     19062     19063
     19059     19062     19064     19059     19062     19065     19060     19059     19061
     19060     19059     19062     19061     19059     19062     19062     19065     19066
     19062     19065     19067     19062     19065     19068     19063     19062     19064
     19063     19062     19065     19064     19062     19065     19066     19065     19067
     19066     19065     19068     19067     19065     19068     19069     19072     19073
     19069     19072     19074     19069     19072     19075     19070     19069     19071
     19070     19069     19072     19071     19069     19072     19072     19075     19076
     19072     19075     19077     19072     19075     19078     19073     19072     19074
     19073     19072     19075     19074     19072     19075     19075     19078     19079
     19075     19078     19080     19075     19078     19081     19076     19075     19077
     19076     19075     19078     19077     19075     19078     19078     19081     19082
     19078     19081     19083     19078     19081     19084     19079     19078     19080
     19079     19078     19081     19080     19078     19081     19081     19084     19085
     19081     19084     19086     19081     19084     19087     19082     19081     19083
     19082     19081     19084     19083     19081     19084     19084     19087     19088
     19084     19087     19089     19084     19087     19090     19085     19084     19086
     19085     19084     19087     19086     19084     19087     19087     19090     19091
     19087     19090     19092     19087     19090     19093     19088     19087     19089
     19088     19087     19090     19089     19087     19090     19090     19093     19094
     19090     19093     19095     19090     19093     19096     19091     19090     19092
     19091     19090     19093     19092     19090     19093     19093     19096     19097
     19093     19096     19098     19093     19096     19099     19094     19093     19095
     19094     19093     19096     19095     19093     19096     19096     19099     19100
     19096     19099     19101     19096     19099     19102     19097     19096     19098
     19097     19096     19099     19098     19096     19099     19099     19102     19103
     19099     19102     19104     19099     19102     19105     19100     19099     19101
     19100     19099     19102     19101     19099     19102     19102     19105     19106
     19102     19105     19107     19102     19105     19108     19103     19102     19104
     19103     19102     19105     19104     19102     19105     19105     19108     19109
     19105     19108     19110     19105     19108     19111     19106     19105     19107
     19106     19105     19108     19107     19105     19108     19109     19108     19110
     19109     19108     19111     19110     19108     19111     19112     19113     19114
     19112     19113     19115     19112     19113     19128     19112     19116     19117
     19112     19116     19118     19112     19116     19119     19112     19120     19121
     19112     19120     19122     19112     19120     19123     19112     19124     19125
     19112     19124     19126     19112     19124     19127     19113     19112     19116
     19113     19112     19120     19113     19112     19124     19113     19128     19129
     19113     19128     19130     19113     19128     19134     19114     19113     19115
     19114     19113     19128     19115     19113     19128     19116     19112     19120
     19116     19112     19124     19117     19116     19118     19117     19116     19119
     19118     19116     19119     19120     19112     19124     19121     19120     19122
     19121     19120     19123     19122     19120     19123     19125     19124     19126
     19125     19124     19127     19126     19124     19127     19128     19134     19131
     19129     19128     19130     19129     19128     19134     19130     19128     19134
     19131     19135     19136     19132     19131     19133     19132     19131     19134
     19132     19131     19135     19133     19131     19134     19133     19131     19135
     19134     19131     19135     19135     19136     19137     19135     19136     19138
     19135     19136     19139     19136     19139     19140     19136     19139     19141
     19136     19139     19147     19137     19136     19138     19137     19136     19139
     19138     19136     19139     19139     19141     19142     19139     19147     19148
     19139     19147     19149     19139     19147     19150     19140     19139     19141
     19140     19139     19147     19141     19139     19147     19141     19142     19143
     19141     19142     19144     19142     19144     19145     19142     19144     19146
     19142     19144     19156     19143     19142     19144     19144     19156     19157
     19144     19156     19158     19144     19156     19159     19145     19144     19146
     19145     19144     19156     19146     19144     19156     19147     19150     19151
     19148     19147     19149     19148     19147     19150     19149     19147     19150
     19150     19151     19152     19150     19151     19153     19151     19153     19154
     19151     19153     19155     19151     19153     19203     19152     19151     19153
     19153     19203     19204     19153     19203     19205     19153     19203     19206
     19154     19153     19155     19154     19153     19203     19155     19153     19203
     19156     19159     19160     19156     19159     19161     19156     19159     19162
     19157     19156     19158     19157     19156     19159     19158     19156     19159
     19159     19162     19163     19159     19162     19164     19159     19162     19165
     19160     19159     19161     19160     19159     19162     19161     19159     19162
     19162     19165     19166     19162     19165     19167     19162     19165     19168
     19163     19162     19164     19163     19162     19165     19164     19162     19165
     19165     19168     19169     19165     19168     19170     19165     19168     19171
     19166     19165     19167     19166     19165     19168     19167     19165     19168
     19168     19171     19172     19168     19171     19173     19168     19171     19174
     19169     19168     19170     19169     19168     19171     19170     19168     19171
     19171     19174     19175     19171     19174     19176     19172     19171     19173
     19172     19171     19174     19173     19171     19174     19174     19176     19177
     19174     19176     19178     19175     19174     19176     19176     19178     19179
     19176     19178     19180     19176     19178     19181     19177     19176     19178
     19178     19181     19182     19178     19181     19183     19178     19181     19184
     19179     19178     19180     19179     19178     19181     19180     19178     19181
     19181     19184     19185     19181     19184     19186     19181     19184     19187
     19182     19181     19183     19182     19181     19184     19183     19181     19184
     19184     19187     19188     19184     19187     19189     19184     19187     19190
     19185     19184     19186     19185     19184     19187     19186     19184     19187
     19187     19190     19191     19187     19190     19192     19187     19190     19193
     19188     19187     19189     19188     19187     19190     19189     19187     19190
     19190     19193     19194     19190     19193     19195     19190     19193     19196
     19191     19190     19192     19191     19190     19193     19192     19190     19193
     19193     19196     19197     19193     19196     19198     19193     19196     19199
     19194     19193     19195     19194     19193     19196     19195     19193     19196
     19196     19199     19200     19196     19199     19201     19196     19199     19202
     19197     19196     19198     19197     19196     19199     19198     19196     19199
     19200     19199     19201     19200     19199     19202     19201     19199     19202
     19203     19206     19207     19203     19206     19208     19203     19206     19209
     19204     19203     19205     19204     19203     19206     19205     19203     19206
     19206     19209     19210     19206     19209     19211     19206     19209     19212
     19207     19206     19208     19207     19206     19209     19208     19206     19209
     19209     19212     19213     19209     19212     19214     19209     19212     19215
     19210     19209     19211     19210     19209     19212     19211     19209     19212
     19212     19215     19216     19212     19215     19217     19212     19215     19218
     19213     19212     19214     19213     19212     19215     19214     19212     19215
     19215     19218     19219     19215     19218     19220     19215     19218     19221
     19216     19215     19217     19216     19215     19218     19217     19215     19218
     19218     19221     19222     19218     19221     19223     19218     19221     19224
     19219     19218     19220     19219     19218     19221     19220     19218     19221
     19221     19224     19225     19221     19224     19226     19221     19224     19227
     19222     19221     19223     19222     19221     19224     19223     19221     19224
     19224     19227     19228     19224     19227     19229     19224     19227     19230
     19225     19224     19226     19225     19224     19227     19226     19224     19227
     19227     19230     19231     19227     19230     19232     19227     19230     19233
     19228     19227     19229     19228     19227     19230     19229     19227     19230
     19230     19233     19234     19230     19233     19235     19230     19233     19236
     19231     19230     19232     19231     19230     19233     19232     19230     19233
     19233     19236     19237     19233     19236     19238     19233     19236     19239
     19234     19233     19235     19234     19233     19236     19235     19233     19236
     19236     19239     19240     19236     19239     19241     19236     19239     19242
     19237     19236     19238     19237     19236     19239     19238     19236     19239
     19239     19242     19243     19239     19242     19244     19239     19242     19245
     19240     19239     19241     19240     19239     19242     19241     19239     19242
     19243     19242     19244     19243     19242     19245     19244     19242     19245
     19246     19247     19248     19246     19247     19249     19246     19247     19262
     19246     19250     19251     19246     19250     19252     19246     19250     19253
     19246     19254     19255     19246     19254     19256     19246     19254     19257
     19246     19258     19259     19246     19258     19260     19246     19258     19261
     19247     19246     19250     19247     19246     19254     19247     19246     19258
     19247     19262     19263     19247     19262     19264     19247     19262     19268
     19248     19247     19249     19248     19247     19262     19249     19247     19262
     19250     19246     19254     19250     19246     19258     19251     19250     19252
     19251     19250     19253     19252     19250     19253     19254     19246     19258
     19255     19254     19256     19255     19254     19257     19256     19254     19257
     19259     19258     19260     19259     19258     19261     19260     19258     19261
     19262     19268     19265     19263     19262     19264     19263     19262     19268
     19264     19262     19268     19265     19269     19270     19266     19265     19267
     19266     19265     19268     19266     19265     19269     19267     19265     19268
     19267     19265     19269     19268     19265     19269     19269     19270     19271
     19269     19270     19272     19269     19270     19273     19270     19273     19274
     19270     19273     19275     19270     19273     19281     19271     19270     19272
     19271     19270     19273     19272     19270     19273     19273     19275     19276
     19273     19281     19282     19273     19281     19283     19273     19281     19284
     19274     19273     19275     19274     19273     19281     19275     19273     19281
     19275     19276     19277     19275     19276     19278     19276     19278     19279
     19276     19278     19280     19276     19278     19290     19277     19276     19278
     19278     19290     19291     19278     19290     19292     19278     19290     19293
     19279     19278     19280     19279     19278     19290     19280     19278     19290
     19281     19284     19285     19282     19281     19283     19282     19281     19284
     19283     19281     19284     19284     19285     19286     19284     19285     19287
     19285     19287     19288     19285     19287     19289     19285     19287     19337
     19286     19285     19287     19287     19337     19338     19287     19337     19339
     19287     19337     19340     19288     19287     19289     19288     19287     19337
     19289     19287     19337     19290     19293     19294     19290     19293     19295
     19290     19293     19296     19291     19290     19292     19291     19290     19293
     19292     19290     19293     19293     19296     19297     19293     19296     19298
     19293     19296     19299     19294     19293     19295     19294     19293     19296
     19295     19293     19296     19296     19299     19300     19296     19299     19301
     19296     19299     19302     19297     19296     19298     19297     19296     19299
     19298     19296     19299     19299     19302     19303     19299     19302     19304
     19299     19302     19305     19300     19299     19301     19300     19299     19302
     19301     19299     19302     19302     19305     19306     19302     19305     19307
     19302     19305     19308     19303     19302     19304     19303     19302     19305
     19304     19302     19305     19305     19308     19309     19305     19308     19310
     19306     19305     19307     19306     19305     19308     19307     19305     19308
     19308     19310     19311     19308     19310     19312     19309     19308     19310
     19310     19312     19313     19310     19312     19314     19310     19312     19315
     19311     19310     19312     19312     19315     19316     19312     19315     19317
     19312     19315     19318     19313     19312     19314     19313     19312     19315
     19314     19312     19315     19315     19318     19319     19315     19318     19320
     19315     19318     19321     19316     19315     19317     19316     19315     19318
     19317     19315     19318     19318     19321     19322     19318     19321     19323
     19318     19321     19324     19319     19318     19320     19319     19318     19321
     19320     19318     19321     19321     19324     19325     19321     19324     19326
     19321     19324     19327     19322     19321     19323     19322     19321     19324
     19323     19321     19324     19324     19327     19328     19324     19327     19329
     19324     19327     19330     19325     19324     19326     19325     19324     19327
     19326     19324     19327     19327     19330     19331     19327     19330     19332
     19327     19330     19333     19328     19327     19329     19328     19327     19330
     19329     19327     19330     19330     19333     19334     19330     19333     19335
     19330     19333     19336     19331     19330     19332     19331     19330     19333
     19332     19330     19333     19334     19333     19335     19334     19333     19336
     19335     19333     19336     19337     19340     19341     19337     19340     19342
     19337     19340     19343     19338     19337     19339     19338     19337     19340
     19339     19337     19340     19340     19343     19344     19340     19343     19345
     19340     19343     19346     19341     19340     19342     19341     19340     19343
     19342     19340     19343     19343     19346     19347     19343     19346     19348
     19343     19346     19349     19344     19343     19345     19344     19343     19346
     19345     19343     19346     19346     19349     19350     19346     19349     19351
     19346     19349     19352     19347     19346     19348     19347     19346     19349
     19348     19346     19349     19349     19352     19353     19349     19352     19354
     19349     19352     19355     19350     19349     19351     19350     19349     19352
     19351     19349     19352     19352     19355     19356     19352     19355     19357
     19352     19355     19358     19353     19352     19354     19353     19352     19355
     19354     19352     19355     19355     19358     19359     19355     19358     19360
     19355     19358     19361     19356     19355     19357     19356     19355     19358
     19357     19355     19358     19358     19361     19362     19358     19361     19363
     19358     19361     19364     19359     19358     19360     19359     19358     19361
     19360     19358     19361     19361     19364     19365     19361     19364     19366
     19361     19364     19367     19362     19361     19363     19362     19361     19364
     19363     19361     19364     19364     19367     19368     19364     19367     19369
     19364     19367     19370     19365     19364     19366     19365     19364     19367
     19366     19364     19367     19367     19370     19371     19367     19370     19372
     19367     19370     19373     19368     19367     19369     19368     19367     19370
     19369     19367     19370     19370     19373     19374     19370     19373     19375
     19370     19373     19376     19371     19370     19372     19371     19370     19373
     19372     19370     19373     19373     19376     19377     19373     19376     19378
     19373     19376     19379     19374     19373     19375     19374     19373     19376
     19375     19373     19376     19377     19376     19378     19377     19376     19379
     19378     19376     19379     19380     19384     19385     19380     19384     19386
     19380     19384     19387     19381     19380     19382     19381     19380     19383
     19381     19380     19384     19382     19380     19383     19382     19380     19384
     19383     19380     19384     19384     19387     19388     19384     19387     19389
     19384     19387     19394     19385     19384     19386     19385     19384     19387
     19386     19384     19387     19387     19394     19390     19388     19387     19389
     19388     19387     19394     19389     19387     19394     19390     19393     19395
     19391     19390     19392     19391     19390     19393     19391     19390     19394
     19392     19390     19393     19392     19390     19394     19393     19390     19394
     19393     19395     19396     19393     19395     19397     19393     19395     19398
     19395     19398     19399     19395     19398     19400     19395     19398     19406
     19396     19395     19397     19396     19395     19398     19397     19395     19398
     19398     19400     19401     19398     19406     19407     19398     19406     19408
     19398     19406     19409     19399     19398     19400     19399     19398     19406
     19400     19398     19406     19400     19401     19402     19400     19401     19403
     19401     19403     19404     19401     19403     19405     19401     19403     19415
     19402     19401     19403     19403     19415     19416     19403     19415     19417
     19403     19415     19418     19404     19403     19405     19404     19403     19415
     19405     19403     19415     19406     19409     19410     19407     19406     19408
     19407     19406     19409     19408     19406     19409     19409     19410     19411
     19409     19410     19412     19410     19412     19413     19410     19412     19414
     19410     19412     19462     19411     19410     19412     19412     19462     19463
     19412     19462     19464     19412     19462     19465     19413     19412     19414
     19413     19412     19462     19414     19412     19462     19415     19418     19419
     19415     19418     19420     19415     19418     19421     19416     19415     19417
     19416     19415     19418     19417     19415     19418     19418     19421     19422
     19418     19421     19423     19418     19421     19424     19419     19418     19420
     19419     19418     19421     19420     19418     19421     19421     19424     19425
     19421     19424     19426     19421     19424     19427     19422     19421     19423
     19422     19421     19424     19423     19421     19424     19424     19427     19428
     19424     19427     19429     19424     19427     19430     19425     19424     19426
     19425     19424     19427     19426     19424     19427     19427     19430     19431
     19427     19430     19432     19427     19430     19433     19428     19427     19429
     19428     19427     19430     19429     19427     19430     19430     19433     19434
     19430     19433     19435     19431     19430     19432     19431     19430     19433
     19432     19430     19433     19433     19435     19436     19433     19435     19437
     19434     19433     19435     19435     19437     19438     19435     19437     19439
     19435     19437     19440     19436     19435     19437     19437     19440     19441
     19437     19440     19442     19437     19440     19443     19438     19437     19439
     19438     19437     19440     19439     19437     19440     19440     19443     19444
     19440     19443     19445     19440     19443     19446     19441     19440     19442
     19441     19440     19443     19442     19440     19443     19443     19446     19447
     19443     19446     19448     19443     19446     19449     19444     19443     19445
     19444     19443     19446     19445     19443     19446     19446     19449     19450
     19446     19449     19451     19446     19449     19452     19447     19446     19448
     19447     19446     19449     19448     19446     19449     19449     19452     19453
     19449     19452     19454     19449     19452     19455     19450     19449     19451
     19450     19449     19452     19451     19449     19452     19452     19455     19456
     19452     19455     19457     19452     19455     19458     19453     19452     19454
     19453     19452     19455     19454     19452     19455     19455     19458     19459
     19455     19458     19460     19455     19458     19461     19456     19455     19457
     19456     19455     19458     19457     19455     19458     19459     19458     19460
     19459     19458     19461     19460     19458     19461     19462     19465     19466
     19462     19465     19467     19462     19465     19468     19463     19462     19464
     19463     19462     19465     19464     19462     19465     19465     19468     19469
     19465     19468     19470     19465     19468     19471     19466     19465     19467
     19466     19465     19468     19467     19465     19468     19468     19471     19472
     19468     19471     19473     19468     19471     19474     19469     19468     19470
     19469     19468     19471     19470     19468     19471     19471     19474     19475
     19471     19474     19476     19471     19474     19477     19472     19471     19473
     19472     19471     19474     19473     19471     19474     19474     19477     19478
     19474     19477     19479     19474     19477     19480     19475     19474     19476
     19475     19474     19477     19476     19474     19477     19477     19480     19481
     19477     19480     19482     19477     19480     19483     19478     19477     19479
     19478     19477     19480     19479     19477     19480     19480     19483     19484
     19480     19483     19485     19480     19483     19486     19481     19480     19482
     19481     19480     19483     19482     19480     19483     19483     19486     19487
     19483     19486     19488     19483     19486     19489     19484     19483     19485
     19484     19483     19486     19485     19483     19486     19486     19489     19490
     19486     19489     19491     19486     19489     19492     19487     19486     19488
     19487     19486     19489     19488     19486     19489     19489     19492     19493
     19489     19492     19494     19489     19492     19495     19490     19489     19491
     19490     19489     19492     19491     19489     19492     19492     19495     19496
     19492     19495     19497     19492     19495     19498     19493     19492     19494
     19493     19492     19495     19494     19492     19495     19495     19498     19499
     19495     19498     19500     19495     19498     19501     19496     19495     19497
     19496     19495     19498     19497     19495     19498     19498     19501     19502
     19498     19501     19503     19498     19501     19504     19499     19498     19500
     19499     19498     19501     19500     19498     19501     19502     19501     19503
     19502     19501     19504     19503     19501     19504     19505     19506     19507
     19505     19506     19508     19505     19506     19521     19505     19509     19510
     19505     19509     19511     19505     19509     19512     19505     19513     19514
     19505     19513     19515     19505     19513     19516     19505     19517     19518
     19505     19517     19519     19505     19517     19520     19506     19505     19509
     19506     19505     19513     19506     19505     19517     19506     19521     19522
     19506     19521     19523     19506     19521     19527     19507     19506     19508
     19507     19506     19521     19508     19506     19521     19509     19505     19513
     19509     19505     19517     19510     19509     19511     19510     19509     19512
     19511     19509     19512     19513     19505     19517     19514     19513     19515
     19514     19513     19516     19515     19513     19516     19518     19517     19519
     19518     19517     19520     19519     19517     19520     19521     19527     19524
     19522     19521     19523     19522     19521     19527     19523     19521     19527
     19524     19528     19529     19525     19524     19526     19525     19524     19527
     19525     19524     19528     19526     19524     19527     19526     19524     19528
     19527     19524     19528     19528     19529     19530     19528     19529     19531
     19528     19529     19532     19529     19532     19533     19529     19532     19534
     19529     19532     19540     19530     19529     19531     19530     19529     19532
     19531     19529     19532     19532     19534     19535     19532     19540     19541
     19532     19540     19542     19532     19540     19543     19533     19532     19534
     19533     19532     19540     19534     19532     19540     19534     19535     19536
     19534     19535     19537     19535     19537     19538     19535     19537     19539
     19535     19537     19549     19536     19535     19537     19537     19549     19550
     19537     19549     19551     19537     19549     19552     19538     19537     19539
     19538     19537     19549     19539     19537     19549     19540     19543     19544
     19541     19540     19542     19541     19540     19543     19542     19540     19543
     19543     19544     19545     19543     19544     19546     19544     19546     19547
     19544     19546     19548     19544     19546     19596     19545     19544     19546
     19546     19596     19597     19546     19596     19598     19546     19596     19599
     19547     19546     19548     19547     19546     19596     19548     19546     19596
     19549     19552     19553     19549     19552     19554     19549     19552     19555
     19550     19549     19551     19550     19549     19552     19551     19549     19552
     19552     19555     19556     19552     19555     19557     19552     19555     19558
     19553     19552     19554     19553     19552     19555     19554     19552     19555
     19555     19558     19559     19555     19558     19560     19555     19558     19561
     19556     19555     19557     19556     19555     19558     19557     19555     19558
     19558     19561     19562     19558     19561     19563     19558     19561     19564
     19559     19558     19560     19559     19558     19561     19560     19558     19561
     19561     19564     19565     19561     19564     19566     19561     19564     19567
     19562     19561     19563     19562     19561     19564     19563     19561     19564
     19564     19567     19568     19564     19567     19569     19565     19564     19566
     19565     19564     19567     19566     19564     19567     19567     19569     19570
     19567     19569     19571     19568     19567     19569     19569     19571     19572
     19569     19571     19573     19569     19571     19574     19570     19569     19571
     19571     19574     19575     19571     19574     19576     19571     19574     19577
     19572     19571     19573     19572     19571     19574     19573     19571     19574
     19574     19577     19578     19574     19577     19579     19574     19577     19580
     19575     19574     19576     19575     19574     19577     19576     19574     19577
     19577     19580     19581     19577     19580     19582     19577     19580     19583
     19578     19577     19579     19578     19577     19580     19579     19577     19580
     19580     19583     19584     19580     19583     19585     19580     19583     19586
     19581     19580     19582     19581     19580     19583     19582     19580     19583
     19583     19586     19587     19583     19586     19588     19583     19586     19589
     19584     19583     19585     19584     19583     19586     19585     19583     19586
     19586     19589     19590     19586     19589     19591     19586     19589     19592
     19587     19586     19588     19587     19586     19589     19588     19586     19589
     19589     19592     19593     19589     19592     19594     19589     19592     19595
     19590     19589     19591     19590     19589     19592     19591     19589     19592
     19593     19592     19594     19593     19592     19595     19594     19592     19595
     19596     19599     19600     19596     19599     19601     19596     19599     19602
     19597     19596     19598     19597     19596     19599     19598     19596     19599
     19599     19602     19603     19599     19602     19604     19599     19602     19605
     19600     19599     19601     19600     19599     19602     19601     19599     19602
     19602     19605     19606     19602     19605     19607     19602     19605     19608
     19603     19602     19604     19603     19602     19605     19604     19602     19605
     19605     19608     19609     19605     19608     19610     19605     19608     19611
     19606     19605     19607     19606     19605     19608     19607     19605     19608
     19608     19611     19612     19608     19611     19613     19608     19611     19614
     19609     19608     19610     19609     19608     19611     19610     19608     19611
     19611     19614     19615     19611     19614     19616     19611     19614     19617
     19612     19611     19613     19612     19611     19614     19613     19611     19614
     19614     19617     19618     19614     19617     19619     19614     19617     19620
     19615     19614     19616     19615     19614     19617     19616     19614     19617
     19617     19620     19621     19617     19620     19622     19617     19620     19623
     19618     19617     19619     19618     19617     19620     19619     19617     19620
     19620     19623     19624     19620     19623     19625     19620     19623     19626
     19621     19620     19622     19621     19620     19623     19622     19620     19623
     19623     19626     19627     19623     19626     19628     19623     19626     19629
     19624     19623     19625     19624     19623     19626     19625     19623     19626
     19626     19629     19630     19626     19629     19631     19626     19629     19632
     19627     19626     19628     19627     19626     19629     19628     19626     19629
     19629     19632     19633     19629     19632     19634     19629     19632     19635
     19630     19629     19631     19630     19629     19632     19631     19629     19632
     19632     19635     19636     19632     19635     19637     19632     19635     19638
     19633     19632     19634     19633     19632     19635     19634     19632     19635
     19636     19635     19637     19636     19635     19638     19637     19635     19638
     19639     19640     19641     19639     19640     19642     19639     19640     19655
     19639     19643     19644     19639     19643     19645     19639     19643     19646
     19639     19647     19648     19639     19647     19649     19639     19647     19650
     19639     19651     19652     19639     19651     19653     19639     19651     19654
     19640     19639     19643     19640     19639     19647     19640     19639     19651
     19640     19655     19656     19640     19655     19657     19640     19655     19661
     19641     19640     19642     19641     19640     19655     19642     19640     19655
     19643     19639     19647     19643     19639     19651     19644     19643     19645
     19644     19643     19646     19645     19643     19646     19647     19639     19651
     19648     19647     19649     19648     19647     19650     19649     19647     19650
     19652     19651     19653     19652     19651     19654     19653     19651     19654
     19655     19661     19658     19656     19655     19657     19656     19655     19661
     19657     19655     19661     19658     19662     19663     19659     19658     19660
     19659     19658     19661     19659     19658     19662     19660     19658     19661
     19660     19658     19662     19661     19658     19662     19662     19663     19664
     19662     19663     19665     19662     19663     19666     19663     19666     19667
     19663     19666     19668     19663     19666     19674     19664     19663     19665
     19664     19663     19666     19665     19663     19666     19666     19668     19669
     19666     19674     19675     19666     19674     19676     19666     19674     19677
     19667     19666     19668     19667     19666     19674     19668     19666     19674
     19668     19669     19670     19668     19669     19671     19669     19671     19672
     19669     19671     19673     19669     19671     19683     19670     19669     19671
     19671     19683     19684     19671     19683     19685     19671     19683     19686
     19672     19671     19673     19672     19671     19683     19673     19671     19683
     19674     19677     19678     19675     19674     19676     19675     19674     19677
     19676     19674     19677     19677     19678     19679     19677     19678     19680
     19678     19680     19681     19678     19680     19682     19678     19680     19730
     19679     19678     19680     19680     19730     19731     19680     19730     19732
     19680     19730     19733     19681     19680     19682     19681     19680     19730
     19682     19680     19730     19683     19686     19687     19683     19686     19688
     19683     19686     19689     19684     19683     19685     19684     19683     19686
     19685     19683     19686     19686     19689     19690     19686     19689     19691
     19686     19689     19692     19687     19686     19688     19687     19686     19689
     19688     19686     19689     19689     19692     19693     19689     19692     19694
     19689     19692     19695     19690     19689     19691     19690     19689     19692
     19691     19689     19692     19692     19695     19696     19692     19695     19697
     19692     19695     19698     19693     19692     19694     19693     19692     19695
     19694     19692     19695     19695     19698     19699     19695     19698     19700
     19695     19698     19701     19696     19695     19697     19696     19695     19698
     19697     19695     19698     19698     19701     19702     19698     19701     19703
     19699     19698     19700     19699     19698     19701     19700     19698     19701
     19701     19703     19704     19701     19703     19705     19702     19701     19703
     19703     19705     19706     19703     19705     19707     19703     19705     19708
     19704     19703     19705     19705     19708     19709     19705     19708     19710
     19705     19708     19711     19706     19705     19707     19706     19705     19708
     19707     19705     19708     19708     19711     19712     19708     19711     19713
     19708     19711     19714     19709     19708     19710     19709     19708     19711
     19710     19708     19711     19711     19714     19715     19711     19714     19716
     19711     19714     19717     19712     19711     19713     19712     19711     19714
     19713     19711     19714     19714     19717     19718     19714     19717     19719
     19714     19717     19720     19715     19714     19716     19715     19714     19717
     19716     19714     19717     19717     19720     19721     19717     19720     19722
     19717     19720     19723     19718     19717     19719     19718     19717     19720
     19719     19717     19720     19720     19723     19724     19720     19723     19725
     19720     19723     19726     19721     19720     19722     19721     19720     19723
     19722     19720     19723     19723     19726     19727     19723     19726     19728
     19723     19726     19729     19724     19723     19725     19724     19723     19726
     19725     19723     19726     19727     19726     19728     19727     19726     19729
     19728     19726     19729     19730     19733     19734     19730     19733     19735
     19730     19733     19736     19731     19730     19732     19731     19730     19733
     19732     19730     19733     19733     19736     19737     19733     19736     19738
     19733     19736     19739     19734     19733     19735     19734     19733     19736
     19735     19733     19736     19736     19739     19740     19736     19739     19741
     19736     19739     19742     19737     19736     19738     19737     19736     19739
     19738     19736     19739     19739     19742     19743     19739     19742     19744
     19739     19742     19745     19740     19739     19741     19740     19739     19742
     19741     19739     19742     19742     19745     19746     19742     19745     19747
     19742     19745     19748     19743     19742     19744     19743     19742     19745
     19744     19742     19745     19745     19748     19749     19745     19748     19750
     19745     19748     19751     19746     19745     19747     19746     19745     19748
     19747     19745     19748     19748     19751     19752     19748     19751     19753
     19748     19751     19754     19749     19748     19750     19749     19748     19751
     19750     19748     19751     19751     19754     19755     19751     19754     19756
     19751     19754     19757     19752     19751     19753     19752     19751     19754
     19753     19751     19754     19754     19757     19758     19754     19757     19759
     19754     19757     19760     19755     19754     19756     19755     19754     19757
     19756     19754     19757     19757     19760     19761     19757     19760     19762
     19757     19760     19763     19758     19757     19759     19758     19757     19760
     19759     19757     19760     19760     19763     19764     19760     19763     19765
     19760     19763     19766     19761     19760     19762     19761     19760     19763
     19762     19760     19763     19763     19766     19767     19763     19766     19768
     19763     19766     19769     19764     19763     19765     19764     19763     19766
     19765     19763     19766     19766     19769     19770     19766     19769     19771
     19766     19769     19772     19767     19766     19768     19767     19766     19769
     19768     19766     19769     19770     19769     19771     19770     19769     19772
     19771     19769     19772     19773     19777     19778     19773     19777     19779
     19773     19777     19780     19774     19773     19775     19774     19773     19776
     19774     19773     19777     19775     19773     19776     19775     19773     19777
     19776     19773     19777     19777     19780     19781     19777     19780     19782
     19777     19780     19787     19778     19777     19779     19778     19777     19780
     19779     19777     19780     19780     19787     19783     19781     19780     19782
     19781     19780     19787     19782     19780     19787     19783     19786     19788
     19784     19783     19785     19784     19783     19786     19784     19783     19787
     19785     19783     19786     19785     19783     19787     19786     19783     19787
     19786     19788     19789     19786     19788     19790     19786     19788     19791
     19788     19791     19792     19788     19791     19793     19788     19791     19799
     19789     19788     19790     19789     19788     19791     19790     19788     19791
     19791     19793     19794     19791     19799     19800     19791     19799     19801
     19791     19799     19802     19792     19791     19793     19792     19791     19799
     19793     19791     19799     19793     19794     19795     19793     19794     19796
     19794     19796     19797     19794     19796     19798     19794     19796     19808
     19795     19794     19796     19796     19808     19809     19796     19808     19810
     19796     19808     19811     19797     19796     19798     19797     19796     19808
     19798     19796     19808     19799     19802     19803     19800     19799     19801
     19800     19799     19802     19801     19799     19802     19802     19803     19804
     19802     19803     19805     19803     19805     19806     19803     19805     19807
     19803     19805     19855     19804     19803     19805     19805     19855     19856
     19805     19855     19857     19805     19855     19858     19806     19805     19807
     19806     19805     19855     19807     19805     19855     19808     19811     19812
     19808     19811     19813     19808     19811     19814     19809     19808     19810
     19809     19808     19811     19810     19808     19811     19811     19814     19815
     19811     19814     19816     19811     19814     19817     19812     19811     19813
     19812     19811     19814     19813     19811     19814     19814     19817     19818
     19814     19817     19819     19814     19817     19820     19815     19814     19816
     19815     19814     19817     19816     19814     19817     19817     19820     19821
     19817     19820     19822     19817     19820     19823     19818     19817     19819
     19818     19817     19820     19819     19817     19820     19820     19823     19824
     19820     19823     19825     19820     19823     19826     19821     19820     19822
     19821     19820     19823     19822     19820     19823     19823     19826     19827
     19823     19826     19828     19824     19823     19825     19824     19823     19826
     19825     19823     19826     19826     19828     19829     19826     19828     19830
     19827     19826     19828     19828     19830     19831     19828     19830     19832
     19828     19830     19833     19829     19828     19830     19830     19833     19834
     19830     19833     19835     19830     19833     19836     19831     19830     19832
     19831     19830     19833     19832     19830     19833     19833     19836     19837
     19833     19836     19838     19833     19836     19839     19834     19833     19835
     19834     19833     19836     19835     19833     19836     19836     19839     19840
     19836     19839     19841     19836     19839     19842     19837     19836     19838
     19837     19836     19839     19838     19836     19839     19839     19842     19843
     19839     19842     19844     19839     19842     19845     19840     19839     19841
     19840     19839     19842     19841     19839     19842     19842     19845     19846
     19842     19845     19847     19842     19845     19848     19843     19842     19844
     19843     19842     19845     19844     19842     19845     19845     19848     19849
     19845     19848     19850     19845     19848     19851     19846     19845     19847
     19846     19845     19848     19847     19845     19848     19848     19851     19852
     19848     19851     19853     19848     19851     19854     19849     19848     19850
     19849     19848     19851     19850     19848     19851     19852     19851     19853
     19852     19851     19854     19853     19851     19854     19855     19858     19859
     19855     19858     19860     19855     19858     19861     19856     19855     19857
     19856     19855     19858     19857     19855     19858     19858     19861     19862
     19858     19861     19863     19858     19861     19864     19859     19858     19860
     19859     19858     19861     19860     19858     19861     19861     19864     19865
     19861     19864     19866     19861     19864     19867     19862     19861     19863
     19862     19861     19864     19863     19861     19864     19864     19867     19868
     19864     19867     19869     19864     19867     19870     19865     19864     19866
     19865     19864     19867     19866     19864     19867     19867     19870     19871
     19867     19870     19872     19867     19870     19873     19868     19867     19869
     19868     19867     19870     19869     19867     19870     19870     19873     19874
     19870     19873     19875     19870     19873     19876     19871     19870     19872
     19871     19870     19873     19872     19870     19873     19873     19876     19877
     19873     19876     19878     19873     19876     19879     19874     19873     19875
     19874     19873     19876     19875     19873     19876     19876     19879     19880
     19876     19879     19881     19876     19879     19882     19877     19876     19878
     19877     19876     19879     19878     19876     19879     19879     19882     19883
     19879     19882     19884     19879     19882     19885     19880     19879     19881
     19880     19879     19882     19881     19879     19882     19882     19885     19886
     19882     19885     19887     19882     19885     19888     19883     19882     19884
     19883     19882     19885     19884     19882     19885     19885     19888     19889
     19885     19888     19890     19885     19888     19891     19886     19885     19887
     19886     19885     19888     19887     19885     19888     19888     19891     19892
     19888     19891     19893     19888     19891     19894     19889     19888     19890
     19889     19888     19891     19890     19888     19891     19891     19894     19895
     19891     19894     19896     19891     19894     19897     19892     19891     19893
     19892     19891     19894     19893     19891     19894     19895     19894     19896
     19895     19894     19897     19896     19894     19897     19898     19902     19903
     19898     19902     19904     19898     19902     19905     19899     19898     19900
     19899     19898     19901     19899     19898     19902     19900     19898     19901
     19900     19898     19902     19901     19898     19902     19902     19905     19906
     19902     19905     19907     19902     19905     19912     19903     19902     19904
     19903     19902     19905     19904     19902     19905     19905     19912     19908
     19906     19905     19907     19906     19905     19912     19907     19905     19912
     19908     19911     19913     19909     19908     19910     19909     19908     19911
     19909     19908     19912     19910     19908     19911     19910     19908     19912
     19911     19908     19912     19911     19913     19914     19911     19913     19915
     19911     19913     19916     19913     19916     19917     19913     19916     19918
     19913     19916     19924     19914     19913     19915     19914     19913     19916
     19915     19913     19916     19916     19918     19919     19916     19924     19925
     19916     19924     19926     19916     19924     19927     19917     19916     19918
     19917     19916     19924     19918     19916     19924     19918     19919     19920
     19918     19919     19921     19919     19921     19922     19919     19921     19923
     19919     19921     19933     19920     19919     19921     19921     19933     19934
     19921     19933     19935     19921     19933     19936     19922     19921     19923
     19922     19921     19933     19923     19921     19933     19924     19927     19928
     19925     19924     19926     19925     19924     19927     19926     19924     19927
     19927     19928     19929     19927     19928     19930     19928     19930     19931
     19928     19930     19932     19928     19930     19980     19929     19928     19930
     19930     19980     19981     19930     19980     19982     19930     19980     19983
     19931     19930     19932     19931     19930     19980     19932     19930     19980
     19933     19936     19937     19933     19936     19938     19933     19936     19939
     19934     19933     19935     19934     19933     19936     19935     19933     19936
     19936     19939     19940     19936     19939     19941     19936     19939     19942
     19937     19936     19938     19937     19936     19939     19938     19936     19939
     19939     19942     19943     19939     19942     19944     19939     19942     19945
     19940     19939     19941     19940     19939     19942     19941     19939     19942
     19942     19945     19946     19942     19945     19947     19942     19945     19948
     19943     19942     19944     19943     19942     19945     19944     19942     19945
     19945     19948     19949     19945     19948     19950     19945     19948     19951
     19946     19945     19947     19946     19945     19948     19947     19945     19948
     19948     19951     19952     19948     19951     19953     19949     19948     19950
     19949     19948     19951     19950     19948     19951     19951     19953     19954
     19951     19953     19955     19952     19951     19953     19953     19955     19956
     19953     19955     19957     19953     19955     19958     19954     19953     19955
     19955     19958     19959     19955     19958     19960     19955     19958     19961
     19956     19955     19957     19956     19955     19958     19957     19955     19958
     19958     19961     19962     19958     19961     19963     19958     19961     19964
     19959     19958     19960     19959     19958     19961     19960     19958     19961
     19961     19964     19965     19961     19964     19966     19961     19964     19967
     19962     19961     19963     19962     19961     19964     19963     19961     19964
     19964     19967     19968     19964     19967     19969     19964     19967     19970
     19965     19964     19966     19965     19964     19967     19966     19964     19967
     19967     19970     19971     19967     19970     19972     19967     19970     19973
     19968     19967     19969     19968     19967     19970     19969     19967     19970
     19970     19973     19974     19970     19973     19975     19970     19973     19976
     19971     19970     19972     19971     19970     19973     19972     19970     19973
     19973     19976     19977     19973     19976     19978     19973     19976     19979
     19974     19973     19975     19974     19973     19976     19975     19973     19976
     19977     19976     19978     19977     19976     19979     19978     19976     19979
     19980     19983     19984     19980     19983     19985     19980     19983     19986
     19981     19980     19982     19981     19980     19983     19982     19980     19983
     19983     19986     19987     19983     19986     19988     19983     19986     19989
     19984     19983     19985     19984     19983     19986     19985     19983     19986
     19986     19989     19990     19986     19989     19991     19986     19989     19992
     19987     19986     19988     19987     19986     19989     19988     19986     19989
     19989     19992     19993     19989     19992     19994     19989     19992     19995
     19990     19989     19991     19990     19989     19992     19991     19989     19992
     19992     19995     19996     19992     19995     19997     19992     19995     19998
     19993     19992     19994     19993     19992     19995     19994     19992     19995
     19995     19998     19999     19995     19998     20000     19995     19998     20001
     19996     19995     19997     19996     19995     19998     19997     19995     19998
     19998     20001     20002     19998     20001     20003     19998     20001     20004
     19999     19998     20000     19999     19998     20001     20000     19998     20001
     20001     20004     20005     20001     20004     20006     20001     20004     20007
     20002     20001     20003     20002     20001     20004     20003     20001     20004
     20004     20007     20008     20004     20007     20009     20004     20007     20010
     20005     20004     20006     20005     20004     20007     20006     20004     20007
     20007     20010     20011     20007     20010     20012     20007     20010     20013
     20008     20007     20009     20008     20007     20010     20009     20007     20010
     20010     20013     20014     20010     20013     20015     20010     20013     20016
     20011     20010     20012     20011     20010     20013     20012     20010     20013
     20013     20016     20017     20013     20016     20018     20013     20016     20019
     20014     20013     20015     20014     20013     20016     20015     20013     20016
     20016     20019     20020     20016     20019     20021     20016     20019     20022
     20017     20016     20018     20017     20016     20019     20018     20016     20019
     20020     20019     20021     20020     20019     20022     20021     20019     20022
     20023     20024     20025     20023     20024     20026     20023     20024     20039
     20023     20027     20028     20023     20027     20029     20023     20027     20030
     20023     20031     20032     20023     20031     20033     20023     20031     20034
     20023     20035     20036     20023     20035     20037     20023     20035     20038
     20024     20023     20027     20024     20023     20031     20024     20023     20035
     20024     20039     20040     20024     20039     20041     20024     20039     20045
     20025     20024     20026     20025     20024     20039     20026     20024     20039
     20027     20023     20031     20027     20023     20035     20028     20027     20029
     20028     20027     20030     20029     20027     20030     20031     20023     20035
     20032     20031     20033     20032     20031     20034     20033     20031     20034
     20036     20035     20037     20036     20035     20038     20037     20035     20038
     20039     20045     20042     20040     20039     20041     20040     20039     20045
     20041     20039     20045     20042     20046     20047     20043     20042     20044
     20043     20042     20045     20043     20042     20046     20044     20042     20045
     20044     20042     20046     20045     20042     20046     20046     20047     20048
     20046     20047     20049     20046     20047     20050     20047     20050     20051
     20047     20050     20052     20047     20050     20058     20048     20047     20049
     20048     20047     20050     20049     20047     20050     20050     20052     20053
     20050     20058     20059     20050     20058     20060     20050     20058     20061
     20051     20050     20052     20051     20050     20058     20052     20050     20058
     20052     20053     20054     20052     20053     20055     20053     20055     20056
     20053     20055     20057     20053     20055     20067     20054     20053     20055
     20055     20067     20068     20055     20067     20069     20055     20067     20070
     20056     20055     20057     20056     20055     20067     20057     20055     20067
     20058     20061     20062     20059     20058     20060     20059     20058     20061
     20060     20058     20061     20061     20062     20063     20061     20062     20064
     20062     20064     20065     20062     20064     20066     20062     20064     20114
     20063     20062     20064     20064     20114     20115     20064     20114     20116
     20064     20114     20117     20065     20064     20066     20065     20064     20114
     20066     20064     20114     20067     20070     20071     20067     20070     20072
     20067     20070     20073     20068     20067     20069     20068     20067     20070
     20069     20067     20070     20070     20073     20074     20070     20073     20075
     20070     20073     20076     20071     20070     20072     20071     20070     20073
     20072     20070     20073     20073     20076     20077     20073     20076     20078
     20073     20076     20079     20074     20073     20075     20074     20073     20076
     20075     20073     20076     20076     20079     20080     20076     20079     20081
     20076     20079     20082     20077     20076     20078     20077     20076     20079
     20078     20076     20079     20079     20082     20083     20079     20082     20084
     20079     20082     20085     20080     20079     20081     20080     20079     20082
     20081     20079     20082     20082     20085     20086     20082     20085     20087
     20083     20082     20084     20083     20082     20085     20084     20082     20085
     20085     20087     20088     20085     20087     20089     20086     20085     20087
     20087     20089     20090     20087     20089     20091     20087     20089     20092
     20088     20087     20089     20089     20092     20093     20089     20092     20094
     20089     20092     20095     20090     20089     20091     20090     20089     20092
     20091     20089     20092     20092     20095     20096     20092     20095     20097
     20092     20095     20098     20093     20092     20094     20093     20092     20095
     20094     20092     20095     20095     20098     20099     20095     20098     20100
     20095     20098     20101     20096     20095     20097     20096     20095     20098
     20097     20095     20098     20098     20101     20102     20098     20101     20103
     20098     20101     20104     20099     20098     20100     20099     20098     20101
     20100     20098     20101     20101     20104     20105     20101     20104     20106
     20101     20104     20107     20102     20101     20103     20102     20101     20104
     20103     20101     20104     20104     20107     20108     20104     20107     20109
     20104     20107     20110     20105     20104     20106     20105     20104     20107
     20106     20104     20107     20107     20110     20111     20107     20110     20112
     20107     20110     20113     20108     20107     20109     20108     20107     20110
     20109     20107     20110     20111     20110     20112     20111     20110     20113
     20112     20110     20113     20114     20117     20118     20114     20117     20119
     20114     20117     20120     20115     20114     20116     20115     20114     20117
     20116     20114     20117     20117     20120     20121     20117     20120     20122
     20117     20120     20123     20118     20117     20119     20118     20117     20120
     20119     20117     20120     20120     20123     20124     20120     20123     20125
     20120     20123     20126     20121     20120     20122     20121     20120     20123
     20122     20120     20123     20123     20126     20127     20123     20126     20128
     20123     20126     20129     20124     20123     20125     20124     20123     20126
     20125     20123     20126     20126     20129     20130     20126     20129     20131
     20126     20129     20132     20127     20126     20128     20127     20126     20129
     20128     20126     20129     20129     20132     20133     20129     20132     20134
     20129     20132     20135     20130     20129     20131     20130     20129     20132
     20131     20129     20132     20132     20135     20136     20132     20135     20137
     20132     20135     20138     20133     20132     20134     20133     20132     20135
     20134     20132     20135     20135     20138     20139     20135     20138     20140
     20135     20138     20141     20136     20135     20137     20136     20135     20138
     20137     20135     20138     20138     20141     20142     20138     20141     20143
     20138     20141     20144     20139     20138     20140     20139     20138     20141
     20140     20138     20141     20141     20144     20145     20141     20144     20146
     20141     20144     20147     20142     20141     20143     20142     20141     20144
     20143     20141     20144     20144     20147     20148     20144     20147     20149
     20144     20147     20150     20145     20144     20146     20145     20144     20147
     20146     20144     20147     20147     20150     20151     20147     20150     20152
     20147     20150     20153     20148     20147     20149     20148     20147     20150
     20149     20147     20150     20150     20153     20154     20150     20153     20155
     20150     20153     20156     20151     20150     20152     20151     20150     20153
     20152     20150     20153     20154     20153     20155     20154     20153     20156
     20155     20153     20156     20157     20158     20159     20157     20158     20160
     20157     20158     20173     20157     20161     20162     20157     20161     20163
     20157     20161     20164     20157     20165     20166     20157     20165     20167
     20157     20165     20168     20157     20169     20170     20157     20169     20171
     20157     20169     20172     20158     20157     20161     20158     20157     20165
     20158     20157     20169     20158     20173     20174     20158     20173     20175
     20158     20173     20179     20159     20158     20160     20159     20158     20173
     20160     20158     20173     20161     20157     20165     20161     20157     20169
     20162     20161     20163     20162     20161     20164     20163     20161     20164
     20165     20157     20169     20166     20165     20167     20166     20165     20168
     20167     20165     20168     20170     20169     20171     20170     20169     20172
     20171     20169     20172     20173     20179     20176     20174     20173     20175
     20174     20173     20179     20175     20173     20179     20176     20180     20181
     20177     20176     20178     20177     20176     20179     20177     20176     20180
     20178     20176     20179     20178     20176     20180     20179     20176     20180
     20180     20181     20182     20180     20181     20183     20180     20181     20184
     20181     20184     20185     20181     20184     20186     20181     20184     20192
     20182     20181     20183     20182     20181     20184     20183     20181     20184
     20184     20186     20187     20184     20192     20193     20184     20192     20194
     20184     20192     20195     20185     20184     20186     20185     20184     20192
     20186     20184     20192     20186     20187     20188     20186     20187     20189
     20187     20189     20190     20187     20189     20191     20187     20189     20201
     20188     20187     20189     20189     20201     20202     20189     20201     20203
     20189     20201     20204     20190     20189     20191     20190     20189     20201
     20191     20189     20201     20192     20195     20196     20193     20192     20194
     20193     20192     20195     20194     20192     20195     20195     20196     20197
     20195     20196     20198     20196     20198     20199     20196     20198     20200
     20196     20198     20248     20197     20196     20198     20198     20248     20249
     20198     20248     20250     20198     20248     20251     20199     20198     20200
     20199     20198     20248     20200     20198     20248     20201     20204     20205
     20201     20204     20206     20201     20204     20207     20202     20201     20203
     20202     20201     20204     20203     20201     20204     20204     20207     20208
     20204     20207     20209     20204     20207     20210     20205     20204     20206
     20205     20204     20207     20206     20204     20207     20207     20210     20211
     20207     20210     20212     20207     20210     20213     20208     20207     20209
     20208     20207     20210     20209     20207     20210     20210     20213     20214
     20210     20213     20215     20210     20213     20216     20211     20210     20212
     20211     20210     20213     20212     20210     20213     20213     20216     20217
     20213     20216     20218     20213     20216     20219     20214     20213     20215
     20214     20213     20216     20215     20213     20216     20216     20219     20220
     20216     20219     20221     20217     20216     20218     20217     20216     20219
     20218     20216     20219     20219     20221     20222     20219     20221     20223
     20220     20219     20221     20221     20223     20224     20221     20223     20225
     20221     20223     20226     20222     20221     20223     20223     20226     20227
     20223     20226     20228     20223     20226     20229     20224     20223     20225
     20224     20223     20226     20225     20223     20226     20226     20229     20230
     20226     20229     20231     20226     20229     20232     20227     20226     20228
     20227     20226     20229     20228     20226     20229     20229     20232     20233
     20229     20232     20234     20229     20232     20235     20230     20229     20231
     20230     20229     20232     20231     20229     20232     20232     20235     20236
     20232     20235     20237     20232     20235     20238     20233     20232     20234
     20233     20232     20235     20234     20232     20235     20235     20238     20239
     20235     20238     20240     20235     20238     20241     20236     20235     20237
     20236     20235     20238     20237     20235     20238     20238     20241     20242
     20238     20241     20243     20238     20241     20244     20239     20238     20240
     20239     20238     20241     20240     20238     20241     20241     20244     20245
     20241     20244     20246     20241     20244     20247     20242     20241     20243
     20242     20241     20244     20243     20241     20244     20245     20244     20246
     20245     20244     20247     20246     20244     20247     20248     20251     20252
     20248     20251     20253     20248     20251     20254     20249     20248     20250
     20249     20248     20251     20250     20248     20251     20251     20254     20255
     20251     20254     20256     20251     20254     20257     20252     20251     20253
     20252     20251     20254     20253     20251     20254     20254     20257     20258
     20254     20257     20259     20254     20257     20260     20255     20254     20256
     20255     20254     20257     20256     20254     20257     20257     20260     20261
     20257     20260     20262     20257     20260     20263     20258     20257     20259
     20258     20257     20260     20259     20257     20260     20260     20263     20264
     20260     20263     20265     20260     20263     20266     20261     20260     20262
     20261     20260     20263     20262     20260     20263     20263     20266     20267
     20263     20266     20268     20263     20266     20269     20264     20263     20265
     20264     20263     20266     20265     20263     20266     20266     20269     20270
     20266     20269     20271     20266     20269     20272     20267     20266     20268
     20267     20266     20269     20268     20266     20269     20269     20272     20273
     20269     20272     20274     20269     20272     20275     20270     20269     20271
     20270     20269     20272     20271     20269     20272     20272     20275     20276
     20272     20275     20277     20272     20275     20278     20273     20272     20274
     20273     20272     20275     20274     20272     20275     20275     20278     20279
     20275     20278     20280     20275     20278     20281     20276     20275     20277
     20276     20275     20278     20277     20275     20278     20278     20281     20282
     20278     20281     20283     20278     20281     20284     20279     20278     20280
     20279     20278     20281     20280     20278     20281     20281     20284     20285
     20281     20284     20286     20281     20284     20287     20282     20281     20283
     20282     20281     20284     20283     20281     20284     20284     20287     20288
     20284     20287     20289     20284     20287     20290     20285     20284     20286
     20285     20284     20287     20286     20284     20287     20288     20287     20289
     20288     20287     20290     20289     20287     20290     20291     20295     20296
     20291     20295     20297     20291     20295     20298     20292     20291     20293
     20292     20291     20294     20292     20291     20295     20293     20291     20294
     20293     20291     20295     20294     20291     20295     20295     20298     20299
     20295     20298     20300     20295     20298     20305     20296     20295     20297
     20296     20295     20298     20297     20295     20298     20298     20305     20301
     20299     20298     20300     20299     20298     20305     20300     20298     20305
     20301     20304     20306     20302     20301     20303     20302     20301     20304
     20302     20301     20305     20303     20301     20304     20303     20301     20305
     20304     20301     20305     20304     20306     20307     20304     20306     20308
     20304     20306     20309     20306     20309     20310     20306     20309     20311
     20306     20309     20317     20307     20306     20308     20307     20306     20309
     20308     20306     20309     20309     20311     20312     20309     20317     20318
     20309     20317     20319     20309     20317     20320     20310     20309     20311
     20310     20309     20317     20311     20309     20317     20311     20312     20313
     20311     20312     20314     20312     20314     20315     20312     20314     20316
     20312     20314     20326     20313     20312     20314     20314     20326     20327
     20314     20326     20328     20314     20326     20329     20315     20314     20316
     20315     20314     20326     20316     20314     20326     20317     20320     20321
     20318     20317     20319     20318     20317     20320     20319     20317     20320
     20320     20321     20322     20320     20321     20323     20321     20323     20324
     20321     20323     20325     20321     20323     20373     20322     20321     20323
     20323     20373     20374     20323     20373     20375     20323     20373     20376
     20324     20323     20325     20324     20323     20373     20325     20323     20373
     20326     20329     20330     20326     20329     20331     20326     20329     20332
     20327     20326     20328     20327     20326     20329     20328     20326     20329
     20329     20332     20333     20329     20332     20334     20329     20332     20335
     20330     20329     20331     20330     20329     20332     20331     20329     20332
     20332     20335     20336     20332     20335     20337     20332     20335     20338
     20333     20332     20334     20333     20332     20335     20334     20332     20335
     20335     20338     20339     20335     20338     20340     20335     20338     20341
     20336     20335     20337     20336     20335     20338     20337     20335     20338
     20338     20341     20342     20338     20341     20343     20338     20341     20344
     20339     20338     20340     20339     20338     20341     20340     20338     20341
     20341     20344     20345     20341     20344     20346     20342     20341     20343
     20342     20341     20344     20343     20341     20344     20344     20346     20347
     20344     20346     20348     20345     20344     20346     20346     20348     20349
     20346     20348     20350     20346     20348     20351     20347     20346     20348
     20348     20351     20352     20348     20351     20353     20348     20351     20354
     20349     20348     20350     20349     20348     20351     20350     20348     20351
     20351     20354     20355     20351     20354     20356     20351     20354     20357
     20352     20351     20353     20352     20351     20354     20353     20351     20354
     20354     20357     20358     20354     20357     20359     20354     20357     20360
     20355     20354     20356     20355     20354     20357     20356     20354     20357
     20357     20360     20361     20357     20360     20362     20357     20360     20363
     20358     20357     20359     20358     20357     20360     20359     20357     20360
     20360     20363     20364     20360     20363     20365     20360     20363     20366
     20361     20360     20362     20361     20360     20363     20362     20360     20363
     20363     20366     20367     20363     20366     20368     20363     20366     20369
     20364     20363     20365     20364     20363     20366     20365     20363     20366
     20366     20369     20370     20366     20369     20371     20366     20369     20372
     20367     20366     20368     20367     20366     20369     20368     20366     20369
     20370     20369     20371     20370     20369     20372     20371     20369     20372
     20373     20376     20377     20373     20376     20378     20373     20376     20379
     20374     20373     20375     20374     20373     20376     20375     20373     20376
     20376     20379     20380     20376     20379     20381     20376     20379     20382
     20377     20376     20378     20377     20376     20379     20378     20376     20379
     20379     20382     20383     20379     20382     20384     20379     20382     20385
     20380     20379     20381     20380     20379     20382     20381     20379     20382
     20382     20385     20386     20382     20385     20387     20382     20385     20388
     20383     20382     20384     20383     20382     20385     20384     20382     20385
     20385     20388     20389     20385     20388     20390     20385     20388     20391
     20386     20385     20387     20386     20385     20388     20387     20385     20388
     20388     20391     20392     20388     20391     20393     20388     20391     20394
     20389     20388     20390     20389     20388     20391     20390     20388     20391
     20391     20394     20395     20391     20394     20396     20391     20394     20397
     20392     20391     20393     20392     20391     20394     20393     20391     20394
     20394     20397     20398     20394     20397     20399     20394     20397     20400
     20395     20394     20396     20395     20394     20397     20396     20394     20397
     20397     20400     20401     20397     20400     20402     20397     20400     20403
     20398     20397     20399     20398     20397     20400     20399     20397     20400
     20400     20403     20404     20400     20403     20405     20400     20403     20406
     20401     20400     20402     20401     20400     20403     20402     20400     20403
     20403     20406     20407     20403     20406     20408     20403     20406     20409
     20404     20403     20405     20404     20403     20406     20405     20403     20406
     20406     20409     20410     20406     20409     20411     20406     20409     20412
     20407     20406     20408     20407     20406     20409     20408     20406     20409
     20409     20412     20413     20409     20412     20414     20409     20412     20415
     20410     20409     20411     20410     20409     20412     20411     20409     20412
     20413     20412     20414     20413     20412     20415     20414     20412     20415
     20416     20417     20418     20416     20417     20419     20416     20417     20432
     20416     20420     20421     20416     20420     20422     20416     20420     20423
     20416     20424     20425     20416     20424     20426     20416     20424     20427
     20416     20428     20429     20416     20428     20430     20416     20428     20431
     20417     20416     20420     20417     20416     20424     20417     20416     20428
     20417     20432     20433     20417     20432     20434     20417     20432     20438
     20418     20417     20419     20418     20417     20432     20419     20417     20432
     20420     20416     20424     20420     20416     20428     20421     20420     20422
     20421     20420     20423     20422     20420     20423     20424     20416     20428
     20425     20424     20426     20425     20424     20427     20426     20424     20427
     20429     20428     20430     20429     20428     20431     20430     20428     20431
     20432     20438     20435     20433     20432     20434     20433     20432     20438
     20434     20432     20438     20435     20439     20440     20436     20435     20437
     20436     20435     20438     20436     20435     20439     20437     20435     20438
     20437     20435     20439     20438     20435     20439     20439     20440     20441
     20439     20440     20442     20439     20440     20443     20440     20443     20444
     20440     20443     20445     20440     20443     20451     20441     20440     20442
     20441     20440     20443     20442     20440     20443     20443     20445     20446
     20443     20451     20452     20443     20451     20453     20443     20451     20454
     20444     20443     20445     20444     20443     20451     20445     20443     20451
     20445     20446     20447     20445     20446     20448     20446     20448     20449
     20446     20448     20450     20446     20448     20460     20447     20446     20448
     20448     20460     20461     20448     20460     20462     20448     20460     20463
     20449     20448     20450     20449     20448     20460     20450     20448     20460
     20451     20454     20455     20452     20451     20453     20452     20451     20454
     20453     20451     20454     20454     20455     20456     20454     20455     20457
     20455     20457     20458     20455     20457     20459     20455     20457     20507
     20456     20455     20457     20457     20507     20508     20457     20507     20509
     20457     20507     20510     20458     20457     20459     20458     20457     20507
     20459     20457     20507     20460     20463     20464     20460     20463     20465
     20460     20463     20466     20461     20460     20462     20461     20460     20463
     20462     20460     20463     20463     20466     20467     20463     20466     20468
     20463     20466     20469     20464     20463     20465     20464     20463     20466
     20465     20463     20466     20466     20469     20470     20466     20469     20471
     20466     20469     20472     20467     20466     20468     20467     20466     20469
     20468     20466     20469     20469     20472     20473     20469     20472     20474
     20469     20472     20475     20470     20469     20471     20470     20469     20472
     20471     20469     20472     20472     20475     20476     20472     20475     20477
     20472     20475     20478     20473     20472     20474     20473     20472     20475
     20474     20472     20475     20475     20478     20479     20475     20478     20480
     20476     20475     20477     20476     20475     20478     20477     20475     20478
     20478     20480     20481     20478     20480     20482     20479     20478     20480
     20480     20482     20483     20480     20482     20484     20480     20482     20485
     20481     20480     20482     20482     20485     20486     20482     20485     20487
     20482     20485     20488     20483     20482     20484     20483     20482     20485
     20484     20482     20485     20485     20488     20489     20485     20488     20490
     20485     20488     20491     20486     20485     20487     20486     20485     20488
     20487     20485     20488     20488     20491     20492     20488     20491     20493
     20488     20491     20494     20489     20488     20490     20489     20488     20491
     20490     20488     20491     20491     20494     20495     20491     20494     20496
     20491     20494     20497     20492     20491     20493     20492     20491     20494
     20493     20491     20494     20494     20497     20498     20494     20497     20499
     20494     20497     20500     20495     20494     20496     20495     20494     20497
     20496     20494     20497     20497     20500     20501     20497     20500     20502
     20497     20500     20503     20498     20497     20499     20498     20497     20500
     20499     20497     20500     20500     20503     20504     20500     20503     20505
     20500     20503     20506     20501     20500     20502     20501     20500     20503
     20502     20500     20503     20504     20503     20505     20504     20503     20506
     20505     20503     20506     20507     20510     20511     20507     20510     20512
     20507     20510     20513     20508     20507     20509     20508     20507     20510
     20509     20507     20510     20510     20513     20514     20510     20513     20515
     20510     20513     20516     20511     20510     20512     20511     20510     20513
     20512     20510     20513     20513     20516     20517     20513     20516     20518
     20513     20516     20519     20514     20513     20515     20514     20513     20516
     20515     20513     20516     20516     20519     20520     20516     20519     20521
     20516     20519     20522     20517     20516     20518     20517     20516     20519
     20518     20516     20519     20519     20522     20523     20519     20522     20524
     20519     20522     20525     20520     20519     20521     20520     20519     20522
     20521     20519     20522     20522     20525     20526     20522     20525     20527
     20522     20525     20528     20523     20522     20524     20523     20522     20525
     20524     20522     20525     20525     20528     20529     20525     20528     20530
     20525     20528     20531     20526     20525     20527     20526     20525     20528
     20527     20525     20528     20528     20531     20532     20528     20531     20533
     20528     20531     20534     20529     20528     20530     20529     20528     20531
     20530     20528     20531     20531     20534     20535     20531     20534     20536
     20531     20534     20537     20532     20531     20533     20532     20531     20534
     20533     20531     20534     20534     20537     20538     20534     20537     20539
     20534     20537     20540     20535     20534     20536     20535     20534     20537
     20536     20534     20537     20537     20540     20541     20537     20540     20542
     20537     20540     20543     20538     20537     20539     20538     20537     20540
     20539     20537     20540     20540     20543     20544     20540     20543     20545
     20540     20543     20546     20541     20540     20542     20541     20540     20543
     20542     20540     20543     20543     20546     20547     20543     20546     20548
     20543     20546     20549     20544     20543     20545     20544     20543     20546
     20545     20543     20546     20547     20546     20548     20547     20546     20549
     20548     20546     20549     20550     20551     20552     20550     20551     20553
     20550     20551     20566     20550     20554     20555     20550     20554     20556
     20550     20554     20557     20550     20558     20559     20550     20558     20560
     20550     20558     20561     20550     20562     20563     20550     20562     20564
     20550     20562     20565     20551     20550     20554     20551     20550     20558
     20551     20550     20562     20551     20566     20567     20551     20566     20568
     20551     20566     20572     20552     20551     20553     20552     20551     20566
     20553     20551     20566     20554     20550     20558     20554     20550     20562
     20555     20554     20556     20555     20554     20557     20556     20554     20557
     20558     20550     20562     20559     20558     20560     20559     20558     20561
     20560     20558     20561     20563     20562     20564     20563     20562     20565
     20564     20562     20565     20566     20572     20569     20567     20566     20568
     20567     20566     20572     20568     20566     20572     20569     20573     20574
     20570     20569     20571     20570     20569     20572     20570     20569     20573
     20571     20569     20572     20571     20569     20573     20572     20569     20573
     20573     20574     20575     20573     20574     20576     20573     20574     20577
     20574     20577     20578     20574     20577     20579     20574     20577     20585
     20575     20574     20576     20575     20574     20577     20576     20574     20577
     20577     20579     20580     20577     20585     20586     20577     20585     20587
     20577     20585     20588     20578     20577     20579     20578     20577     20585
     20579     20577     20585     20579     20580     20581     20579     20580     20582
     20580     20582     20583     20580     20582     20584     20580     20582     20594
     20581     20580     20582     20582     20594     20595     20582     20594     20596
     20582     20594     20597     20583     20582     20584     20583     20582     20594
     20584     20582     20594     20585     20588     20589     20586     20585     20587
     20586     20585     20588     20587     20585     20588     20588     20589     20590
     20588     20589     20591     20589     20591     20592     20589     20591     20593
     20589     20591     20641     20590     20589     20591     20591     20641     20642
     20591     20641     20643     20591     20641     20644     20592     20591     20593
     20592     20591     20641     20593     20591     20641     20594     20597     20598
     20594     20597     20599     20594     20597     20600     20595     20594     20596
     20595     20594     20597     20596     20594     20597     20597     20600     20601
     20597     20600     20602     20597     20600     20603     20598     20597     20599
     20598     20597     20600     20599     20597     20600     20600     20603     20604
     20600     20603     20605     20600     20603     20606     20601     20600     20602
     20601     20600     20603     20602     20600     20603     20603     20606     20607
     20603     20606     20608     20603     20606     20609     20604     20603     20605
     20604     20603     20606     20605     20603     20606     20606     20609     20610
     20606     20609     20611     20606     20609     20612     20607     20606     20608
     20607     20606     20609     20608     20606     20609     20609     20612     20613
     20609     20612     20614     20610     20609     20611     20610     20609     20612
     20611     20609     20612     20612     20614     20615     20612     20614     20616
     20613     20612     20614     20614     20616     20617     20614     20616     20618
     20614     20616     20619     20615     20614     20616     20616     20619     20620
     20616     20619     20621     20616     20619     20622     20617     20616     20618
     20617     20616     20619     20618     20616     20619     20619     20622     20623
     20619     20622     20624     20619     20622     20625     20620     20619     20621
     20620     20619     20622     20621     20619     20622     20622     20625     20626
     20622     20625     20627     20622     20625     20628     20623     20622     20624
     20623     20622     20625     20624     20622     20625     20625     20628     20629
     20625     20628     20630     20625     20628     20631     20626     20625     20627
     20626     20625     20628     20627     20625     20628     20628     20631     20632
     20628     20631     20633     20628     20631     20634     20629     20628     20630
     20629     20628     20631     20630     20628     20631     20631     20634     20635
     20631     20634     20636     20631     20634     20637     20632     20631     20633
     20632     20631     20634     20633     20631     20634     20634     20637     20638
     20634     20637     20639     20634     20637     20640     20635     20634     20636
     20635     20634     20637     20636     20634     20637     20638     20637     20639
     20638     20637     20640     20639     20637     20640     20641     20644     20645
     20641     20644     20646     20641     20644     20647     20642     20641     20643
     20642     20641     20644     20643     20641     20644     20644     20647     20648
     20644     20647     20649     20644     20647     20650     20645     20644     20646
     20645     20644     20647     20646     20644     20647     20647     20650     20651
     20647     20650     20652     20647     20650     20653     20648     20647     20649
     20648     20647     20650     20649     20647     20650     20650     20653     20654
     20650     20653     20655     20650     20653     20656     20651     20650     20652
     20651     20650     20653     20652     20650     20653     20653     20656     20657
     20653     20656     20658     20653     20656     20659     20654     20653     20655
     20654     20653     20656     20655     20653     20656     20656     20659     20660
     20656     20659     20661     20656     20659     20662     20657     20656     20658
     20657     20656     20659     20658     20656     20659     20659     20662     20663
     20659     20662     20664     20659     20662     20665     20660     20659     20661
     20660     20659     20662     20661     20659     20662     20662     20665     20666
     20662     20665     20667     20662     20665     20668     20663     20662     20664
     20663     20662     20665     20664     20662     20665     20665     20668     20669
     20665     20668     20670     20665     20668     20671     20666     20665     20667
     20666     20665     20668     20667     20665     20668     20668     20671     20672
     20668     20671     20673     20668     20671     20674     20669     20668     20670
     20669     20668     20671     20670     20668     20671     20671     20674     20675
     20671     20674     20676     20671     20674     20677     20672     20671     20673
     20672     20671     20674     20673     20671     20674     20674     20677     20678
     20674     20677     20679     20674     20677     20680     20675     20674     20676
     20675     20674     20677     20676     20674     20677     20677     20680     20681
     20677     20680     20682     20677     20680     20683     20678     20677     20679
     20678     20677     20680     20679     20677     20680     20681     20680     20682
     20681     20680     20683     20682     20680     20683     20684     20685     20686
     20684     20685     20687     20684     20685     20700     20684     20688     20689
     20684     20688     20690     20684     20688     20691     20684     20692     20693
     20684     20692     20694     20684     20692     20695     20684     20696     20697
     20684     20696     20698     20684     20696     20699     20685     20684     20688
     20685     20684     20692     20685     20684     20696     20685     20700     20701
     20685     20700     20702     20685     20700     20706     20686     20685     20687
     20686     20685     20700     20687     20685     20700     20688     20684     20692
     20688     20684     20696     20689     20688     20690     20689     20688     20691
     20690     20688     20691     20692     20684     20696     20693     20692     20694
     20693     20692     20695     20694     20692     20695     20697     20696     20698
     20697     20696     20699     20698     20696     20699     20700     20706     20703
     20701     20700     20702     20701     20700     20706     20702     20700     20706
     20703     20707     20708     20704     20703     20705     20704     20703     20706
     20704     20703     20707     20705     20703     20706     20705     20703     20707
     20706     20703     20707     20707     20708     20709     20707     20708     20710
     20707     20708     20711     20708     20711     20712     20708     20711     20713
     20708     20711     20719     20709     20708     20710     20709     20708     20711
     20710     20708     20711     20711     20713     20714     20711     20719     20720
     20711     20719     20721     20711     20719     20722     20712     20711     20713
     20712     20711     20719     20713     20711     20719     20713     20714     20715
     20713     20714     20716     20714     20716     20717     20714     20716     20718
     20714     20716     20728     20715     20714     20716     20716     20728     20729
     20716     20728     20730     20716     20728     20731     20717     20716     20718
     20717     20716     20728     20718     20716     20728     20719     20722     20723
     20720     20719     20721     20720     20719     20722     20721     20719     20722
     20722     20723     20724     20722     20723     20725     20723     20725     20726
     20723     20725     20727     20723     20725     20775     20724     20723     20725
     20725     20775     20776     20725     20775     20777     20725     20775     20778
     20726     20725     20727     20726     20725     20775     20727     20725     20775
     20728     20731     20732     20728     20731     20733     20728     20731     20734
     20729     20728     20730     20729     20728     20731     20730     20728     20731
     20731     20734     20735     20731     20734     20736     20731     20734     20737
     20732     20731     20733     20732     20731     20734     20733     20731     20734
     20734     20737     20738     20734     20737     20739     20734     20737     20740
     20735     20734     20736     20735     20734     20737     20736     20734     20737
     20737     20740     20741     20737     20740     20742     20737     20740     20743
     20738     20737     20739     20738     20737     20740     20739     20737     20740
     20740     20743     20744     20740     20743     20745     20740     20743     20746
     20741     20740     20742     20741     20740     20743     20742     20740     20743
     20743     20746     20747     20743     20746     20748     20744     20743     20745
     20744     20743     20746     20745     20743     20746     20746     20748     20749
     20746     20748     20750     20747     20746     20748     20748     20750     20751
     20748     20750     20752     20748     20750     20753     20749     20748     20750
     20750     20753     20754     20750     20753     20755     20750     20753     20756
     20751     20750     20752     20751     20750     20753     20752     20750     20753
     20753     20756     20757     20753     20756     20758     20753     20756     20759
     20754     20753     20755     20754     20753     20756     20755     20753     20756
     20756     20759     20760     20756     20759     20761     20756     20759     20762
     20757     20756     20758     20757     20756     20759     20758     20756     20759
     20759     20762     20763     20759     20762     20764     20759     20762     20765
     20760     20759     20761     20760     20759     20762     20761     20759     20762
     20762     20765     20766     20762     20765     20767     20762     20765     20768
     20763     20762     20764     20763     20762     20765     20764     20762     20765
     20765     20768     20769     20765     20768     20770     20765     20768     20771
     20766     20765     20767     20766     20765     20768     20767     20765     20768
     20768     20771     20772     20768     20771     20773     20768     20771     20774
     20769     20768     20770     20769     20768     20771     20770     20768     20771
     20772     20771     20773     20772     20771     20774     20773     20771     20774
     20775     20778     20779     20775     20778     20780     20775     20778     20781
     20776     20775     20777     20776     20775     20778     20777     20775     20778
     20778     20781     20782     20778     20781     20783     20778     20781     20784
     20779     20778     20780     20779     20778     20781     20780     20778     20781
     20781     20784     20785     20781     20784     20786     20781     20784     20787
     20782     20781     20783     20782     20781     20784     20783     20781     20784
     20784     20787     20788     20784     20787     20789     20784     20787     20790
     20785     20784     20786     20785     20784     20787     20786     20784     20787
     20787     20790     20791     20787     20790     20792     20787     20790     20793
     20788     20787     20789     20788     20787     20790     20789     20787     20790
     20790     20793     20794     20790     20793     20795     20790     20793     20796
     20791     20790     20792     20791     20790     20793     20792     20790     20793
     20793     20796     20797     20793     20796     20798     20793     20796     20799
     20794     20793     20795     20794     20793     20796     20795     20793     20796
     20796     20799     20800     20796     20799     20801     20796     20799     20802
     20797     20796     20798     20797     20796     20799     20798     20796     20799
     20799     20802     20803     20799     20802     20804     20799     20802     20805
     20800     20799     20801     20800     20799     20802     20801     20799     20802
     20802     20805     20806     20802     20805     20807     20802     20805     20808
     20803     20802     20804     20803     20802     20805     20804     20802     20805
     20805     20808     20809     20805     20808     20810     20805     20808     20811
     20806     20805     20807     20806     20805     20808     20807     20805     20808
     20808     20811     20812     20808     20811     20813     20808     20811     20814
     20809     20808     20810     20809     20808     20811     20810     20808     20811
     20811     20814     20815     20811     20814     20816     20811     20814     20817
     20812     20811     20813     20812     20811     20814     20813     20811     20814
     20815     20814     20816     20815     20814     20817     20816     20814     20817
     20818     20822     20823     20818     20822     20824     20818     20822     20825
     20819     20818     20820     20819     20818     20821     20819     20818     20822
     20820     20818     20821     20820     20818     20822     20821     20818     20822
     20822     20825     20826     20822     20825     20827     20822     20825     20832
     20823     20822     20824     20823     20822     20825     20824     20822     20825
     20825     20832     20828     20826     20825     20827     20826     20825     20832
     20827     20825     20832     20828     20831     20833     20829     20828     20830
     20829     20828     20831     20829     20828     20832     20830     20828     20831
     20830     20828     20832     20831     20828     20832     20831     20833     20834
     20831     20833     20835     20831     20833     20836     20833     20836     20837
     20833     20836     20838     20833     20836     20844     20834     20833     20835
     20834     20833     20836     20835     20833     20836     20836     20838     20839
     20836     20844     20845     20836     20844     20846     20836     20844     20847
     20837     20836     20838     20837     20836     20844     20838     20836     20844
     20838     20839     20840     20838     20839     20841     20839     20841     20842
     20839     20841     20843     20839     20841     20853     20840     20839     20841
     20841     20853     20854     20841     20853     20855     20841     20853     20856
     20842     20841     20843     20842     20841     20853     20843     20841     20853
     20844     20847     20848     20845     20844     20846     20845     20844     20847
     20846     20844     20847     20847     20848     20849     20847     20848     20850
     20848     20850     20851     20848     20850     20852     20848     20850     20900
     20849     20848     20850     20850     20900     20901     20850     20900     20902
     20850     20900     20903     20851     20850     20852     20851     20850     20900
     20852     20850     20900     20853     20856     20857     20853     20856     20858
     20853     20856     20859     20854     20853     20855     20854     20853     20856
     20855     20853     20856     20856     20859     20860     20856     20859     20861
     20856     20859     20862     20857     20856     20858     20857     20856     20859
     20858     20856     20859     20859     20862     20863     20859     20862     20864
     20859     20862     20865     20860     20859     20861     20860     20859     20862
     20861     20859     20862     20862     20865     20866     20862     20865     20867
     20862     20865     20868     20863     20862     20864     20863     20862     20865
     20864     20862     20865     20865     20868     20869     20865     20868     20870
     20865     20868     20871     20866     20865     20867     20866     20865     20868
     20867     20865     20868     20868     20871     20872     20868     20871     20873
     20869     20868     20870     20869     20868     20871     20870     20868     20871
     20871     20873     20874     20871     20873     20875     20872     20871     20873
     20873     20875     20876     20873     20875     20877     20873     20875     20878
     20874     20873     20875     20875     20878     20879     20875     20878     20880
     20875     20878     20881     20876     20875     20877     20876     20875     20878
     20877     20875     20878     20878     20881     20882     20878     20881     20883
     20878     20881     20884     20879     20878     20880     20879     20878     20881
     20880     20878     20881     20881     20884     20885     20881     20884     20886
     20881     20884     20887     20882     20881     20883     20882     20881     20884
     20883     20881     20884     20884     20887     20888     20884     20887     20889
     20884     20887     20890     20885     20884     20886     20885     20884     20887
     20886     20884     20887     20887     20890     20891     20887     20890     20892
     20887     20890     20893     20888     20887     20889     20888     20887     20890
     20889     20887     20890     20890     20893     20894     20890     20893     20895
     20890     20893     20896     20891     20890     20892     20891     20890     20893
     20892     20890     20893     20893     20896     20897     20893     20896     20898
     20893     20896     20899     20894     20893     20895     20894     20893     20896
     20895     20893     20896     20897     20896     20898     20897     20896     20899
     20898     20896     20899     20900     20903     20904     20900     20903     20905
     20900     20903     20906     20901     20900     20902     20901     20900     20903
     20902     20900     20903     20903     20906     20907     20903     20906     20908
     20903     20906     20909     20904     20903     20905     20904     20903     20906
     20905     20903     20906     20906     20909     20910     20906     20909     20911
     20906     20909     20912     20907     20906     20908     20907     20906     20909
     20908     20906     20909     20909     20912     20913     20909     20912     20914
     20909     20912     20915     20910     20909     20911     20910     20909     20912
     20911     20909     20912     20912     20915     20916     20912     20915     20917
     20912     20915     20918     20913     20912     20914     20913     20912     20915
     20914     20912     20915     20915     20918     20919     20915     20918     20920
     20915     20918     20921     20916     20915     20917     20916     20915     20918
     20917     20915     20918     20918     20921     20922     20918     20921     20923
     20918     20921     20924     20919     20918     20920     20919     20918     20921
     20920     20918     20921     20921     20924     20925     20921     20924     20926
     20921     20924     20927     20922     20921     20923     20922     20921     20924
     20923     20921     20924     20924     20927     20928     20924     20927     20929
     20924     20927     20930     20925     20924     20926     20925     20924     20927
     20926     20924     20927     20927     20930     20931     20927     20930     20932
     20927     20930     20933     20928     20927     20929     20928     20927     20930
     20929     20927     20930     20930     20933     20934     20930     20933     20935
     20930     20933     20936     20931     20930     20932     20931     20930     20933
     20932     20930     20933     20933     20936     20937     20933     20936     20938
     20933     20936     20939     20934     20933     20935     20934     20933     20936
     20935     20933     20936     20936     20939     20940     20936     20939     20941
     20936     20939     20942     20937     20936     20938     20937     20936     20939
     20938     20936     20939     20940     20939     20941     20940     20939     20942
     20941     20939     20942     20943     20945     20946     20943     20947     20948
     20943     20947     20949     20943     20947     20950     20943     20989     20986
     20943     20989     20990     20943     20989     20991     20944     20943     20945
     20944     20943     20947     20944     20943     20989     20945     20943     20947
     20945     20943     20989     20947     20943     20989     20947     20950     20951
     20947     20950     20981     20948     20947     20949     20948     20947     20950
     20949     20947     20950     20950     20951     20952     20950     20951     20953
     20950     20981     20979     20950     20981     20982     20950     20981     20986
     20951     20950     20981     20951     20953     20954     20951     20953     20955
     20951     20953     20956     20952     20951     20953     20953     20956     20957
     20953     20956     20958     20953     20956     20979     20954     20953     20955
     20954     20953     20956     20955     20953     20956     20956     20958     20959
     20956     20958     20960     20956     20958     20968     20956     20979     20976
     20956     20979     20980     20956     20979     20981     20957     20956     20958
     20957     20956     20979     20958     20956     20979     20958     20960     20961
     20958     20960     20962     20958     20960     20963     20958     20968     20966
     20958     20968     20969     20958     20968     20973     20959     20958     20960
     20959     20958     20968     20960     20958     20968     20960     20963     20964
     20960     20963     20965     20960     20963     20966     20961     20960     20962
     20961     20960     20963     20962     20960     20963     20963     20966     20967
     20963     20966     20968     20963     20966     20992     20964     20963     20965
     20964     20963     20966     20965     20963     20966     20966     20968     20969
     20966     20968     20973     20966     20992     20993     20966     20992     20994
     20966     20992     20998     20967     20966     20968     20967     20966     20992
     20968     20966     20992     20968     20969     20970     20968     20969     20971
     20968     20969     20972     20968     20973     20974     20968     20973     20975
     20968     20973     20976     20969     20968     20973     20970     20969     20971
     20970     20969     20972     20971     20969     20972     20973     20976     20977
     20973     20976     20978     20973     20976     20979     20974     20973     20975
     20974     20973     20976     20975     20973     20976     20976     20979     20980
     20976     20979     20981     20977     20976     20978     20977     20976     20979
     20978     20976     20979     20979     20981     20982     20979     20981     20986
     20980     20979     20981     20981     20982     20983     20981     20982     20984
     20981     20982     20985     20981     20986     20987     20981     20986     20988
     20981     20986     20989     20982     20981     20986     20983     20982     20984
     20983     20982     20985     20984     20982     20985     20986     20989     20990
     20986     20989     20991     20987     20986     20988     20987     20986     20989
     20988     20986     20989     20990     20989     20991     20992     20994     20995
     20992     20994     20996     20992     20994     20997     20992     20998     20999
     20992     20998     21000     20992     20998     21001     20993     20992     20994
     20993     20992     20998     20994     20992     20998     20995     20994     20996
     20995     20994     20997     20996     20994     20997     20998     21001     21002
     20998     21001     21003     20998     21001     21004     20999     20998     21000
     20999     20998     21001     21000     20998     21001     21001     21004     21005
     21001     21004     21006     21001     21004     21007     21002     21001     21003
     21002     21001     21004     21003     21001     21004     21004     21007     21008
     21004     21007     21009     21004     21007     21013     21005     21004     21006
     21005     21004     21007     21006     21004     21007     21007     21009     21010
     21007     21009     21011     21007     21009     21012     21007     21013     21014
     21007     21013     21015     21007     21013     21016     21008     21007     21009
     21008     21007     21013     21009     21007     21013     21010     21009     21011
     21010     21009     21012     21011     21009     21012     21014     21013     21015
     21014     21013     21016     21015     21013     21016     21017     21019     21020
     21017     21021     21022     21017     21021     21023     21017     21021     21024
     21017     21063     21060     21017     21063     21064     21017     21063     21065
     21018     21017     21019     21018     21017     21021     21018     21017     21063
     21019     21017     21021     21019     21017     21063     21021     21017     21063
     21021     21024     21025     21021     21024     21055     21022     21021     21023
     21022     21021     21024     21023     21021     21024     21024     21025     21026
     21024     21025     21027     21024     21055     21053     21024     21055     21056
     21024     21055     21060     21025     21024     21055     21025     21027     21028
     21025     21027     21029     21025     21027     21030     21026     21025     21027
     21027     21030     21031     21027     21030     21032     21027     21030     21053
     21028     21027     21029     21028     21027     21030     21029     21027     21030
     21030     21032     21033     21030     21032     21034     21030     21032     21042
     21030     21053     21050     21030     21053     21054     21030     21053     21055
     21031     21030     21032     21031     21030     21053     21032     21030     21053
     21032     21034     21035     21032     21034     21036     21032     21034     21037
     21032     21042     21040     21032     21042     21043     21032     21042     21047
     21033     21032     21034     21033     21032     21042     21034     21032     21042
     21034     21037     21038     21034     21037     21039     21034     21037     21040
     21035     21034     21036     21035     21034     21037     21036     21034     21037
     21037     21040     21041     21037     21040     21042     21037     21040     21066
     21038     21037     21039     21038     21037     21040     21039     21037     21040
     21040     21042     21043     21040     21042     21047     21040     21066     21067
     21040     21066     21068     21040     21066     21072     21041     21040     21042
     21041     21040     21066     21042     21040     21066     21042     21043     21044
     21042     21043     21045     21042     21043     21046     21042     21047     21048
     21042     21047     21049     21042     21047     21050     21043     21042     21047
     21044     21043     21045     21044     21043     21046     21045     21043     21046
     21047     21050     21051     21047     21050     21052     21047     21050     21053
     21048     21047     21049     21048     21047     21050     21049     21047     21050
     21050     21053     21054     21050     21053     21055     21051     21050     21052
     21051     21050     21053     21052     21050     21053     21053     21055     21056
     21053     21055     21060     21054     21053     21055     21055     21056     21057
     21055     21056     21058     21055     21056     21059     21055     21060     21061
     21055     21060     21062     21055     21060     21063     21056     21055     21060
     21057     21056     21058     21057     21056     21059     21058     21056     21059
     21060     21063     21064     21060     21063     21065     21061     21060     21062
     21061     21060     21063     21062     21060     21063     21064     21063     21065
     21066     21068     21069     21066     21068     21070     21066     21068     21071
     21066     21072     21073     21066     21072     21074     21066     21072     21075
     21067     21066     21068     21067     21066     21072     21068     21066     21072
     21069     21068     21070     21069     21068     21071     21070     21068     21071
     21072     21075     21076     21072     21075     21077     21072     21075     21078
     21073     21072     21074     21073     21072     21075     21074     21072     21075
     21075     21078     21079     21075     21078     21080     21075     21078     21081
     21076     21075     21077     21076     21075     21078     21077     21075     21078
     21078     21081     21082     21078     21081     21083     21078     21081     21087
     21079     21078     21080     21079     21078     21081     21080     21078     21081
     21081     21083     21084     21081     21083     21085     21081     21083     21086
     21081     21087     21088     21081     21087     21089     21081     21087     21090
     21082     21081     21083     21082     21081     21087     21083     21081     21087
     21084     21083     21085     21084     21083     21086     21085     21083     21086
     21088     21087     21089     21088     21087     21090     21089     21087     21090
     21091     21093     21094     21091     21095     21096     21091     21095     21097
     21091     21095     21098     21091     21137     21134     21091     21137     21138
     21091     21137     21139     21092     21091     21093     21092     21091     21095
     21092     21091     21137     21093     21091     21095     21093     21091     21137
     21095     21091     21137     21095     21098     21099     21095     21098     21129
     21096     21095     21097     21096     21095     21098     21097     21095     21098
     21098     21099     21100     21098     21099     21101     21098     21129     21127
     21098     21129     21130     21098     21129     21134     21099     21098     21129
     21099     21101     21102     21099     21101     21103     21099     21101     21104
     21100     21099     21101     21101     21104     21105     21101     21104     21106
     21101     21104     21127     21102     21101     21103     21102     21101     21104
     21103     21101     21104     21104     21106     21107     21104     21106     21108
     21104     21106     21116     21104     21127     21124     21104     21127     21128
     21104     21127     21129     21105     21104     21106     21105     21104     21127
     21106     21104     21127     21106     21108     21109     21106     21108     21110
     21106     21108     21111     21106     21116     21114     21106     21116     21117
     21106     21116     21121     21107     21106     21108     21107     21106     21116
     21108     21106     21116     21108     21111     21112     21108     21111     21113
     21108     21111     21114     21109     21108     21110     21109     21108     21111
     21110     21108     21111     21111     21114     21115     21111     21114     21116
     21111     21114     21140     21112     21111     21113     21112     21111     21114
     21113     21111     21114     21114     21116     21117     21114     21116     21121
     21114     21140     21141     21114     21140     21142     21114     21140     21146
     21115     21114     21116     21115     21114     21140     21116     21114     21140
     21116     21117     21118     21116     21117     21119     21116     21117     21120
     21116     21121     21122     21116     21121     21123     21116     21121     21124
     21117     21116     21121     21118     21117     21119     21118     21117     21120
     21119     21117     21120     21121     21124     21125     21121     21124     21126
     21121     21124     21127     21122     21121     21123     21122     21121     21124
     21123     21121     21124     21124     21127     21128     21124     21127     21129
     21125     21124     21126     21125     21124     21127     21126     21124     21127
     21127     21129     21130     21127     21129     21134     21128     21127     21129
     21129     21130     21131     21129     21130     21132     21129     21130     21133
     21129     21134     21135     21129     21134     21136     21129     21134     21137
     21130     21129     21134     21131     21130     21132     21131     21130     21133
     21132     21130     21133     21134     21137     21138     21134     21137     21139
     21135     21134     21136     21135     21134     21137     21136     21134     21137
     21138     21137     21139     21140     21142     21143     21140     21142     21144
     21140     21142     21145     21140     21146     21147     21140     21146     21148
     21140     21146     21149     21141     21140     21142     21141     21140     21146
     21142     21140     21146     21143     21142     21144     21143     21142     21145
     21144     21142     21145     21146     21149     21150     21146     21149     21151
     21146     21149     21152     21147     21146     21148     21147     21146     21149
     21148     21146     21149     21149     21152     21153     21149     21152     21154
     21149     21152     21155     21150     21149     21151     21150     21149     21152
     21151     21149     21152     21152     21155     21156     21152     21155     21157
     21152     21155     21161     21153     21152     21154     21153     21152     21155
     21154     21152     21155     21155     21157     21158     21155     21157     21159
     21155     21157     21160     21155     21161     21162     21155     21161     21163
     21155     21161     21164     21156     21155     21157     21156     21155     21161
     21157     21155     21161     21158     21157     21159     21158     21157     21160
     21159     21157     21160     21162     21161     21163     21162     21161     21164
     21163     21161     21164     21165     21167     21168     21165     21169     21170
     21165     21169     21171     21165     21169     21172     21165     21211     21208
     21165     21211     21212     21165     21211     21213     21166     21165     21167
     21166     21165     21169     21166     21165     21211     21167     21165     21169
     21167     21165     21211     21169     21165     21211     21169     21172     21173
     21169     21172     21203     21170     21169     21171     21170     21169     21172
     21171     21169     21172     21172     21173     21174     21172     21173     21175
     21172     21203     21201     21172     21203     21204     21172     21203     21208
     21173     21172     21203     21173     21175     21176     21173     21175     21177
     21173     21175     21178     21174     21173     21175     21175     21178     21179
     21175     21178     21180     21175     21178     21201     21176     21175     21177
     21176     21175     21178     21177     21175     21178     21178     21180     21181
     21178     21180     21182     21178     21180     21190     21178     21201     21198
     21178     21201     21202     21178     21201     21203     21179     21178     21180
     21179     21178     21201     21180     21178     21201     21180     21182     21183
     21180     21182     21184     21180     21182     21185     21180     21190     21188
     21180     21190     21191     21180     21190     21195     21181     21180     21182
     21181     21180     21190     21182     21180     21190     21182     21185     21186
     21182     21185     21187     21182     21185     21188     21183     21182     21184
     21183     21182     21185     21184     21182     21185     21185     21188     21189
     21185     21188     21190     21185     21188     21214     21186     21185     21187
     21186     21185     21188     21187     21185     21188     21188     21190     21191
     21188     21190     21195     21188     21214     21215     21188     21214     21216
     21188     21214     21220     21189     21188     21190     21189     21188     21214
     21190     21188     21214     21190     21191     21192     21190     21191     21193
     21190     21191     21194     21190     21195     21196     21190     21195     21197
     21190     21195     21198     21191     21190     21195     21192     21191     21193
     21192     21191     21194     21193     21191     21194     21195     21198     21199
     21195     21198     21200     21195     21198     21201     21196     21195     21197
     21196     21195     21198     21197     21195     21198     21198     21201     21202
     21198     21201     21203     21199     21198     21200     21199     21198     21201
     21200     21198     21201     21201     21203     21204     21201     21203     21208
     21202     21201     21203     21203     21204     21205     21203     21204     21206
     21203     21204     21207     21203     21208     21209     21203     21208     21210
     21203     21208     21211     21204     21203     21208     21205     21204     21206
     21205     21204     21207     21206     21204     21207     21208     21211     21212
     21208     21211     21213     21209     21208     21210     21209     21208     21211
     21210     21208     21211     21212     21211     21213     21214     21216     21217
     21214     21216     21218     21214     21216     21219     21214     21220     21221
     21214     21220     21222     21214     21220     21223     21215     21214     21216
     21215     21214     21220     21216     21214     21220     21217     21216     21218
     21217     21216     21219     21218     21216     21219     21220     21223     21224
     21220     21223     21225     21220     21223     21226     21221     21220     21222
     21221     21220     21223     21222     21220     21223     21223     21226     21227
     21223     21226     21228     21223     21226     21229     21224     21223     21225
     21224     21223     21226     21225     21223     21226     21226     21229     21230
     21226     21229     21231     21226     21229     21235     21227     21226     21228
     21227     21226     21229     21228     21226     21229     21229     21231     21232
     21229     21231     21233     21229     21231     21234     21229     21235     21236
     21229     21235     21237     21229     21235     21238     21230     21229     21231
     21230     21229     21235     21231     21229     21235     21232     21231     21233
     21232     21231     21234     21233     21231     21234     21236     21235     21237
     21236     21235     21238     21237     21235     21238     21239     21241     21242
     21239     21243     21244     21239     21243     21245     21239     21243     21246
     21239     21285     21282     21239     21285     21286     21239     21285     21287
     21240     21239     21241     21240     21239     21243     21240     21239     21285
     21241     21239     21243     21241     21239     21285     21243     21239     21285
     21243     21246     21247     21243     21246     21277     21244     21243     21245
     21244     21243     21246     21245     21243     21246     21246     21247     21248
     21246     21247     21249     21246     21277     21275     21246     21277     21278
     21246     21277     21282     21247     21246     21277     21247     21249     21250
     21247     21249     21251     21247     21249     21252     21248     21247     21249
     21249     21252     21253     21249     21252     21254     21249     21252     21275
     21250     21249     21251     21250     21249     21252     21251     21249     21252
     21252     21254     21255     21252     21254     21256     21252     21254     21264
     21252     21275     21272     21252     21275     21276     21252     21275     21277
     21253     21252     21254     21253     21252     21275     21254     21252     21275
     21254     21256     21257     21254     21256     21258     21254     21256     21259
     21254     21264     21262     21254     21264     21265     21254     21264     21269
     21255     21254     21256     21255     21254     21264     21256     21254     21264
     21256     21259     21260     21256     21259     21261     21256     21259     21262
     21257     21256     21258     21257     21256     21259     21258     21256     21259
     21259     21262     21263     21259     21262     21264     21259     21262     21288
     21260     21259     21261     21260     21259     21262     21261     21259     21262
     21262     21264     21265     21262     21264     21269     21262     21288     21289
     21262     21288     21290     21262     21288     21294     21263     21262     21264
     21263     21262     21288     21264     21262     21288     21264     21265     21266
     21264     21265     21267     21264     21265     21268     21264     21269     21270
     21264     21269     21271     21264     21269     21272     21265     21264     21269
     21266     21265     21267     21266     21265     21268     21267     21265     21268
     21269     21272     21273     21269     21272     21274     21269     21272     21275
     21270     21269     21271     21270     21269     21272     21271     21269     21272
     21272     21275     21276     21272     21275     21277     21273     21272     21274
     21273     21272     21275     21274     21272     21275     21275     21277     21278
     21275     21277     21282     21276     21275     21277     21277     21278     21279
     21277     21278     21280     21277     21278     21281     21277     21282     21283
     21277     21282     21284     21277     21282     21285     21278     21277     21282
     21279     21278     21280     21279     21278     21281     21280     21278     21281
     21282     21285     21286     21282     21285     21287     21283     21282     21284
     21283     21282     21285     21284     21282     21285     21286     21285     21287
     21288     21290     21291     21288     21290     21292     21288     21290     21293
     21288     21294     21295     21288     21294     21296     21288     21294     21297
     21289     21288     21290     21289     21288     21294     21290     21288     21294
     21291     21290     21292     21291     21290     21293     21292     21290     21293
     21294     21297     21298     21294     21297     21299     21294     21297     21300
     21295     21294     21296     21295     21294     21297     21296     21294     21297
     21297     21300     21301     21297     21300     21302     21297     21300     21303
     21298     21297     21299     21298     21297     21300     21299     21297     21300
     21300     21303     21304     21300     21303     21305     21300     21303     21309
     21301     21300     21302     21301     21300     21303     21302     21300     21303
     21303     21305     21306     21303     21305     21307     21303     21305     21308
     21303     21309     21310     21303     21309     21311     21303     21309     21312
     21304     21303     21305     21304     21303     21309     21305     21303     21309
     21306     21305     21307     21306     21305     21308     21307     21305     21308
     21310     21309     21311     21310     21309     21312     21311     21309     21312
     21313     21315     21316     21313     21317     21318     21313     21317     21319
     21313     21317     21320     21313     21359     21356     21313     21359     21360
     21313     21359     21361     21314     21313     21315     21314     21313     21317
     21314     21313     21359     21315     21313     21317     21315     21313     21359
     21317     21313     21359     21317     21320     21321     21317     21320     21351
     21318     21317     21319     21318     21317     21320     21319     21317     21320
     21320     21321     21322     21320     21321     21323     21320     21351     21349
     21320     21351     21352     21320     21351     21356     21321     21320     21351
     21321     21323     21324     21321     21323     21325     21321     21323     21326
     21322     21321     21323     21323     21326     21327     21323     21326     21328
     21323     21326     21349     21324     21323     21325     21324     21323     21326
     21325     21323     21326     21326     21328     21329     21326     21328     21330
     21326     21328     21338     21326     21349     21346     21326     21349     21350
     21326     21349     21351     21327     21326     21328     21327     21326     21349
     21328     21326     21349     21328     21330     21331     21328     21330     21332
     21328     21330     21333     21328     21338     21336     21328     21338     21339
     21328     21338     21343     21329     21328     21330     21329     21328     21338
     21330     21328     21338     21330     21333     21334     21330     21333     21335
     21330     21333     21336     21331     21330     21332     21331     21330     21333
     21332     21330     21333     21333     21336     21337     21333     21336     21338
     21333     21336     21362     21334     21333     21335     21334     21333     21336
     21335     21333     21336     21336     21338     21339     21336     21338     21343
     21336     21362     21363     21336     21362     21364     21336     21362     21368
     21337     21336     21338     21337     21336     21362     21338     21336     21362
     21338     21339     21340     21338     21339     21341     21338     21339     21342
     21338     21343     21344     21338     21343     21345     21338     21343     21346
     21339     21338     21343     21340     21339     21341     21340     21339     21342
     21341     21339     21342     21343     21346     21347     21343     21346     21348
     21343     21346     21349     21344     21343     21345     21344     21343     21346
     21345     21343     21346     21346     21349     21350     21346     21349     21351
     21347     21346     21348     21347     21346     21349     21348     21346     21349
     21349     21351     21352     21349     21351     21356     21350     21349     21351
     21351     21352     21353     21351     21352     21354     21351     21352     21355
     21351     21356     21357     21351     21356     21358     21351     21356     21359
     21352     21351     21356     21353     21352     21354     21353     21352     21355
     21354     21352     21355     21356     21359     21360     21356     21359     21361
     21357     21356     21358     21357     21356     21359     21358     21356     21359
     21360     21359     21361     21362     21364     21365     21362     21364     21366
     21362     21364     21367     21362     21368     21369     21362     21368     21370
     21362     21368     21371     21363     21362     21364     21363     21362     21368
     21364     21362     21368     21365     21364     21366     21365     21364     21367
     21366     21364     21367     21368     21371     21372     21368     21371     21373
     21368     21371     21374     21369     21368     21370     21369     21368     21371
     21370     21368     21371     21371     21374     21375     21371     21374     21376
     21371     21374     21377     21372     21371     21373     21372     21371     21374
     21373     21371     21374     21374     21377     21378     21374     21377     21379
     21374     21377     21383     21375     21374     21376     21375     21374     21377
     21376     21374     21377     21377     21379     21380     21377     21379     21381
     21377     21379     21382     21377     21383     21384     21377     21383     21385
     21377     21383     21386     21378     21377     21379     21378     21377     21383
     21379     21377     21383     21380     21379     21381     21380     21379     21382
     21381     21379     21382     21384     21383     21385     21384     21383     21386
     21385     21383     21386     21387     21389     21390     21387     21391     21392
     21387     21391     21393     21387     21391     21394     21387     21433     21430
     21387     21433     21434     21387     21433     21435     21388     21387     21389
     21388     21387     21391     21388     21387     21433     21389     21387     21391
     21389     21387     21433     21391     21387     21433     21391     21394     21395
     21391     21394     21425     21392     21391     21393     21392     21391     21394
     21393     21391     21394     21394     21395     21396     21394     21395     21397
     21394     21425     21423     21394     21425     21426     21394     21425     21430
     21395     21394     21425     21395     21397     21398     21395     21397     21399
     21395     21397     21400     21396     21395     21397     21397     21400     21401
     21397     21400     21402     21397     21400     21423     21398     21397     21399
     21398     21397     21400     21399     21397     21400     21400     21402     21403
     21400     21402     21404     21400     21402     21412     21400     21423     21420
     21400     21423     21424     21400     21423     21425     21401     21400     21402
     21401     21400     21423     21402     21400     21423     21402     21404     21405
     21402     21404     21406     21402     21404     21407     21402     21412     21410
     21402     21412     21413     21402     21412     21417     21403     21402     21404
     21403     21402     21412     21404     21402     21412     21404     21407     21408
     21404     21407     21409     21404     21407     21410     21405     21404     21406
     21405     21404     21407     21406     21404     21407     21407     21410     21411
     21407     21410     21412     21407     21410     21436     21408     21407     21409
     21408     21407     21410     21409     21407     21410     21410     21412     21413
     21410     21412     21417     21410     21436     21437     21410     21436     21438
     21410     21436     21442     21411     21410     21412     21411     21410     21436
     21412     21410     21436     21412     21413     21414     21412     21413     21415
     21412     21413     21416     21412     21417     21418     21412     21417     21419
     21412     21417     21420     21413     21412     21417     21414     21413     21415
     21414     21413     21416     21415     21413     21416     21417     21420     21421
     21417     21420     21422     21417     21420     21423     21418     21417     21419
     21418     21417     21420     21419     21417     21420     21420     21423     21424
     21420     21423     21425     21421     21420     21422     21421     21420     21423
     21422     21420     21423     21423     21425     21426     21423     21425     21430
     21424     21423     21425     21425     21426     21427     21425     21426     21428
     21425     21426     21429     21425     21430     21431     21425     21430     21432
     21425     21430     21433     21426     21425     21430     21427     21426     21428
     21427     21426     21429     21428     21426     21429     21430     21433     21434
     21430     21433     21435     21431     21430     21432     21431     21430     21433
     21432     21430     21433     21434     21433     21435     21436     21438     21439
     21436     21438     21440     21436     21438     21441     21436     21442     21443
     21436     21442     21444     21436     21442     21445     21437     21436     21438
     21437     21436     21442     21438     21436     21442     21439     21438     21440
     21439     21438     21441     21440     21438     21441     21442     21445     21446
     21442     21445     21447     21442     21445     21448     21443     21442     21444
     21443     21442     21445     21444     21442     21445     21445     21448     21449
     21445     21448     21450     21445     21448     21451     21446     21445     21447
     21446     21445     21448     21447     21445     21448     21448     21451     21452
     21448     21451     21453     21448     21451     21457     21449     21448     21450
     21449     21448     21451     21450     21448     21451     21451     21453     21454
     21451     21453     21455     21451     21453     21456     21451     21457     21458
     21451     21457     21459     21451     21457     21460     21452     21451     21453
     21452     21451     21457     21453     21451     21457     21454     21453     21455
     21454     21453     21456     21455     21453     21456     21458     21457     21459
     21458     21457     21460     21459     21457     21460     21461     21463     21464
     21461     21465     21466     21461     21465     21467     21461     21465     21468
     21461     21507     21504     21461     21507     21508     21461     21507     21509
     21462     21461     21463     21462     21461     21465     21462     21461     21507
     21463     21461     21465     21463     21461     21507     21465     21461     21507
     21465     21468     21469     21465     21468     21499     21466     21465     21467
     21466     21465     21468     21467     21465     21468     21468     21469     21470
     21468     21469     21471     21468     21499     21497     21468     21499     21500
     21468     21499     21504     21469     21468     21499     21469     21471     21472
     21469     21471     21473     21469     21471     21474     21470     21469     21471
     21471     21474     21475     21471     21474     21476     21471     21474     21497
     21472     21471     21473     21472     21471     21474     21473     21471     21474
     21474     21476     21477     21474     21476     21478     21474     21476     21486
     21474     21497     21494     21474     21497     21498     21474     21497     21499
     21475     21474     21476     21475     21474     21497     21476     21474     21497
     21476     21478     21479     21476     21478     21480     21476     21478     21481
     21476     21486     21484     21476     21486     21487     21476     21486     21491
     21477     21476     21478     21477     21476     21486     21478     21476     21486
     21478     21481     21482     21478     21481     21483     21478     21481     21484
     21479     21478     21480     21479     21478     21481     21480     21478     21481
     21481     21484     21485     21481     21484     21486     21481     21484     21510
     21482     21481     21483     21482     21481     21484     21483     21481     21484
     21484     21486     21487     21484     21486     21491     21484     21510     21511
     21484     21510     21512     21484     21510     21516     21485     21484     21486
     21485     21484     21510     21486     21484     21510     21486     21487     21488
     21486     21487     21489     21486     21487     21490     21486     21491     21492
     21486     21491     21493     21486     21491     21494     21487     21486     21491
     21488     21487     21489     21488     21487     21490     21489     21487     21490
     21491     21494     21495     21491     21494     21496     21491     21494     21497
     21492     21491     21493     21492     21491     21494     21493     21491     21494
     21494     21497     21498     21494     21497     21499     21495     21494     21496
     21495     21494     21497     21496     21494     21497     21497     21499     21500
     21497     21499     21504     21498     21497     21499     21499     21500     21501
     21499     21500     21502     21499     21500     21503     21499     21504     21505
     21499     21504     21506     21499     21504     21507     21500     21499     21504
     21501     21500     21502     21501     21500     21503     21502     21500     21503
     21504     21507     21508     21504     21507     21509     21505     21504     21506
     21505     21504     21507     21506     21504     21507     21508     21507     21509
     21510     21512     21513     21510     21512     21514     21510     21512     21515
     21510     21516     21517     21510     21516     21518     21510     21516     21519
     21511     21510     21512     21511     21510     21516     21512     21510     21516
     21513     21512     21514     21513     21512     21515     21514     21512     21515
     21516     21519     21520     21516     21519     21521     21516     21519     21522
     21517     21516     21518     21517     21516     21519     21518     21516     21519
     21519     21522     21523     21519     21522     21524     21519     21522     21525
     21520     21519     21521     21520     21519     21522     21521     21519     21522
     21522     21525     21526     21522     21525     21527     21522     21525     21531
     21523     21522     21524     21523     21522     21525     21524     21522     21525
     21525     21527     21528     21525     21527     21529     21525     21527     21530
     21525     21531     21532     21525     21531     21533     21525     21531     21534
     21526     21525     21527     21526     21525     21531     21527     21525     21531
     21528     21527     21529     21528     21527     21530     21529     21527     21530
     21532     21531     21533     21532     21531     21534     21533     21531     21534
     21535     21537     21538     21535     21539     21540     21535     21539     21541
     21535     21539     21542     21535     21581     21578     21535     21581     21582
     21535     21581     21583     21536     21535     21537     21536     21535     21539
     21536     21535     21581     21537     21535     21539     21537     21535     21581
     21539     21535     21581     21539     21542     21543     21539     21542     21573
     21540     21539     21541     21540     21539     21542     21541     21539     21542
     21542     21543     21544     21542     21543     21545     21542     21573     21571
     21542     21573     21574     21542     21573     21578     21543     21542     21573
     21543     21545     21546     21543     21545     21547     21543     21545     21548
     21544     21543     21545     21545     21548     21549     21545     21548     21550
     21545     21548     21571     21546     21545     21547     21546     21545     21548
     21547     21545     21548     21548     21550     21551     21548     21550     21552
     21548     21550     21560     21548     21571     21568     21548     21571     21572
     21548     21571     21573     21549     21548     21550     21549     21548     21571
     21550     21548     21571     21550     21552     21553     21550     21552     21554
     21550     21552     21555     21550     21560     21558     21550     21560     21561
     21550     21560     21565     21551     21550     21552     21551     21550     21560
     21552     21550     21560     21552     21555     21556     21552     21555     21557
     21552     21555     21558     21553     21552     21554     21553     21552     21555
     21554     21552     21555     21555     21558     21559     21555     21558     21560
     21555     21558     21584     21556     21555     21557     21556     21555     21558
     21557     21555     21558     21558     21560     21561     21558     21560     21565
     21558     21584     21585     21558     21584     21586     21558     21584     21590
     21559     21558     21560     21559     21558     21584     21560     21558     21584
     21560     21561     21562     21560     21561     21563     21560     21561     21564
     21560     21565     21566     21560     21565     21567     21560     21565     21568
     21561     21560     21565     21562     21561     21563     21562     21561     21564
     21563     21561     21564     21565     21568     21569     21565     21568     21570
     21565     21568     21571     21566     21565     21567     21566     21565     21568
     21567     21565     21568     21568     21571     21572     21568     21571     21573
     21569     21568     21570     21569     21568     21571     21570     21568     21571
     21571     21573     21574     21571     21573     21578     21572     21571     21573
     21573     21574     21575     21573     21574     21576     21573     21574     21577
     21573     21578     21579     21573     21578     21580     21573     21578     21581
     21574     21573     21578     21575     21574     21576     21575     21574     21577
     21576     21574     21577     21578     21581     21582     21578     21581     21583
     21579     21578     21580     21579     21578     21581     21580     21578     21581
     21582     21581     21583     21584     21586     21587     21584     21586     21588
     21584     21586     21589     21584     21590     21591     21584     21590     21592
     21584     21590     21593     21585     21584     21586     21585     21584     21590
     21586     21584     21590     21587     21586     21588     21587     21586     21589
     21588     21586     21589     21590     21593     21594     21590     21593     21595
     21590     21593     21596     21591     21590     21592     21591     21590     21593
     21592     21590     21593     21593     21596     21597     21593     21596     21598
     21593     21596     21599     21594     21593     21595     21594     21593     21596
     21595     21593     21596     21596     21599     21600     21596     21599     21601
     21596     21599     21605     21597     21596     21598     21597     21596     21599
     21598     21596     21599     21599     21601     21602     21599     21601     21603
     21599     21601     21604     21599     21605     21606     21599     21605     21607
     21599     21605     21608     21600     21599     21601     21600     21599     21605
     21601     21599     21605     21602     21601     21603     21602     21601     21604
     21603     21601     21604     21606     21605     21607     21606     21605     21608
     21607     21605     21608     21609     21611     21612     21609     21613     21614
     21609     21613     21615     21609     21613     21616     21609     21655     21652
     21609     21655     21656     21609     21655     21657     21610     21609     21611
     21610     21609     21613     21610     21609     21655     21611     21609     21613
     21611     21609     21655     21613     21609     21655     21613     21616     21617
     21613     21616     21647     21614     21613     21615     21614     21613     21616
     21615     21613     21616     21616     21617     21618     21616     21617     21619
     21616     21647     21645     21616     21647     21648     21616     21647     21652
     21617     21616     21647     21617     21619     21620     21617     21619     21621
     21617     21619     21622     21618     21617     21619     21619     21622     21623
     21619     21622     21624     21619     21622     21645     21620     21619     21621
     21620     21619     21622     21621     21619     21622     21622     21624     21625
     21622     21624     21626     21622     21624     21634     21622     21645     21642
     21622     21645     21646     21622     21645     21647     21623     21622     21624
     21623     21622     21645     21624     21622     21645     21624     21626     21627
     21624     21626     21628     21624     21626     21629     21624     21634     21632
     21624     21634     21635     21624     21634     21639     21625     21624     21626
     21625     21624     21634     21626     21624     21634     21626     21629     21630
     21626     21629     21631     21626     21629     21632     21627     21626     21628
     21627     21626     21629     21628     21626     21629     21629     21632     21633
     21629     21632     21634     21629     21632     21658     21630     21629     21631
     21630     21629     21632     21631     21629     21632     21632     21634     21635
     21632     21634     21639     21632     21658     21659     21632     21658     21660
     21632     21658     21664     21633     21632     21634     21633     21632     21658
     21634     21632     21658     21634     21635     21636     21634     21635     21637
     21634     21635     21638     21634     21639     21640     21634     21639     21641
     21634     21639     21642     21635     21634     21639     21636     21635     21637
     21636     21635     21638     21637     21635     21638     21639     21642     21643
     21639     21642     21644     21639     21642     21645     21640     21639     21641
     21640     21639     21642     21641     21639     21642     21642     21645     21646
     21642     21645     21647     21643     21642     21644     21643     21642     21645
     21644     21642     21645     21645     21647     21648     21645     21647     21652
     21646     21645     21647     21647     21648     21649     21647     21648     21650
     21647     21648     21651     21647     21652     21653     21647     21652     21654
     21647     21652     21655     21648     21647     21652     21649     21648     21650
     21649     21648     21651     21650     21648     21651     21652     21655     21656
     21652     21655     21657     21653     21652     21654     21653     21652     21655
     21654     21652     21655     21656     21655     21657     21658     21660     21661
     21658     21660     21662     21658     21660     21663     21658     21664     21665
     21658     21664     21666     21658     21664     21667     21659     21658     21660
     21659     21658     21664     21660     21658     21664     21661     21660     21662
     21661     21660     21663     21662     21660     21663     21664     21667     21668
     21664     21667     21669     21664     21667     21670     21665     21664     21666
     21665     21664     21667     21666     21664     21667     21667     21670     21671
     21667     21670     21672     21667     21670     21673     21668     21667     21669
     21668     21667     21670     21669     21667     21670     21670     21673     21674
     21670     21673     21675     21670     21673     21679     21671     21670     21672
     21671     21670     21673     21672     21670     21673     21673     21675     21676
     21673     21675     21677     21673     21675     21678     21673     21679     21680
     21673     21679     21681     21673     21679     21682     21674     21673     21675
     21674     21673     21679     21675     21673     21679     21676     21675     21677
     21676     21675     21678     21677     21675     21678     21680     21679     21681
     21680     21679     21682     21681     21679     21682     21683     21685     21686
     21683     21687     21688     21683     21687     21689     21683     21687     21690
     21683     21729     21726     21683     21729     21730     21683     21729     21731
     21684     21683     21685     21684     21683     21687     21684     21683     21729
     21685     21683     21687     21685     21683     21729     21687     21683     21729
     21687     21690     21691     21687     21690     21721     21688     21687     21689
     21688     21687     21690     21689     21687     21690     21690     21691     21692
     21690     21691     21693     21690     21721     21719     21690     21721     21722
     21690     21721     21726     21691     21690     21721     21691     21693     21694
     21691     21693     21695     21691     21693     21696     21692     21691     21693
     21693     21696     21697     21693     21696     21698     21693     21696     21719
     21694     21693     21695     21694     21693     21696     21695     21693     21696
     21696     21698     21699     21696     21698     21700     21696     21698     21708
     21696     21719     21716     21696     21719     21720     21696     21719     21721
     21697     21696     21698     21697     21696     21719     21698     21696     21719
     21698     21700     21701     21698     21700     21702     21698     21700     21703
     21698     21708     21706     21698     21708     21709     21698     21708     21713
     21699     21698     21700     21699     21698     21708     21700     21698     21708
     21700     21703     21704     21700     21703     21705     21700     21703     21706
     21701     21700     21702     21701     21700     21703     21702     21700     21703
     21703     21706     21707     21703     21706     21708     21703     21706     21732
     21704     21703     21705     21704     21703     21706     21705     21703     21706
     21706     21708     21709     21706     21708     21713     21706     21732     21733
     21706     21732     21734     21706     21732     21738     21707     21706     21708
     21707     21706     21732     21708     21706     21732     21708     21709     21710
     21708     21709     21711     21708     21709     21712     21708     21713     21714
     21708     21713     21715     21708     21713     21716     21709     21708     21713
     21710     21709     21711     21710     21709     21712     21711     21709     21712
     21713     21716     21717     21713     21716     21718     21713     21716     21719
     21714     21713     21715     21714     21713     21716     21715     21713     21716
     21716     21719     21720     21716     21719     21721     21717     21716     21718
     21717     21716     21719     21718     21716     21719     21719     21721     21722
     21719     21721     21726     21720     21719     21721     21721     21722     21723
     21721     21722     21724     21721     21722     21725     21721     21726     21727
     21721     21726     21728     21721     21726     21729     21722     21721     21726
     21723     21722     21724     21723     21722     21725     21724     21722     21725
     21726     21729     21730     21726     21729     21731     21727     21726     21728
     21727     21726     21729     21728     21726     21729     21730     21729     21731
     21732     21734     21735     21732     21734     21736     21732     21734     21737
     21732     21738     21739     21732     21738     21740     21732     21738     21741
     21733     21732     21734     21733     21732     21738     21734     21732     21738
     21735     21734     21736     21735     21734     21737     21736     21734     21737
     21738     21741     21742     21738     21741     21743     21738     21741     21744
     21739     21738     21740     21739     21738     21741     21740     21738     21741
     21741     21744     21745     21741     21744     21746     21741     21744     21747
     21742     21741     21743     21742     21741     21744     21743     21741     21744
     21744     21747     21748     21744     21747     21749     21744     21747     21753
     21745     21744     21746     21745     21744     21747     21746     21744     21747
     21747     21749     21750     21747     21749     21751     21747     21749     21752
     21747     21753     21754     21747     21753     21755     21747     21753     21756
     21748     21747     21749     21748     21747     21753     21749     21747     21753
     21750     21749     21751     21750     21749     21752     21751     21749     21752
     21754     21753     21755     21754     21753     21756     21755     21753     21756
     21757     21759     21760     21757     21761     21762     21757     21761     21763
     21757     21761     21764     21757     21803     21800     21757     21803     21804
     21757     21803     21805     21758     21757     21759     21758     21757     21761
     21758     21757     21803     21759     21757     21761     21759     21757     21803
     21761     21757     21803     21761     21764     21765     21761     21764     21795
     21762     21761     21763     21762     21761     21764     21763     21761     21764
     21764     21765     21766     21764     21765     21767     21764     21795     21793
     21764     21795     21796     21764     21795     21800     21765     21764     21795
     21765     21767     21768     21765     21767     21769     21765     21767     21770
     21766     21765     21767     21767     21770     21771     21767     21770     21772
     21767     21770     21793     21768     21767     21769     21768     21767     21770
     21769     21767     21770     21770     21772     21773     21770     21772     21774
     21770     21772     21782     21770     21793     21790     21770     21793     21794
     21770     21793     21795     21771     21770     21772     21771     21770     21793
     21772     21770     21793     21772     21774     21775     21772     21774     21776
     21772     21774     21777     21772     21782     21780     21772     21782     21783
     21772     21782     21787     21773     21772     21774     21773     21772     21782
     21774     21772     21782     21774     21777     21778     21774     21777     21779
     21774     21777     21780     21775     21774     21776     21775     21774     21777
     21776     21774     21777     21777     21780     21781     21777     21780     21782
     21777     21780     21806     21778     21777     21779     21778     21777     21780
     21779     21777     21780     21780     21782     21783     21780     21782     21787
     21780     21806     21807     21780     21806     21808     21780     21806     21812
     21781     21780     21782     21781     21780     21806     21782     21780     21806
     21782     21783     21784     21782     21783     21785     21782     21783     21786
     21782     21787     21788     21782     21787     21789     21782     21787     21790
     21783     21782     21787     21784     21783     21785     21784     21783     21786
     21785     21783     21786     21787     21790     21791     21787     21790     21792
     21787     21790     21793     21788     21787     21789     21788     21787     21790
     21789     21787     21790     21790     21793     21794     21790     21793     21795
     21791     21790     21792     21791     21790     21793     21792     21790     21793
     21793     21795     21796     21793     21795     21800     21794     21793     21795
     21795     21796     21797     21795     21796     21798     21795     21796     21799
     21795     21800     21801     21795     21800     21802     21795     21800     21803
     21796     21795     21800     21797     21796     21798     21797     21796     21799
     21798     21796     21799     21800     21803     21804     21800     21803     21805
     21801     21800     21802     21801     21800     21803     21802     21800     21803
     21804     21803     21805     21806     21808     21809     21806     21808     21810
     21806     21808     21811     21806     21812     21813     21806     21812     21814
     21806     21812     21815     21807     21806     21808     21807     21806     21812
     21808     21806     21812     21809     21808     21810     21809     21808     21811
     21810     21808     21811     21812     21815     21816     21812     21815     21817
     21812     21815     21818     21813     21812     21814     21813     21812     21815
     21814     21812     21815     21815     21818     21819     21815     21818     21820
     21815     21818     21821     21816     21815     21817     21816     21815     21818
     21817     21815     21818     21818     21821     21822     21818     21821     21823
     21818     21821     21827     21819     21818     21820     21819     21818     21821
     21820     21818     21821     21821     21823     21824     21821     21823     21825
     21821     21823     21826     21821     21827     21828     21821     21827     21829
     21821     21827     21830     21822     21821     21823     21822     21821     21827
     21823     21821     21827     21824     21823     21825     21824     21823     21826
     21825     21823     21826     21828     21827     21829     21828     21827     21830
     21829     21827     21830     21831     21833     21834     21831     21835     21836
     21831     21835     21837     21831     21835     21838     21831     21877     21874
     21831     21877     21878     21831     21877     21879     21832     21831     21833
     21832     21831     21835     21832     21831     21877     21833     21831     21835
     21833     21831     21877     21835     21831     21877     21835     21838     21839
     21835     21838     21869     21836     21835     21837     21836     21835     21838
     21837     21835     21838     21838     21839     21840     21838     21839     21841
     21838     21869     21867     21838     21869     21870     21838     21869     21874
     21839     21838     21869     21839     21841     21842     21839     21841     21843
     21839     21841     21844     21840     21839     21841     21841     21844     21845
     21841     21844     21846     21841     21844     21867     21842     21841     21843
     21842     21841     21844     21843     21841     21844     21844     21846     21847
     21844     21846     21848     21844     21846     21856     21844     21867     21864
     21844     21867     21868     21844     21867     21869     21845     21844     21846
     21845     21844     21867     21846     21844     21867     21846     21848     21849
     21846     21848     21850     21846     21848     21851     21846     21856     21854
     21846     21856     21857     21846     21856     21861     21847     21846     21848
     21847     21846     21856     21848     21846     21856     21848     21851     21852
     21848     21851     21853     21848     21851     21854     21849     21848     21850
     21849     21848     21851     21850     21848     21851     21851     21854     21855
     21851     21854     21856     21851     21854     21880     21852     21851     21853
     21852     21851     21854     21853     21851     21854     21854     21856     21857
     21854     21856     21861     21854     21880     21881     21854     21880     21882
     21854     21880     21886     21855     21854     21856     21855     21854     21880
     21856     21854     21880     21856     21857     21858     21856     21857     21859
     21856     21857     21860     21856     21861     21862     21856     21861     21863
     21856     21861     21864     21857     21856     21861     21858     21857     21859
     21858     21857     21860     21859     21857     21860     21861     21864     21865
     21861     21864     21866     21861     21864     21867     21862     21861     21863
     21862     21861     21864     21863     21861     21864     21864     21867     21868
     21864     21867     21869     21865     21864     21866     21865     21864     21867
     21866     21864     21867     21867     21869     21870     21867     21869     21874
     21868     21867     21869     21869     21870     21871     21869     21870     21872
     21869     21870     21873     21869     21874     21875     21869     21874     21876
     21869     21874     21877     21870     21869     21874     21871     21870     21872
     21871     21870     21873     21872     21870     21873     21874     21877     21878
     21874     21877     21879     21875     21874     21876     21875     21874     21877
     21876     21874     21877     21878     21877     21879     21880     21882     21883
     21880     21882     21884     21880     21882     21885     21880     21886     21887
     21880     21886     21888     21880     21886     21889     21881     21880     21882
     21881     21880     21886     21882     21880     21886     21883     21882     21884
     21883     21882     21885     21884     21882     21885     21886     21889     21890
     21886     21889     21891     21886     21889     21892     21887     21886     21888
     21887     21886     21889     21888     21886     21889     21889     21892     21893
     21889     21892     21894     21889     21892     21895     21890     21889     21891
     21890     21889     21892     21891     21889     21892     21892     21895     21896
     21892     21895     21897     21892     21895     21901     21893     21892     21894
     21893     21892     21895     21894     21892     21895     21895     21897     21898
     21895     21897     21899     21895     21897     21900     21895     21901     21902
     21895     21901     21903     21895     21901     21904     21896     21895     21897
     21896     21895     21901     21897     21895     21901     21898     21897     21899
     21898     21897     21900     21899     21897     21900     21902     21901     21903
     21902     21901     21904     21903     21901     21904     21905     21907     21908
     21905     21909     21910     21905     21909     21911     21905     21909     21912
     21905     21951     21948     21905     21951     21952     21905     21951     21953
     21906     21905     21907     21906     21905     21909     21906     21905     21951
     21907     21905     21909     21907     21905     21951     21909     21905     21951
     21909     21912     21913     21909     21912     21943     21910     21909     21911
     21910     21909     21912     21911     21909     21912     21912     21913     21914
     21912     21913     21915     21912     21943     21941     21912     21943     21944
     21912     21943     21948     21913     21912     21943     21913     21915     21916
     21913     21915     21917     21913     21915     21918     21914     21913     21915
     21915     21918     21919     21915     21918     21920     21915     21918     21941
     21916     21915     21917     21916     21915     21918     21917     21915     21918
     21918     21920     21921     21918     21920     21922     21918     21920     21930
     21918     21941     21938     21918     21941     21942     21918     21941     21943
     21919     21918     21920     21919     21918     21941     21920     21918     21941
     21920     21922     21923     21920     21922     21924     21920     21922     21925
     21920     21930     21928     21920     21930     21931     21920     21930     21935
     21921     21920     21922     21921     21920     21930     21922     21920     21930
     21922     21925     21926     21922     21925     21927     21922     21925     21928
     21923     21922     21924     21923     21922     21925     21924     21922     21925
     21925     21928     21929     21925     21928     21930     21925     21928     21954
     21926     21925     21927     21926     21925     21928     21927     21925     21928
     21928     21930     21931     21928     21930     21935     21928     21954     21955
     21928     21954     21956     21928     21954     21960     21929     21928     21930
     21929     21928     21954     21930     21928     21954     21930     21931     21932
     21930     21931     21933     21930     21931     21934     21930     21935     21936
     21930     21935     21937     21930     21935     21938     21931     21930     21935
     21932     21931     21933     21932     21931     21934     21933     21931     21934
     21935     21938     21939     21935     21938     21940     21935     21938     21941
     21936     21935     21937     21936     21935     21938     21937     21935     21938
     21938     21941     21942     21938     21941     21943     21939     21938     21940
     21939     21938     21941     21940     21938     21941     21941     21943     21944
     21941     21943     21948     21942     21941     21943     21943     21944     21945
     21943     21944     21946     21943     21944     21947     21943     21948     21949
     21943     21948     21950     21943     21948     21951     21944     21943     21948
     21945     21944     21946     21945     21944     21947     21946     21944     21947
     21948     21951     21952     21948     21951     21953     21949     21948     21950
     21949     21948     21951     21950     21948     21951     21952     21951     21953
     21954     21956     21957     21954     21956     21958     21954     21956     21959
     21954     21960     21961     21954     21960     21962     21954     21960     21963
     21955     21954     21956     21955     21954     21960     21956     21954     21960
     21957     21956     21958     21957     21956     21959     21958     21956     21959
     21960     21963     21964     21960     21963     21965     21960     21963     21966
     21961     21960     21962     21961     21960     21963     21962     21960     21963
     21963     21966     21967     21963     21966     21968     21963     21966     21969
     21964     21963     21965     21964     21963     21966     21965     21963     21966
     21966     21969     21970     21966     21969     21971     21966     21969     21975
     21967     21966     21968     21967     21966     21969     21968     21966     21969
     21969     21971     21972     21969     21971     21973     21969     21971     21974
     21969     21975     21976     21969     21975     21977     21969     21975     21978
     21970     21969     21971     21970     21969     21975     21971     21969     21975
     21972     21971     21973     21972     21971     21974     21973     21971     21974
     21976     21975     21977     21976     21975     21978     21977     21975     21978
     21979     21981     21982     21979     21983     21984     21979     21983     21985
     21979     21983     21986     21979     22025     22022     21979     22025     22026
     21979     22025     22027     21980     21979     21981     21980     21979     21983
     21980     21979     22025     21981     21979     21983     21981     21979     22025
     21983     21979     22025     21983     21986     21987     21983     21986     22017
     21984     21983     21985     21984     21983     21986     21985     21983     21986
     21986     21987     21988     21986     21987     21989     21986     22017     22015
     21986     22017     22018     21986     22017     22022     21987     21986     22017
     21987     21989     21990     21987     21989     21991     21987     21989     21992
     21988     21987     21989     21989     21992     21993     21989     21992     21994
     21989     21992     22015     21990     21989     21991     21990     21989     21992
     21991     21989     21992     21992     21994     21995     21992     21994     21996
     21992     21994     22004     21992     22015     22012     21992     22015     22016
     21992     22015     22017     21993     21992     21994     21993     21992     22015
     21994     21992     22015     21994     21996     21997     21994     21996     21998
     21994     21996     21999     21994     22004     22002     21994     22004     22005
     21994     22004     22009     21995     21994     21996     21995     21994     22004
     21996     21994     22004     21996     21999     22000     21996     21999     22001
     21996     21999     22002     21997     21996     21998     21997     21996     21999
     21998     21996     21999     21999     22002     22003     21999     22002     22004
     21999     22002     22028     22000     21999     22001     22000     21999     22002
     22001     21999     22002     22002     22004     22005     22002     22004     22009
     22002     22028     22029     22002     22028     22030     22002     22028     22034
     22003     22002     22004     22003     22002     22028     22004     22002     22028
     22004     22005     22006     22004     22005     22007     22004     22005     22008
     22004     22009     22010     22004     22009     22011     22004     22009     22012
     22005     22004     22009     22006     22005     22007     22006     22005     22008
     22007     22005     22008     22009     22012     22013     22009     22012     22014
     22009     22012     22015     22010     22009     22011     22010     22009     22012
     22011     22009     22012     22012     22015     22016     22012     22015     22017
     22013     22012     22014     22013     22012     22015     22014     22012     22015
     22015     22017     22018     22015     22017     22022     22016     22015     22017
     22017     22018     22019     22017     22018     22020     22017     22018     22021
     22017     22022     22023     22017     22022     22024     22017     22022     22025
     22018     22017     22022     22019     22018     22020     22019     22018     22021
     22020     22018     22021     22022     22025     22026     22022     22025     22027
     22023     22022     22024     22023     22022     22025     22024     22022     22025
     22026     22025     22027     22028     22030     22031     22028     22030     22032
     22028     22030     22033     22028     22034     22035     22028     22034     22036
     22028     22034     22037     22029     22028     22030     22029     22028     22034
     22030     22028     22034     22031     22030     22032     22031     22030     22033
     22032     22030     22033     22034     22037     22038     22034     22037     22039
     22034     22037     22040     22035     22034     22036     22035     22034     22037
     22036     22034     22037     22037     22040     22041     22037     22040     22042
     22037     22040     22043     22038     22037     22039     22038     22037     22040
     22039     22037     22040     22040     22043     22044     22040     22043     22045
     22040     22043     22049     22041     22040     22042     22041     22040     22043
     22042     22040     22043     22043     22045     22046     22043     22045     22047
     22043     22045     22048     22043     22049     22050     22043     22049     22051
     22043     22049     22052     22044     22043     22045     22044     22043     22049
     22045     22043     22049     22046     22045     22047     22046     22045     22048
     22047     22045     22048     22050     22049     22051     22050     22049     22052
     22051     22049     22052     22053     22055     22056     22053     22057     22058
     22053     22057     22059     22053     22057     22060     22053     22099     22096
     22053     22099     22100     22053     22099     22101     22054     22053     22055
     22054     22053     22057     22054     22053     22099     22055     22053     22057
     22055     22053     22099     22057     22053     22099     22057     22060     22061
     22057     22060     22091     22058     22057     22059     22058     22057     22060
     22059     22057     22060     22060     22061     22062     22060     22061     22063
     22060     22091     22089     22060     22091     22092     22060     22091     22096
     22061     22060     22091     22061     22063     22064     22061     22063     22065
     22061     22063     22066     22062     22061     22063     22063     22066     22067
     22063     22066     22068     22063     22066     22089     22064     22063     22065
     22064     22063     22066     22065     22063     22066     22066     22068     22069
     22066     22068     22070     22066     22068     22078     22066     22089     22086
     22066     22089     22090     22066     22089     22091     22067     22066     22068
     22067     22066     22089     22068     22066     22089     22068     22070     22071
     22068     22070     22072     22068     22070     22073     22068     22078     22076
     22068     22078     22079     22068     22078     22083     22069     22068     22070
     22069     22068     22078     22070     22068     22078     22070     22073     22074
     22070     22073     22075     22070     22073     22076     22071     22070     22072
     22071     22070     22073     22072     22070     22073     22073     22076     22077
     22073     22076     22078     22073     22076     22102     22074     22073     22075
     22074     22073     22076     22075     22073     22076     22076     22078     22079
     22076     22078     22083     22076     22102     22103     22076     22102     22104
     22076     22102     22108     22077     22076     22078     22077     22076     22102
     22078     22076     22102     22078     22079     22080     22078     22079     22081
     22078     22079     22082     22078     22083     22084     22078     22083     22085
     22078     22083     22086     22079     22078     22083     22080     22079     22081
     22080     22079     22082     22081     22079     22082     22083     22086     22087
     22083     22086     22088     22083     22086     22089     22084     22083     22085
     22084     22083     22086     22085     22083     22086     22086     22089     22090
     22086     22089     22091     22087     22086     22088     22087     22086     22089
     22088     22086     22089     22089     22091     22092     22089     22091     22096
     22090     22089     22091     22091     22092     22093     22091     22092     22094
     22091     22092     22095     22091     22096     22097     22091     22096     22098
     22091     22096     22099     22092     22091     22096     22093     22092     22094
     22093     22092     22095     22094     22092     22095     22096     22099     22100
     22096     22099     22101     22097     22096     22098     22097     22096     22099
     22098     22096     22099     22100     22099     22101     22102     22104     22105
     22102     22104     22106     22102     22104     22107     22102     22108     22109
     22102     22108     22110     22102     22108     22111     22103     22102     22104
     22103     22102     22108     22104     22102     22108     22105     22104     22106
     22105     22104     22107     22106     22104     22107     22108     22111     22112
     22108     22111     22113     22108     22111     22114     22109     22108     22110
     22109     22108     22111     22110     22108     22111     22111     22114     22115
     22111     22114     22116     22111     22114     22117     22112     22111     22113
     22112     22111     22114     22113     22111     22114     22114     22117     22118
     22114     22117     22119     22114     22117     22123     22115     22114     22116
     22115     22114     22117     22116     22114     22117     22117     22119     22120
     22117     22119     22121     22117     22119     22122     22117     22123     22124
     22117     22123     22125     22117     22123     22126     22118     22117     22119
     22118     22117     22123     22119     22117     22123     22120     22119     22121
     22120     22119     22122     22121     22119     22122     22124     22123     22125
     22124     22123     22126     22125     22123     22126     22127     22129     22130
     22127     22131     22132     22127     22131     22133     22127     22131     22134
     22127     22173     22170     22127     22173     22174     22127     22173     22175
     22128     22127     22129     22128     22127     22131     22128     22127     22173
     22129     22127     22131     22129     22127     22173     22131     22127     22173
     22131     22134     22135     22131     22134     22165     22132     22131     22133
     22132     22131     22134     22133     22131     22134     22134     22135     22136
     22134     22135     22137     22134     22165     22163     22134     22165     22166
     22134     22165     22170     22135     22134     22165     22135     22137     22138
     22135     22137     22139     22135     22137     22140     22136     22135     22137
     22137     22140     22141     22137     22140     22142     22137     22140     22163
     22138     22137     22139     22138     22137     22140     22139     22137     22140
     22140     22142     22143     22140     22142     22144     22140     22142     22152
     22140     22163     22160     22140     22163     22164     22140     22163     22165
     22141     22140     22142     22141     22140     22163     22142     22140     22163
     22142     22144     22145     22142     22144     22146     22142     22144     22147
     22142     22152     22150     22142     22152     22153     22142     22152     22157
     22143     22142     22144     22143     22142     22152     22144     22142     22152
     22144     22147     22148     22144     22147     22149     22144     22147     22150
     22145     22144     22146     22145     22144     22147     22146     22144     22147
     22147     22150     22151     22147     22150     22152     22147     22150     22176
     22148     22147     22149     22148     22147     22150     22149     22147     22150
     22150     22152     22153     22150     22152     22157     22150     22176     22177
     22150     22176     22178     22150     22176     22182     22151     22150     22152
     22151     22150     22176     22152     22150     22176     22152     22153     22154
     22152     22153     22155     22152     22153     22156     22152     22157     22158
     22152     22157     22159     22152     22157     22160     22153     22152     22157
     22154     22153     22155     22154     22153     22156     22155     22153     22156
     22157     22160     22161     22157     22160     22162     22157     22160     22163
     22158     22157     22159     22158     22157     22160     22159     22157     22160
     22160     22163     22164     22160     22163     22165     22161     22160     22162
     22161     22160     22163     22162     22160     22163     22163     22165     22166
     22163     22165     22170     22164     22163     22165     22165     22166     22167
     22165     22166     22168     22165     22166     22169     22165     22170     22171
     22165     22170     22172     22165     22170     22173     22166     22165     22170
     22167     22166     22168     22167     22166     22169     22168     22166     22169
     22170     22173     22174     22170     22173     22175     22171     22170     22172
     22171     22170     22173     22172     22170     22173     22174     22173     22175
     22176     22178     22179     22176     22178     22180     22176     22178     22181
     22176     22182     22183     22176     22182     22184     22176     22182     22185
     22177     22176     22178     22177     22176     22182     22178     22176     22182
     22179     22178     22180     22179     22178     22181     22180     22178     22181
     22182     22185     22186     22182     22185     22187     22182     22185     22188
     22183     22182     22184     22183     22182     22185     22184     22182     22185
     22185     22188     22189     22185     22188     22190     22185     22188     22191
     22186     22185     22187     22186     22185     22188     22187     22185     22188
     22188     22191     22192     22188     22191     22193     22188     22191     22197
     22189     22188     22190     22189     22188     22191     22190     22188     22191
     22191     22193     22194     22191     22193     22195     22191     22193     22196
     22191     22197     22198     22191     22197     22199     22191     22197     22200
     22192     22191     22193     22192     22191     22197     22193     22191     22197
     22194     22193     22195     22194     22193     22196     22195     22193     22196
     22198     22197     22199     22198     22197     22200     22199     22197     22200
     22201     22203     22204     22201     22205     22206     22201     22205     22207
     22201     22205     22208     22201     22247     22244     22201     22247     22248
     22201     22247     22249     22202     22201     22203     22202     22201     22205
     22202     22201     22247     22203     22201     22205     22203     22201     22247
     22205     22201     22247     22205     22208     22209     22205     22208     22239
     22206     22205     22207     22206     22205     22208     22207     22205     22208
     22208     22209     22210     22208     22209     22211     22208     22239     22237
     22208     22239     22240     22208     22239     22244     22209     22208     22239
     22209     22211     22212     22209     22211     22213     22209     22211     22214
     22210     22209     22211     22211     22214     22215     22211     22214     22216
     22211     22214     22237     22212     22211     22213     22212     22211     22214
     22213     22211     22214     22214     22216     22217     22214     22216     22218
     22214     22216     22226     22214     22237     22234     22214     22237     22238
     22214     22237     22239     22215     22214     22216     22215     22214     22237
     22216     22214     22237     22216     22218     22219     22216     22218     22220
     22216     22218     22221     22216     22226     22224     22216     22226     22227
     22216     22226     22231     22217     22216     22218     22217     22216     22226
     22218     22216     22226     22218     22221     22222     22218     22221     22223
     22218     22221     22224     22219     22218     22220     22219     22218     22221
     22220     22218     22221     22221     22224     22225     22221     22224     22226
     22221     22224     22250     22222     22221     22223     22222     22221     22224
     22223     22221     22224     22224     22226     22227     22224     22226     22231
     22224     22250     22251     22224     22250     22252     22224     22250     22256
     22225     22224     22226     22225     22224     22250     22226     22224     22250
     22226     22227     22228     22226     22227     22229     22226     22227     22230
     22226     22231     22232     22226     22231     22233     22226     22231     22234
     22227     22226     22231     22228     22227     22229     22228     22227     22230
     22229     22227     22230     22231     22234     22235     22231     22234     22236
     22231     22234     22237     22232     22231     22233     22232     22231     22234
     22233     22231     22234     22234     22237     22238     22234     22237     22239
     22235     22234     22236     22235     22234     22237     22236     22234     22237
     22237     22239     22240     22237     22239     22244     22238     22237     22239
     22239     22240     22241     22239     22240     22242     22239     22240     22243
     22239     22244     22245     22239     22244     22246     22239     22244     22247
     22240     22239     22244     22241     22240     22242     22241     22240     22243
     22242     22240     22243     22244     22247     22248     22244     22247     22249
     22245     22244     22246     22245     22244     22247     22246     22244     22247
     22248     22247     22249     22250     22252     22253     22250     22252     22254
     22250     22252     22255     22250     22256     22257     22250     22256     22258
     22250     22256     22259     22251     22250     22252     22251     22250     22256
     22252     22250     22256     22253     22252     22254     22253     22252     22255
     22254     22252     22255     22256     22259     22260     22256     22259     22261
     22256     22259     22262     22257     22256     22258     22257     22256     22259
     22258     22256     22259     22259     22262     22263     22259     22262     22264
     22259     22262     22265     22260     22259     22261     22260     22259     22262
     22261     22259     22262     22262     22265     22266     22262     22265     22267
     22262     22265     22271     22263     22262     22264     22263     22262     22265
     22264     22262     22265     22265     22267     22268     22265     22267     22269
     22265     22267     22270     22265     22271     22272     22265     22271     22273
     22265     22271     22274     22266     22265     22267     22266     22265     22271
     22267     22265     22271     22268     22267     22269     22268     22267     22270
     22269     22267     22270     22272     22271     22273     22272     22271     22274
     22273     22271     22274     22275     22277     22278     22275     22279     22280
     22275     22279     22281     22275     22279     22282     22275     22321     22318
     22275     22321     22322     22275     22321     22323     22276     22275     22277
     22276     22275     22279     22276     22275     22321     22277     22275     22279
     22277     22275     22321     22279     22275     22321     22279     22282     22283
     22279     22282     22313     22280     22279     22281     22280     22279     22282
     22281     22279     22282     22282     22283     22284     22282     22283     22285
     22282     22313     22311     22282     22313     22314     22282     22313     22318
     22283     22282     22313     22283     22285     22286     22283     22285     22287
     22283     22285     22288     22284     22283     22285     22285     22288     22289
     22285     22288     22290     22285     22288     22311     22286     22285     22287
     22286     22285     22288     22287     22285     22288     22288     22290     22291
     22288     22290     22292     22288     22290     22300     22288     22311     22308
     22288     22311     22312     22288     22311     22313     22289     22288     22290
     22289     22288     22311     22290     22288     22311     22290     22292     22293
     22290     22292     22294     22290     22292     22295     22290     22300     22298
     22290     22300     22301     22290     22300     22305     22291     22290     22292
     22291     22290     22300     22292     22290     22300     22292     22295     22296
     22292     22295     22297     22292     22295     22298     22293     22292     22294
     22293     22292     22295     22294     22292     22295     22295     22298     22299
     22295     22298     22300     22295     22298     22324     22296     22295     22297
     22296     22295     22298     22297     22295     22298     22298     22300     22301
     22298     22300     22305     22298     22324     22325     22298     22324     22326
     22298     22324     22330     22299     22298     22300     22299     22298     22324
     22300     22298     22324     22300     22301     22302     22300     22301     22303
     22300     22301     22304     22300     22305     22306     22300     22305     22307
     22300     22305     22308     22301     22300     22305     22302     22301     22303
     22302     22301     22304     22303     22301     22304     22305     22308     22309
     22305     22308     22310     22305     22308     22311     22306     22305     22307
     22306     22305     22308     22307     22305     22308     22308     22311     22312
     22308     22311     22313     22309     22308     22310     22309     22308     22311
     22310     22308     22311     22311     22313     22314     22311     22313     22318
     22312     22311     22313     22313     22314     22315     22313     22314     22316
     22313     22314     22317     22313     22318     22319     22313     22318     22320
     22313     22318     22321     22314     22313     22318     22315     22314     22316
     22315     22314     22317     22316     22314     22317     22318     22321     22322
     22318     22321     22323     22319     22318     22320     22319     22318     22321
     22320     22318     22321     22322     22321     22323     22324     22326     22327
     22324     22326     22328     22324     22326     22329     22324     22330     22331
     22324     22330     22332     22324     22330     22333     22325     22324     22326
     22325     22324     22330     22326     22324     22330     22327     22326     22328
     22327     22326     22329     22328     22326     22329     22330     22333     22334
     22330     22333     22335     22330     22333     22336     22331     22330     22332
     22331     22330     22333     22332     22330     22333     22333     22336     22337
     22333     22336     22338     22333     22336     22339     22334     22333     22335
     22334     22333     22336     22335     22333     22336     22336     22339     22340
     22336     22339     22341     22336     22339     22345     22337     22336     22338
     22337     22336     22339     22338     22336     22339     22339     22341     22342
     22339     22341     22343     22339     22341     22344     22339     22345     22346
     22339     22345     22347     22339     22345     22348     22340     22339     22341
     22340     22339     22345     22341     22339     22345     22342     22341     22343
     22342     22341     22344     22343     22341     22344     22346     22345     22347
     22346     22345     22348     22347     22345     22348     22349     22351     22352
     22349     22353     22354     22349     22353     22355     22349     22353     22356
     22349     22395     22392     22349     22395     22396     22349     22395     22397
     22350     22349     22351     22350     22349     22353     22350     22349     22395
     22351     22349     22353     22351     22349     22395     22353     22349     22395
     22353     22356     22357     22353     22356     22387     22354     22353     22355
     22354     22353     22356     22355     22353     22356     22356     22357     22358
     22356     22357     22359     22356     22387     22385     22356     22387     22388
     22356     22387     22392     22357     22356     22387     22357     22359     22360
     22357     22359     22361     22357     22359     22362     22358     22357     22359
     22359     22362     22363     22359     22362     22364     22359     22362     22385
     22360     22359     22361     22360     22359     22362     22361     22359     22362
     22362     22364     22365     22362     22364     22366     22362     22364     22374
     22362     22385     22382     22362     22385     22386     22362     22385     22387
     22363     22362     22364     22363     22362     22385     22364     22362     22385
     22364     22366     22367     22364     22366     22368     22364     22366     22369
     22364     22374     22372     22364     22374     22375     22364     22374     22379
     22365     22364     22366     22365     22364     22374     22366     22364     22374
     22366     22369     22370     22366     22369     22371     22366     22369     22372
     22367     22366     22368     22367     22366     22369     22368     22366     22369
     22369     22372     22373     22369     22372     22374     22369     22372     22398
     22370     22369     22371     22370     22369     22372     22371     22369     22372
     22372     22374     22375     22372     22374     22379     22372     22398     22399
     22372     22398     22400     22372     22398     22404     22373     22372     22374
     22373     22372     22398     22374     22372     22398     22374     22375     22376
     22374     22375     22377     22374     22375     22378     22374     22379     22380
     22374     22379     22381     22374     22379     22382     22375     22374     22379
     22376     22375     22377     22376     22375     22378     22377     22375     22378
     22379     22382     22383     22379     22382     22384     22379     22382     22385
     22380     22379     22381     22380     22379     22382     22381     22379     22382
     22382     22385     22386     22382     22385     22387     22383     22382     22384
     22383     22382     22385     22384     22382     22385     22385     22387     22388
     22385     22387     22392     22386     22385     22387     22387     22388     22389
     22387     22388     22390     22387     22388     22391     22387     22392     22393
     22387     22392     22394     22387     22392     22395     22388     22387     22392
     22389     22388     22390     22389     22388     22391     22390     22388     22391
     22392     22395     22396     22392     22395     22397     22393     22392     22394
     22393     22392     22395     22394     22392     22395     22396     22395     22397
     22398     22400     22401     22398     22400     22402     22398     22400     22403
     22398     22404     22405     22398     22404     22406     22398     22404     22407
     22399     22398     22400     22399     22398     22404     22400     22398     22404
     22401     22400     22402     22401     22400     22403     22402     22400     22403
     22404     22407     22408     22404     22407     22409     22404     22407     22410
     22405     22404     22406     22405     22404     22407     22406     22404     22407
     22407     22410     22411     22407     22410     22412     22407     22410     22413
     22408     22407     22409     22408     22407     22410     22409     22407     22410
     22410     22413     22414     22410     22413     22415     22410     22413     22419
     22411     22410     22412     22411     22410     22413     22412     22410     22413
     22413     22415     22416     22413     22415     22417     22413     22415     22418
     22413     22419     22420     22413     22419     22421     22413     22419     22422
     22414     22413     22415     22414     22413     22419     22415     22413     22419
     22416     22415     22417     22416     22415     22418     22417     22415     22418
     22420     22419     22421     22420     22419     22422     22421     22419     22422
     22423     22425     22426     22423     22427     22428     22423     22427     22429
     22423     22427     22430     22423     22469     22466     22423     22469     22470
     22423     22469     22471     22424     22423     22425     22424     22423     22427
     22424     22423     22469     22425     22423     22427     22425     22423     22469
     22427     22423     22469     22427     22430     22431     22427     22430     22461
     22428     22427     22429     22428     22427     22430     22429     22427     22430
     22430     22431     22432     22430     22431     22433     22430     22461     22459
     22430     22461     22462     22430     22461     22466     22431     22430     22461
     22431     22433     22434     22431     22433     22435     22431     22433     22436
     22432     22431     22433     22433     22436     22437     22433     22436     22438
     22433     22436     22459     22434     22433     22435     22434     22433     22436
     22435     22433     22436     22436     22438     22439     22436     22438     22440
     22436     22438     22448     22436     22459     22456     22436     22459     22460
     22436     22459     22461     22437     22436     22438     22437     22436     22459
     22438     22436     22459     22438     22440     22441     22438     22440     22442
     22438     22440     22443     22438     22448     22446     22438     22448     22449
     22438     22448     22453     22439     22438     22440     22439     22438     22448
     22440     22438     22448     22440     22443     22444     22440     22443     22445
     22440     22443     22446     22441     22440     22442     22441     22440     22443
     22442     22440     22443     22443     22446     22447     22443     22446     22448
     22443     22446     22472     22444     22443     22445     22444     22443     22446
     22445     22443     22446     22446     22448     22449     22446     22448     22453
     22446     22472     22473     22446     22472     22474     22446     22472     22478
     22447     22446     22448     22447     22446     22472     22448     22446     22472
     22448     22449     22450     22448     22449     22451     22448     22449     22452
     22448     22453     22454     22448     22453     22455     22448     22453     22456
     22449     22448     22453     22450     22449     22451     22450     22449     22452
     22451     22449     22452     22453     22456     22457     22453     22456     22458
     22453     22456     22459     22454     22453     22455     22454     22453     22456
     22455     22453     22456     22456     22459     22460     22456     22459     22461
     22457     22456     22458     22457     22456     22459     22458     22456     22459
     22459     22461     22462     22459     22461     22466     22460     22459     22461
     22461     22462     22463     22461     22462     22464     22461     22462     22465
     22461     22466     22467     22461     22466     22468     22461     22466     22469
     22462     22461     22466     22463     22462     22464     22463     22462     22465
     22464     22462     22465     22466     22469     22470     22466     22469     22471
     22467     22466     22468     22467     22466     22469     22468     22466     22469
     22470     22469     22471     22472     22474     22475     22472     22474     22476
     22472     22474     22477     22472     22478     22479     22472     22478     22480
     22472     22478     22481     22473     22472     22474     22473     22472     22478
     22474     22472     22478     22475     22474     22476     22475     22474     22477
     22476     22474     22477     22478     22481     22482     22478     22481     22483
     22478     22481     22484     22479     22478     22480     22479     22478     22481
     22480     22478     22481     22481     22484     22485     22481     22484     22486
     22481     22484     22487     22482     22481     22483     22482     22481     22484
     22483     22481     22484     22484     22487     22488     22484     22487     22489
     22484     22487     22493     22485     22484     22486     22485     22484     22487
     22486     22484     22487     22487     22489     22490     22487     22489     22491
     22487     22489     22492     22487     22493     22494     22487     22493     22495
     22487     22493     22496     22488     22487     22489     22488     22487     22493
     22489     22487     22493     22490     22489     22491     22490     22489     22492
     22491     22489     22492     22494     22493     22495     22494     22493     22496
     22495     22493     22496     22497     22499     22500     22497     22501     22502
     22497     22501     22503     22497     22501     22504     22497     22543     22540
     22497     22543     22544     22497     22543     22545     22498     22497     22499
     22498     22497     22501     22498     22497     22543     22499     22497     22501
     22499     22497     22543     22501     22497     22543     22501     22504     22505
     22501     22504     22535     22502     22501     22503     22502     22501     22504
     22503     22501     22504     22504     22505     22506     22504     22505     22507
     22504     22535     22533     22504     22535     22536     22504     22535     22540
     22505     22504     22535     22505     22507     22508     22505     22507     22509
     22505     22507     22510     22506     22505     22507     22507     22510     22511
     22507     22510     22512     22507     22510     22533     22508     22507     22509
     22508     22507     22510     22509     22507     22510     22510     22512     22513
     22510     22512     22514     22510     22512     22522     22510     22533     22530
     22510     22533     22534     22510     22533     22535     22511     22510     22512
     22511     22510     22533     22512     22510     22533     22512     22514     22515
     22512     22514     22516     22512     22514     22517     22512     22522     22520
     22512     22522     22523     22512     22522     22527     22513     22512     22514
     22513     22512     22522     22514     22512     22522     22514     22517     22518
     22514     22517     22519     22514     22517     22520     22515     22514     22516
     22515     22514     22517     22516     22514     22517     22517     22520     22521
     22517     22520     22522     22517     22520     22546     22518     22517     22519
     22518     22517     22520     22519     22517     22520     22520     22522     22523
     22520     22522     22527     22520     22546     22547     22520     22546     22548
     22520     22546     22552     22521     22520     22522     22521     22520     22546
     22522     22520     22546     22522     22523     22524     22522     22523     22525
     22522     22523     22526     22522     22527     22528     22522     22527     22529
     22522     22527     22530     22523     22522     22527     22524     22523     22525
     22524     22523     22526     22525     22523     22526     22527     22530     22531
     22527     22530     22532     22527     22530     22533     22528     22527     22529
     22528     22527     22530     22529     22527     22530     22530     22533     22534
     22530     22533     22535     22531     22530     22532     22531     22530     22533
     22532     22530     22533     22533     22535     22536     22533     22535     22540
     22534     22533     22535     22535     22536     22537     22535     22536     22538
     22535     22536     22539     22535     22540     22541     22535     22540     22542
     22535     22540     22543     22536     22535     22540     22537     22536     22538
     22537     22536     22539     22538     22536     22539     22540     22543     22544
     22540     22543     22545     22541     22540     22542     22541     22540     22543
     22542     22540     22543     22544     22543     22545     22546     22548     22549
     22546     22548     22550     22546     22548     22551     22546     22552     22553
     22546     22552     22554     22546     22552     22555     22547     22546     22548
     22547     22546     22552     22548     22546     22552     22549     22548     22550
     22549     22548     22551     22550     22548     22551     22552     22555     22556
     22552     22555     22557     22552     22555     22558     22553     22552     22554
     22553     22552     22555     22554     22552     22555     22555     22558     22559
     22555     22558     22560     22555     22558     22561     22556     22555     22557
     22556     22555     22558     22557     22555     22558     22558     22561     22562
     22558     22561     22563     22558     22561     22567     22559     22558     22560
     22559     22558     22561     22560     22558     22561     22561     22563     22564
     22561     22563     22565     22561     22563     22566     22561     22567     22568
     22561     22567     22569     22561     22567     22570     22562     22561     22563
     22562     22561     22567     22563     22561     22567     22564     22563     22565
     22564     22563     22566     22565     22563     22566     22568     22567     22569
     22568     22567     22570     22569     22567     22570     22571     22573     22574
     22571     22575     22576     22571     22575     22577     22571     22575     22578
     22571     22617     22614     22571     22617     22618     22571     22617     22619
     22572     22571     22573     22572     22571     22575     22572     22571     22617
     22573     22571     22575     22573     22571     22617     22575     22571     22617
     22575     22578     22579     22575     22578     22609     22576     22575     22577
     22576     22575     22578     22577     22575     22578     22578     22579     22580
     22578     22579     22581     22578     22609     22607     22578     22609     22610
     22578     22609     22614     22579     22578     22609     22579     22581     22582
     22579     22581     22583     22579     22581     22584     22580     22579     22581
     22581     22584     22585     22581     22584     22586     22581     22584     22607
     22582     22581     22583     22582     22581     22584     22583     22581     22584
     22584     22586     22587     22584     22586     22588     22584     22586     22596
     22584     22607     22604     22584     22607     22608     22584     22607     22609
     22585     22584     22586     22585     22584     22607     22586     22584     22607
     22586     22588     22589     22586     22588     22590     22586     22588     22591
     22586     22596     22594     22586     22596     22597     22586     22596     22601
     22587     22586     22588     22587     22586     22596     22588     22586     22596
     22588     22591     22592     22588     22591     22593     22588     22591     22594
     22589     22588     22590     22589     22588     22591     22590     22588     22591
     22591     22594     22595     22591     22594     22596     22591     22594     22620
     22592     22591     22593     22592     22591     22594     22593     22591     22594
     22594     22596     22597     22594     22596     22601     22594     22620     22621
     22594     22620     22622     22594     22620     22626     22595     22594     22596
     22595     22594     22620     22596     22594     22620     22596     22597     22598
     22596     22597     22599     22596     22597     22600     22596     22601     22602
     22596     22601     22603     22596     22601     22604     22597     22596     22601
     22598     22597     22599     22598     22597     22600     22599     22597     22600
     22601     22604     22605     22601     22604     22606     22601     22604     22607
     22602     22601     22603     22602     22601     22604     22603     22601     22604
     22604     22607     22608     22604     22607     22609     22605     22604     22606
     22605     22604     22607     22606     22604     22607     22607     22609     22610
     22607     22609     22614     22608     22607     22609     22609     22610     22611
     22609     22610     22612     22609     22610     22613     22609     22614     22615
     22609     22614     22616     22609     22614     22617     22610     22609     22614
     22611     22610     22612     22611     22610     22613     22612     22610     22613
     22614     22617     22618     22614     22617     22619     22615     22614     22616
     22615     22614     22617     22616     22614     22617     22618     22617     22619
     22620     22622     22623     22620     22622     22624     22620     22622     22625
     22620     22626     22627     22620     22626     22628     22620     22626     22629
     22621     22620     22622     22621     22620     22626     22622     22620     22626
     22623     22622     22624     22623     22622     22625     22624     22622     22625
     22626     22629     22630     22626     22629     22631     22626     22629     22632
     22627     22626     22628     22627     22626     22629     22628     22626     22629
     22629     22632     22633     22629     22632     22634     22629     22632     22635
     22630     22629     22631     22630     22629     22632     22631     22629     22632
     22632     22635     22636     22632     22635     22637     22632     22635     22641
     22633     22632     22634     22633     22632     22635     22634     22632     22635
     22635     22637     22638     22635     22637     22639     22635     22637     22640
     22635     22641     22642     22635     22641     22643     22635     22641     22644
     22636     22635     22637     22636     22635     22641     22637     22635     22641
     22638     22637     22639     22638     22637     22640     22639     22637     22640
     22642     22641     22643     22642     22641     22644     22643     22641     22644
     22645     22647     22648     22645     22649     22650     22645     22649     22651
     22645     22649     22652     22645     22691     22688     22645     22691     22692
     22645     22691     22693     22646     22645     22647     22646     22645     22649
     22646     22645     22691     22647     22645     22649     22647     22645     22691
     22649     22645     22691     22649     22652     22653     22649     22652     22683
     22650     22649     22651     22650     22649     22652     22651     22649     22652
     22652     22653     22654     22652     22653     22655     22652     22683     22681
     22652     22683     22684     22652     22683     22688     22653     22652     22683
     22653     22655     22656     22653     22655     22657     22653     22655     22658
     22654     22653     22655     22655     22658     22659     22655     22658     22660
     22655     22658     22681     22656     22655     22657     22656     22655     22658
     22657     22655     22658     22658     22660     22661     22658     22660     22662
     22658     22660     22670     22658     22681     22678     22658     22681     22682
     22658     22681     22683     22659     22658     22660     22659     22658     22681
     22660     22658     22681     22660     22662     22663     22660     22662     22664
     22660     22662     22665     22660     22670     22668     22660     22670     22671
     22660     22670     22675     22661     22660     22662     22661     22660     22670
     22662     22660     22670     22662     22665     22666     22662     22665     22667
     22662     22665     22668     22663     22662     22664     22663     22662     22665
     22664     22662     22665     22665     22668     22669     22665     22668     22670
     22665     22668     22694     22666     22665     22667     22666     22665     22668
     22667     22665     22668     22668     22670     22671     22668     22670     22675
     22668     22694     22695     22668     22694     22696     22668     22694     22700
     22669     22668     22670     22669     22668     22694     22670     22668     22694
     22670     22671     22672     22670     22671     22673     22670     22671     22674
     22670     22675     22676     22670     22675     22677     22670     22675     22678
     22671     22670     22675     22672     22671     22673     22672     22671     22674
     22673     22671     22674     22675     22678     22679     22675     22678     22680
     22675     22678     22681     22676     22675     22677     22676     22675     22678
     22677     22675     22678     22678     22681     22682     22678     22681     22683
     22679     22678     22680     22679     22678     22681     22680     22678     22681
     22681     22683     22684     22681     22683     22688     22682     22681     22683
     22683     22684     22685     22683     22684     22686     22683     22684     22687
     22683     22688     22689     22683     22688     22690     22683     22688     22691
     22684     22683     22688     22685     22684     22686     22685     22684     22687
     22686     22684     22687     22688     22691     22692     22688     22691     22693
     22689     22688     22690     22689     22688     22691     22690     22688     22691
     22692     22691     22693     22694     22696     22697     22694     22696     22698
     22694     22696     22699     22694     22700     22701     22694     22700     22702
     22694     22700     22703     22695     22694     22696     22695     22694     22700
     22696     22694     22700     22697     22696     22698     22697     22696     22699
     22698     22696     22699     22700     22703     22704     22700     22703     22705
     22700     22703     22706     22701     22700     22702     22701     22700     22703
     22702     22700     22703     22703     22706     22707     22703     22706     22708
     22703     22706     22709     22704     22703     22705     22704     22703     22706
     22705     22703     22706     22706     22709     22710     22706     22709     22711
     22706     22709     22715     22707     22706     22708     22707     22706     22709
     22708     22706     22709     22709     22711     22712     22709     22711     22713
     22709     22711     22714     22709     22715     22716     22709     22715     22717
     22709     22715     22718     22710     22709     22711     22710     22709     22715
     22711     22709     22715     22712     22711     22713     22712     22711     22714
     22713     22711     22714     22716     22715     22717     22716     22715     22718
     22717     22715     22718     22719     22721     22722     22719     22723     22724
     22719     22723     22725     22719     22723     22726     22719     22765     22762
     22719     22765     22766     22719     22765     22767     22720     22719     22721
     22720     22719     22723     22720     22719     22765     22721     22719     22723
     22721     22719     22765     22723     22719     22765     22723     22726     22727
     22723     22726     22757     22724     22723     22725     22724     22723     22726
     22725     22723     22726     22726     22727     22728     22726     22727     22729
     22726     22757     22755     22726     22757     22758     22726     22757     22762
     22727     22726     22757     22727     22729     22730     22727     22729     22731
     22727     22729     22732     22728     22727     22729     22729     22732     22733
     22729     22732     22734     22729     22732     22755     22730     22729     22731
     22730     22729     22732     22731     22729     22732     22732     22734     22735
     22732     22734     22736     22732     22734     22744     22732     22755     22752
     22732     22755     22756     22732     22755     22757     22733     22732     22734
     22733     22732     22755     22734     22732     22755     22734     22736     22737
     22734     22736     22738     22734     22736     22739     22734     22744     22742
     22734     22744     22745     22734     22744     22749     22735     22734     22736
     22735     22734     22744     22736     22734     22744     22736     22739     22740
     22736     22739     22741     22736     22739     22742     22737     22736     22738
     22737     22736     22739     22738     22736     22739     22739     22742     22743
     22739     22742     22744     22739     22742     22768     22740     22739     22741
     22740     22739     22742     22741     22739     22742     22742     22744     22745
     22742     22744     22749     22742     22768     22769     22742     22768     22770
     22742     22768     22774     22743     22742     22744     22743     22742     22768
     22744     22742     22768     22744     22745     22746     22744     22745     22747
     22744     22745     22748     22744     22749     22750     22744     22749     22751
     22744     22749     22752     22745     22744     22749     22746     22745     22747
     22746     22745     22748     22747     22745     22748     22749     22752     22753
     22749     22752     22754     22749     22752     22755     22750     22749     22751
     22750     22749     22752     22751     22749     22752     22752     22755     22756
     22752     22755     22757     22753     22752     22754     22753     22752     22755
     22754     22752     22755     22755     22757     22758     22755     22757     22762
     22756     22755     22757     22757     22758     22759     22757     22758     22760
     22757     22758     22761     22757     22762     22763     22757     22762     22764
     22757     22762     22765     22758     22757     22762     22759     22758     22760
     22759     22758     22761     22760     22758     22761     22762     22765     22766
     22762     22765     22767     22763     22762     22764     22763     22762     22765
     22764     22762     22765     22766     22765     22767     22768     22770     22771
     22768     22770     22772     22768     22770     22773     22768     22774     22775
     22768     22774     22776     22768     22774     22777     22769     22768     22770
     22769     22768     22774     22770     22768     22774     22771     22770     22772
     22771     22770     22773     22772     22770     22773     22774     22777     22778
     22774     22777     22779     22774     22777     22780     22775     22774     22776
     22775     22774     22777     22776     22774     22777     22777     22780     22781
     22777     22780     22782     22777     22780     22783     22778     22777     22779
     22778     22777     22780     22779     22777     22780     22780     22783     22784
     22780     22783     22785     22780     22783     22789     22781     22780     22782
     22781     22780     22783     22782     22780     22783     22783     22785     22786
     22783     22785     22787     22783     22785     22788     22783     22789     22790
     22783     22789     22791     22783     22789     22792     22784     22783     22785
     22784     22783     22789     22785     22783     22789     22786     22785     22787
     22786     22785     22788     22787     22785     22788     22790     22789     22791
     22790     22789     22792     22791     22789     22792     22793     22795     22796
     22793     22797     22798     22793     22797     22799     22793     22797     22800
     22793     22839     22836     22793     22839     22840     22793     22839     22841
     22794     22793     22795     22794     22793     22797     22794     22793     22839
     22795     22793     22797     22795     22793     22839     22797     22793     22839
     22797     22800     22801     22797     22800     22831     22798     22797     22799
     22798     22797     22800     22799     22797     22800     22800     22801     22802
     22800     22801     22803     22800     22831     22829     22800     22831     22832
     22800     22831     22836     22801     22800     22831     22801     22803     22804
     22801     22803     22805     22801     22803     22806     22802     22801     22803
     22803     22806     22807     22803     22806     22808     22803     22806     22829
     22804     22803     22805     22804     22803     22806     22805     22803     22806
     22806     22808     22809     22806     22808     22810     22806     22808     22818
     22806     22829     22826     22806     22829     22830     22806     22829     22831
     22807     22806     22808     22807     22806     22829     22808     22806     22829
     22808     22810     22811     22808     22810     22812     22808     22810     22813
     22808     22818     22816     22808     22818     22819     22808     22818     22823
     22809     22808     22810     22809     22808     22818     22810     22808     22818
     22810     22813     22814     22810     22813     22815     22810     22813     22816
     22811     22810     22812     22811     22810     22813     22812     22810     22813
     22813     22816     22817     22813     22816     22818     22813     22816     22842
     22814     22813     22815     22814     22813     22816     22815     22813     22816
     22816     22818     22819     22816     22818     22823     22816     22842     22843
     22816     22842     22844     22816     22842     22848     22817     22816     22818
     22817     22816     22842     22818     22816     22842     22818     22819     22820
     22818     22819     22821     22818     22819     22822     22818     22823     22824
     22818     22823     22825     22818     22823     22826     22819     22818     22823
     22820     22819     22821     22820     22819     22822     22821     22819     22822
     22823     22826     22827     22823     22826     22828     22823     22826     22829
     22824     22823     22825     22824     22823     22826     22825     22823     22826
     22826     22829     22830     22826     22829     22831     22827     22826     22828
     22827     22826     22829     22828     22826     22829     22829     22831     22832
     22829     22831     22836     22830     22829     22831     22831     22832     22833
     22831     22832     22834     22831     22832     22835     22831     22836     22837
     22831     22836     22838     22831     22836     22839     22832     22831     22836
     22833     22832     22834     22833     22832     22835     22834     22832     22835
     22836     22839     22840     22836     22839     22841     22837     22836     22838
     22837     22836     22839     22838     22836     22839     22840     22839     22841
     22842     22844     22845     22842     22844     22846     22842     22844     22847
     22842     22848     22849     22842     22848     22850     22842     22848     22851
     22843     22842     22844     22843     22842     22848     22844     22842     22848
     22845     22844     22846     22845     22844     22847     22846     22844     22847
     22848     22851     22852     22848     22851     22853     22848     22851     22854
     22849     22848     22850     22849     22848     22851     22850     22848     22851
     22851     22854     22855     22851     22854     22856     22851     22854     22857
     22852     22851     22853     22852     22851     22854     22853     22851     22854
     22854     22857     22858     22854     22857     22859     22854     22857     22863
     22855     22854     22856     22855     22854     22857     22856     22854     22857
     22857     22859     22860     22857     22859     22861     22857     22859     22862
     22857     22863     22864     22857     22863     22865     22857     22863     22866
     22858     22857     22859     22858     22857     22863     22859     22857     22863
     22860     22859     22861     22860     22859     22862     22861     22859     22862
     22864     22863     22865     22864     22863     22866     22865     22863     22866
     22867     22869     22870     22867     22871     22872     22867     22871     22873
     22867     22871     22874     22867     22913     22910     22867     22913     22914
     22867     22913     22915     22868     22867     22869     22868     22867     22871
     22868     22867     22913     22869     22867     22871     22869     22867     22913
     22871     22867     22913     22871     22874     22875     22871     22874     22905
     22872     22871     22873     22872     22871     22874     22873     22871     22874
     22874     22875     22876     22874     22875     22877     22874     22905     22903
     22874     22905     22906     22874     22905     22910     22875     22874     22905
     22875     22877     22878     22875     22877     22879     22875     22877     22880
     22876     22875     22877     22877     22880     22881     22877     22880     22882
     22877     22880     22903     22878     22877     22879     22878     22877     22880
     22879     22877     22880     22880     22882     22883     22880     22882     22884
     22880     22882     22892     22880     22903     22900     22880     22903     22904
     22880     22903     22905     22881     22880     22882     22881     22880     22903
     22882     22880     22903     22882     22884     22885     22882     22884     22886
     22882     22884     22887     22882     22892     22890     22882     22892     22893
     22882     22892     22897     22883     22882     22884     22883     22882     22892
     22884     22882     22892     22884     22887     22888     22884     22887     22889
     22884     22887     22890     22885     22884     22886     22885     22884     22887
     22886     22884     22887     22887     22890     22891     22887     22890     22892
     22887     22890     22916     22888     22887     22889     22888     22887     22890
     22889     22887     22890     22890     22892     22893     22890     22892     22897
     22890     22916     22917     22890     22916     22918     22890     22916     22922
     22891     22890     22892     22891     22890     22916     22892     22890     22916
     22892     22893     22894     22892     22893     22895     22892     22893     22896
     22892     22897     22898     22892     22897     22899     22892     22897     22900
     22893     22892     22897     22894     22893     22895     22894     22893     22896
     22895     22893     22896     22897     22900     22901     22897     22900     22902
     22897     22900     22903     22898     22897     22899     22898     22897     22900
     22899     22897     22900     22900     22903     22904     22900     22903     22905
     22901     22900     22902     22901     22900     22903     22902     22900     22903
     22903     22905     22906     22903     22905     22910     22904     22903     22905
     22905     22906     22907     22905     22906     22908     22905     22906     22909
     22905     22910     22911     22905     22910     22912     22905     22910     22913
     22906     22905     22910     22907     22906     22908     22907     22906     22909
     22908     22906     22909     22910     22913     22914     22910     22913     22915
     22911     22910     22912     22911     22910     22913     22912     22910     22913
     22914     22913     22915     22916     22918     22919     22916     22918     22920
     22916     22918     22921     22916     22922     22923     22916     22922     22924
     22916     22922     22925     22917     22916     22918     22917     22916     22922
     22918     22916     22922     22919     22918     22920     22919     22918     22921
     22920     22918     22921     22922     22925     22926     22922     22925     22927
     22922     22925     22928     22923     22922     22924     22923     22922     22925
     22924     22922     22925     22925     22928     22929     22925     22928     22930
     22925     22928     22931     22926     22925     22927     22926     22925     22928
     22927     22925     22928     22928     22931     22932     22928     22931     22933
     22928     22931     22937     22929     22928     22930     22929     22928     22931
     22930     22928     22931     22931     22933     22934     22931     22933     22935
     22931     22933     22936     22931     22937     22938     22931     22937     22939
     22931     22937     22940     22932     22931     22933     22932     22931     22937
     22933     22931     22937     22934     22933     22935     22934     22933     22936
     22935     22933     22936     22938     22937     22939     22938     22937     22940
     22939     22937     22940     22941     22943     22944     22941     22945     22946
     22941     22945     22947     22941     22945     22948     22941     22987     22984
     22941     22987     22988     22941     22987     22989     22942     22941     22943
     22942     22941     22945     22942     22941     22987     22943     22941     22945
     22943     22941     22987     22945     22941     22987     22945     22948     22949
     22945     22948     22979     22946     22945     22947     22946     22945     22948
     22947     22945     22948     22948     22949     22950     22948     22949     22951
     22948     22979     22977     22948     22979     22980     22948     22979     22984
     22949     22948     22979     22949     22951     22952     22949     22951     22953
     22949     22951     22954     22950     22949     22951     22951     22954     22955
     22951     22954     22956     22951     22954     22977     22952     22951     22953
     22952     22951     22954     22953     22951     22954     22954     22956     22957
     22954     22956     22958     22954     22956     22966     22954     22977     22974
     22954     22977     22978     22954     22977     22979     22955     22954     22956
     22955     22954     22977     22956     22954     22977     22956     22958     22959
     22956     22958     22960     22956     22958     22961     22956     22966     22964
     22956     22966     22967     22956     22966     22971     22957     22956     22958
     22957     22956     22966     22958     22956     22966     22958     22961     22962
     22958     22961     22963     22958     22961     22964     22959     22958     22960
     22959     22958     22961     22960     22958     22961     22961     22964     22965
     22961     22964     22966     22961     22964     22990     22962     22961     22963
     22962     22961     22964     22963     22961     22964     22964     22966     22967
     22964     22966     22971     22964     22990     22991     22964     22990     22992
     22964     22990     22996     22965     22964     22966     22965     22964     22990
     22966     22964     22990     22966     22967     22968     22966     22967     22969
     22966     22967     22970     22966     22971     22972     22966     22971     22973
     22966     22971     22974     22967     22966     22971     22968     22967     22969
     22968     22967     22970     22969     22967     22970     22971     22974     22975
     22971     22974     22976     22971     22974     22977     22972     22971     22973
     22972     22971     22974     22973     22971     22974     22974     22977     22978
     22974     22977     22979     22975     22974     22976     22975     22974     22977
     22976     22974     22977     22977     22979     22980     22977     22979     22984
     22978     22977     22979     22979     22980     22981     22979     22980     22982
     22979     22980     22983     22979     22984     22985     22979     22984     22986
     22979     22984     22987     22980     22979     22984     22981     22980     22982
     22981     22980     22983     22982     22980     22983     22984     22987     22988
     22984     22987     22989     22985     22984     22986     22985     22984     22987
     22986     22984     22987     22988     22987     22989     22990     22992     22993
     22990     22992     22994     22990     22992     22995     22990     22996     22997
     22990     22996     22998     22990     22996     22999     22991     22990     22992
     22991     22990     22996     22992     22990     22996     22993     22992     22994
     22993     22992     22995     22994     22992     22995     22996     22999     23000
     22996     22999     23001     22996     22999     23002     22997     22996     22998
     22997     22996     22999     22998     22996     22999     22999     23002     23003
     22999     23002     23004     22999     23002     23005     23000     22999     23001
     23000     22999     23002     23001     22999     23002     23002     23005     23006
     23002     23005     23007     23002     23005     23011     23003     23002     23004
     23003     23002     23005     23004     23002     23005     23005     23007     23008
     23005     23007     23009     23005     23007     23010     23005     23011     23012
     23005     23011     23013     23005     23011     23014     23006     23005     23007
     23006     23005     23011     23007     23005     23011     23008     23007     23009
     23008     23007     23010     23009     23007     23010     23012     23011     23013
     23012     23011     23014     23013     23011     23014     23015     23017     23018
     23015     23019     23020     23015     23019     23021     23015     23019     23022
     23015     23061     23058     23015     23061     23062     23015     23061     23063
     23016     23015     23017     23016     23015     23019     23016     23015     23061
     23017     23015     23019     23017     23015     23061     23019     23015     23061
     23019     23022     23023     23019     23022     23053     23020     23019     23021
     23020     23019     23022     23021     23019     23022     23022     23023     23024
     23022     23023     23025     23022     23053     23051     23022     23053     23054
     23022     23053     23058     23023     23022     23053     23023     23025     23026
     23023     23025     23027     23023     23025     23028     23024     23023     23025
     23025     23028     23029     23025     23028     23030     23025     23028     23051
     23026     23025     23027     23026     23025     23028     23027     23025     23028
     23028     23030     23031     23028     23030     23032     23028     23030     23040
     23028     23051     23048     23028     23051     23052     23028     23051     23053
     23029     23028     23030     23029     23028     23051     23030     23028     23051
     23030     23032     23033     23030     23032     23034     23030     23032     23035
     23030     23040     23038     23030     23040     23041     23030     23040     23045
     23031     23030     23032     23031     23030     23040     23032     23030     23040
     23032     23035     23036     23032     23035     23037     23032     23035     23038
     23033     23032     23034     23033     23032     23035     23034     23032     23035
     23035     23038     23039     23035     23038     23040     23035     23038     23064
     23036     23035     23037     23036     23035     23038     23037     23035     23038
     23038     23040     23041     23038     23040     23045     23038     23064     23065
     23038     23064     23066     23038     23064     23070     23039     23038     23040
     23039     23038     23064     23040     23038     23064     23040     23041     23042
     23040     23041     23043     23040     23041     23044     23040     23045     23046
     23040     23045     23047     23040     23045     23048     23041     23040     23045
     23042     23041     23043     23042     23041     23044     23043     23041     23044
     23045     23048     23049     23045     23048     23050     23045     23048     23051
     23046     23045     23047     23046     23045     23048     23047     23045     23048
     23048     23051     23052     23048     23051     23053     23049     23048     23050
     23049     23048     23051     23050     23048     23051     23051     23053     23054
     23051     23053     23058     23052     23051     23053     23053     23054     23055
     23053     23054     23056     23053     23054     23057     23053     23058     23059
     23053     23058     23060     23053     23058     23061     23054     23053     23058
     23055     23054     23056     23055     23054     23057     23056     23054     23057
     23058     23061     23062     23058     23061     23063     23059     23058     23060
     23059     23058     23061     23060     23058     23061     23062     23061     23063
     23064     23066     23067     23064     23066     23068     23064     23066     23069
     23064     23070     23071     23064     23070     23072     23064     23070     23073
     23065     23064     23066     23065     23064     23070     23066     23064     23070
     23067     23066     23068     23067     23066     23069     23068     23066     23069
     23070     23073     23074     23070     23073     23075     23070     23073     23076
     23071     23070     23072     23071     23070     23073     23072     23070     23073
     23073     23076     23077     23073     23076     23078     23073     23076     23079
     23074     23073     23075     23074     23073     23076     23075     23073     23076
     23076     23079     23080     23076     23079     23081     23076     23079     23085
     23077     23076     23078     23077     23076     23079     23078     23076     23079
     23079     23081     23082     23079     23081     23083     23079     23081     23084
     23079     23085     23086     23079     23085     23087     23079     23085     23088
     23080     23079     23081     23080     23079     23085     23081     23079     23085
     23082     23081     23083     23082     23081     23084     23083     23081     23084
     23086     23085     23087     23086     23085     23088     23087     23085     23088
     23089     23091     23092     23089     23093     23094     23089     23093     23095
     23089     23093     23096     23089     23135     23132     23089     23135     23136
     23089     23135     23137     23090     23089     23091     23090     23089     23093
     23090     23089     23135     23091     23089     23093     23091     23089     23135
     23093     23089     23135     23093     23096     23097     23093     23096     23127
     23094     23093     23095     23094     23093     23096     23095     23093     23096
     23096     23097     23098     23096     23097     23099     23096     23127     23125
     23096     23127     23128     23096     23127     23132     23097     23096     23127
     23097     23099     23100     23097     23099     23101     23097     23099     23102
     23098     23097     23099     23099     23102     23103     23099     23102     23104
     23099     23102     23125     23100     23099     23101     23100     23099     23102
     23101     23099     23102     23102     23104     23105     23102     23104     23106
     23102     23104     23114     23102     23125     23122     23102     23125     23126
     23102     23125     23127     23103     23102     23104     23103     23102     23125
     23104     23102     23125     23104     23106     23107     23104     23106     23108
     23104     23106     23109     23104     23114     23112     23104     23114     23115
     23104     23114     23119     23105     23104     23106     23105     23104     23114
     23106     23104     23114     23106     23109     23110     23106     23109     23111
     23106     23109     23112     23107     23106     23108     23107     23106     23109
     23108     23106     23109     23109     23112     23113     23109     23112     23114
     23109     23112     23138     23110     23109     23111     23110     23109     23112
     23111     23109     23112     23112     23114     23115     23112     23114     23119
     23112     23138     23139     23112     23138     23140     23112     23138     23144
     23113     23112     23114     23113     23112     23138     23114     23112     23138
     23114     23115     23116     23114     23115     23117     23114     23115     23118
     23114     23119     23120     23114     23119     23121     23114     23119     23122
     23115     23114     23119     23116     23115     23117     23116     23115     23118
     23117     23115     23118     23119     23122     23123     23119     23122     23124
     23119     23122     23125     23120     23119     23121     23120     23119     23122
     23121     23119     23122     23122     23125     23126     23122     23125     23127
     23123     23122     23124     23123     23122     23125     23124     23122     23125
     23125     23127     23128     23125     23127     23132     23126     23125     23127
     23127     23128     23129     23127     23128     23130     23127     23128     23131
     23127     23132     23133     23127     23132     23134     23127     23132     23135
     23128     23127     23132     23129     23128     23130     23129     23128     23131
     23130     23128     23131     23132     23135     23136     23132     23135     23137
     23133     23132     23134     23133     23132     23135     23134     23132     23135
     23136     23135     23137     23138     23140     23141     23138     23140     23142
     23138     23140     23143     23138     23144     23145     23138     23144     23146
     23138     23144     23147     23139     23138     23140     23139     23138     23144
     23140     23138     23144     23141     23140     23142     23141     23140     23143
     23142     23140     23143     23144     23147     23148     23144     23147     23149
     23144     23147     23150     23145     23144     23146     23145     23144     23147
     23146     23144     23147     23147     23150     23151     23147     23150     23152
     23147     23150     23153     23148     23147     23149     23148     23147     23150
     23149     23147     23150     23150     23153     23154     23150     23153     23155
     23150     23153     23159     23151     23150     23152     23151     23150     23153
     23152     23150     23153     23153     23155     23156     23153     23155     23157
     23153     23155     23158     23153     23159     23160     23153     23159     23161
     23153     23159     23162     23154     23153     23155     23154     23153     23159
     23155     23153     23159     23156     23155     23157     23156     23155     23158
     23157     23155     23158     23160     23159     23161     23160     23159     23162
     23161     23159     23162     23163     23164     23165     23163     23164     23166
     23163     23164     23179     23163     23167     23168     23163     23167     23169
     23163     23167     23170     23163     23171     23172     23163     23171     23173
     23163     23171     23174     23163     23175     23176     23163     23175     23177
     23163     23175     23178     23164     23163     23167     23164     23163     23171
     23164     23163     23175     23164     23179     23180     23164     23179     23181
     23164     23179     23185     23165     23164     23166     23165     23164     23179
     23166     23164     23179     23167     23163     23171     23167     23163     23175
     23168     23167     23169     23168     23167     23170     23169     23167     23170
     23171     23163     23175     23172     23171     23173     23172     23171     23174
     23173     23171     23174     23176     23175     23177     23176     23175     23178
     23177     23175     23178     23179     23185     23182     23180     23179     23181
     23180     23179     23185     23181     23179     23185     23182     23186     23187
     23183     23182     23184     23183     23182     23185     23183     23182     23186
     23184     23182     23185     23184     23182     23186     23185     23182     23186
     23186     23187     23188     23186     23187     23189     23186     23187     23190
     23187     23190     23191     23187     23190     23192     23187     23190     23198
     23188     23187     23189     23188     23187     23190     23189     23187     23190
     23190     23192     23193     23190     23198     23199     23190     23198     23200
     23190     23198     23201     23191     23190     23192     23191     23190     23198
     23192     23190     23198     23192     23193     23194     23192     23193     23195
     23193     23195     23196     23193     23195     23197     23193     23195     23207
     23194     23193     23195     23195     23207     23208     23195     23207     23209
     23195     23207     23210     23196     23195     23197     23196     23195     23207
     23197     23195     23207     23198     23201     23202     23199     23198     23200
     23199     23198     23201     23200     23198     23201     23201     23202     23203
     23201     23202     23204     23202     23204     23205     23202     23204     23206
     23202     23204     23254     23203     23202     23204     23204     23254     23255
     23204     23254     23256     23204     23254     23257     23205     23204     23206
     23205     23204     23254     23206     23204     23254     23207     23210     23211
     23207     23210     23212     23207     23210     23213     23208     23207     23209
     23208     23207     23210     23209     23207     23210     23210     23213     23214
     23210     23213     23215     23210     23213     23216     23211     23210     23212
     23211     23210     23213     23212     23210     23213     23213     23216     23217
     23213     23216     23218     23213     23216     23219     23214     23213     23215
     23214     23213     23216     23215     23213     23216     23216     23219     23220
     23216     23219     23221     23216     23219     23222     23217     23216     23218
     23217     23216     23219     23218     23216     23219     23219     23222     23223
     23219     23222     23224     23219     23222     23225     23220     23219     23221
     23220     23219     23222     23221     23219     23222     23222     23225     23226
     23222     23225     23227     23223     23222     23224     23223     23222     23225
     23224     23222     23225     23225     23227     23228     23225     23227     23229
     23226     23225     23227     23227     23229     23230     23227     23229     23231
     23227     23229     23232     23228     23227     23229     23229     23232     23233
     23229     23232     23234     23229     23232     23235     23230     23229     23231
     23230     23229     23232     23231     23229     23232     23232     23235     23236
     23232     23235     23237     23232     23235     23238     23233     23232     23234
     23233     23232     23235     23234     23232     23235     23235     23238     23239
     23235     23238     23240     23235     23238     23241     23236     23235     23237
     23236     23235     23238     23237     23235     23238     23238     23241     23242
     23238     23241     23243     23238     23241     23244     23239     23238     23240
     23239     23238     23241     23240     23238     23241     23241     23244     23245
     23241     23244     23246     23241     23244     23247     23242     23241     23243
     23242     23241     23244     23243     23241     23244     23244     23247     23248
     23244     23247     23249     23244     23247     23250     23245     23244     23246
     23245     23244     23247     23246     23244     23247     23247     23250     23251
     23247     23250     23252     23247     23250     23253     23248     23247     23249
     23248     23247     23250     23249     23247     23250     23251     23250     23252
     23251     23250     23253     23252     23250     23253     23254     23257     23258
     23254     23257     23259     23254     23257     23260     23255     23254     23256
     23255     23254     23257     23256     23254     23257     23257     23260     23261
     23257     23260     23262     23257     23260     23263     23258     23257     23259
     23258     23257     23260     23259     23257     23260     23260     23263     23264
     23260     23263     23265     23260     23263     23266     23261     23260     23262
     23261     23260     23263     23262     23260     23263     23263     23266     23267
     23263     23266     23268     23263     23266     23269     23264     23263     23265
     23264     23263     23266     23265     23263     23266     23266     23269     23270
     23266     23269     23271     23266     23269     23272     23267     23266     23268
     23267     23266     23269     23268     23266     23269     23269     23272     23273
     23269     23272     23274     23269     23272     23275     23270     23269     23271
     23270     23269     23272     23271     23269     23272     23272     23275     23276
     23272     23275     23277     23272     23275     23278     23273     23272     23274
     23273     23272     23275     23274     23272     23275     23275     23278     23279
     23275     23278     23280     23275     23278     23281     23276     23275     23277
     23276     23275     23278     23277     23275     23278     23278     23281     23282
     23278     23281     23283     23278     23281     23284     23279     23278     23280
     23279     23278     23281     23280     23278     23281     23281     23284     23285
     23281     23284     23286     23281     23284     23287     23282     23281     23283
     23282     23281     23284     23283     23281     23284     23284     23287     23288
     23284     23287     23289     23284     23287     23290     23285     23284     23286
     23285     23284     23287     23286     23284     23287     23287     23290     23291
     23287     23290     23292     23287     23290     23293     23288     23287     23289
     23288     23287     23290     23289     23287     23290     23290     23293     23294
     23290     23293     23295     23290     23293     23296     23291     23290     23292
     23291     23290     23293     23292     23290     23293     23294     23293     23295
     23294     23293     23296     23295     23293     23296     23297     23298     23299
     23297     23298     23300     23297     23298     23313     23297     23301     23302
     23297     23301     23303     23297     23301     23304     23297     23305     23306
     23297     23305     23307     23297     23305     23308     23297     23309     23310
     23297     23309     23311     23297     23309     23312     23298     23297     23301
     23298     23297     23305     23298     23297     23309     23298     23313     23314
     23298     23313     23315     23298     23313     23319     23299     23298     23300
     23299     23298     23313     23300     23298     23313     23301     23297     23305
     23301     23297     23309     23302     23301     23303     23302     23301     23304
     23303     23301     23304     23305     23297     23309     23306     23305     23307
     23306     23305     23308     23307     23305     23308     23310     23309     23311
     23310     23309     23312     23311     23309     23312     23313     23319     23316
     23314     23313     23315     23314     23313     23319     23315     23313     23319
     23316     23320     23321     23317     23316     23318     23317     23316     23319
     23317     23316     23320     23318     23316     23319     23318     23316     23320
     23319     23316     23320     23320     23321     23322     23320     23321     23323
     23320     23321     23324     23321     23324     23325     23321     23324     23326
     23321     23324     23332     23322     23321     23323     23322     23321     23324
     23323     23321     23324     23324     23326     23327     23324     23332     23333
     23324     23332     23334     23324     23332     23335     23325     23324     23326
     23325     23324     23332     23326     23324     23332     23326     23327     23328
     23326     23327     23329     23327     23329     23330     23327     23329     23331
     23327     23329     23341     23328     23327     23329     23329     23341     23342
     23329     23341     23343     23329     23341     23344     23330     23329     23331
     23330     23329     23341     23331     23329     23341     23332     23335     23336
     23333     23332     23334     23333     23332     23335     23334     23332     23335
     23335     23336     23337     23335     23336     23338     23336     23338     23339
     23336     23338     23340     23336     23338     23388     23337     23336     23338
     23338     23388     23389     23338     23388     23390     23338     23388     23391
     23339     23338     23340     23339     23338     23388     23340     23338     23388
     23341     23344     23345     23341     23344     23346     23341     23344     23347
     23342     23341     23343     23342     23341     23344     23343     23341     23344
     23344     23347     23348     23344     23347     23349     23344     23347     23350
     23345     23344     23346     23345     23344     23347     23346     23344     23347
     23347     23350     23351     23347     23350     23352     23347     23350     23353
     23348     23347     23349     23348     23347     23350     23349     23347     23350
     23350     23353     23354     23350     23353     23355     23350     23353     23356
     23351     23350     23352     23351     23350     23353     23352     23350     23353
     23353     23356     23357     23353     23356     23358     23353     23356     23359
     23354     23353     23355     23354     23353     23356     23355     23353     23356
     23356     23359     23360     23356     23359     23361     23357     23356     23358
     23357     23356     23359     23358     23356     23359     23359     23361     23362
     23359     23361     23363     23360     23359     23361     23361     23363     23364
     23361     23363     23365     23361     23363     23366     23362     23361     23363
     23363     23366     23367     23363     23366     23368     23363     23366     23369
     23364     23363     23365     23364     23363     23366     23365     23363     23366
     23366     23369     23370     23366     23369     23371     23366     23369     23372
     23367     23366     23368     23367     23366     23369     23368     23366     23369
     23369     23372     23373     23369     23372     23374     23369     23372     23375
     23370     23369     23371     23370     23369     23372     23371     23369     23372
     23372     23375     23376     23372     23375     23377     23372     23375     23378
     23373     23372     23374     23373     23372     23375     23374     23372     23375
     23375     23378     23379     23375     23378     23380     23375     23378     23381
     23376     23375     23377     23376     23375     23378     23377     23375     23378
     23378     23381     23382     23378     23381     23383     23378     23381     23384
     23379     23378     23380     23379     23378     23381     23380     23378     23381
     23381     23384     23385     23381     23384     23386     23381     23384     23387
     23382     23381     23383     23382     23381     23384     23383     23381     23384
     23385     23384     23386     23385     23384     23387     23386     23384     23387
     23388     23391     23392     23388     23391     23393     23388     23391     23394
     23389     23388     23390     23389     23388     23391     23390     23388     23391
     23391     23394     23395     23391     23394     23396     23391     23394     23397
     23392     23391     23393     23392     23391     23394     23393     23391     23394
     23394     23397     23398     23394     23397     23399     23394     23397     23400
     23395     23394     23396     23395     23394     23397     23396     23394     23397
     23397     23400     23401     23397     23400     23402     23397     23400     23403
     23398     23397     23399     23398     23397     23400     23399     23397     23400
     23400     23403     23404     23400     23403     23405     23400     23403     23406
     23401     23400     23402     23401     23400     23403     23402     23400     23403
     23403     23406     23407     23403     23406     23408     23403     23406     23409
     23404     23403     23405     23404     23403     23406     23405     23403     23406
     23406     23409     23410     23406     23409     23411     23406     23409     23412
     23407     23406     23408     23407     23406     23409     23408     23406     23409
     23409     23412     23413     23409     23412     23414     23409     23412     23415
     23410     23409     23411     23410     23409     23412     23411     23409     23412
     23412     23415     23416     23412     23415     23417     23412     23415     23418
     23413     23412     23414     23413     23412     23415     23414     23412     23415
     23415     23418     23419     23415     23418     23420     23415     23418     23421
     23416     23415     23417     23416     23415     23418     23417     23415     23418
     23418     23421     23422     23418     23421     23423     23418     23421     23424
     23419     23418     23420     23419     23418     23421     23420     23418     23421
     23421     23424     23425     23421     23424     23426     23421     23424     23427
     23422     23421     23423     23422     23421     23424     23423     23421     23424
     23424     23427     23428     23424     23427     23429     23424     23427     23430
     23425     23424     23426     23425     23424     23427     23426     23424     23427
     23428     23427     23429     23428     23427     23430     23429     23427     23430
     23431     23432     23433     23431     23432     23434     23431     23432     23447
     23431     23435     23436     23431     23435     23437     23431     23435     23438
     23431     23439     23440     23431     23439     23441     23431     23439     23442
     23431     23443     23444     23431     23443     23445     23431     23443     23446
     23432     23431     23435     23432     23431     23439     23432     23431     23443
     23432     23447     23448     23432     23447     23449     23432     23447     23453
     23433     23432     23434     23433     23432     23447     23434     23432     23447
     23435     23431     23439     23435     23431     23443     23436     23435     23437
     23436     23435     23438     23437     23435     23438     23439     23431     23443
     23440     23439     23441     23440     23439     23442     23441     23439     23442
     23444     23443     23445     23444     23443     23446     23445     23443     23446
     23447     23453     23450     23448     23447     23449     23448     23447     23453
     23449     23447     23453     23450     23454     23455     23451     23450     23452
     23451     23450     23453     23451     23450     23454     23452     23450     23453
     23452     23450     23454     23453     23450     23454     23454     23455     23456
     23454     23455     23457     23454     23455     23458     23455     23458     23459
     23455     23458     23460     23455     23458     23466     23456     23455     23457
     23456     23455     23458     23457     23455     23458     23458     23460     23461
     23458     23466     23467     23458     23466     23468     23458     23466     23469
     23459     23458     23460     23459     23458     23466     23460     23458     23466
     23460     23461     23462     23460     23461     23463     23461     23463     23464
     23461     23463     23465     23461     23463     23475     23462     23461     23463
     23463     23475     23476     23463     23475     23477     23463     23475     23478
     23464     23463     23465     23464     23463     23475     23465     23463     23475
     23466     23469     23470     23467     23466     23468     23467     23466     23469
     23468     23466     23469     23469     23470     23471     23469     23470     23472
     23470     23472     23473     23470     23472     23474     23470     23472     23522
     23471     23470     23472     23472     23522     23523     23472     23522     23524
     23472     23522     23525     23473     23472     23474     23473     23472     23522
     23474     23472     23522     23475     23478     23479     23475     23478     23480
     23475     23478     23481     23476     23475     23477     23476     23475     23478
     23477     23475     23478     23478     23481     23482     23478     23481     23483
     23478     23481     23484     23479     23478     23480     23479     23478     23481
     23480     23478     23481     23481     23484     23485     23481     23484     23486
     23481     23484     23487     23482     23481     23483     23482     23481     23484
     23483     23481     23484     23484     23487     23488     23484     23487     23489
     23484     23487     23490     23485     23484     23486     23485     23484     23487
     23486     23484     23487     23487     23490     23491     23487     23490     23492
     23487     23490     23493     23488     23487     23489     23488     23487     23490
     23489     23487     23490     23490     23493     23494     23490     23493     23495
     23491     23490     23492     23491     23490     23493     23492     23490     23493
     23493     23495     23496     23493     23495     23497     23494     23493     23495
     23495     23497     23498     23495     23497     23499     23495     23497     23500
     23496     23495     23497     23497     23500     23501     23497     23500     23502
     23497     23500     23503     23498     23497     23499     23498     23497     23500
     23499     23497     23500     23500     23503     23504     23500     23503     23505
     23500     23503     23506     23501     23500     23502     23501     23500     23503
     23502     23500     23503     23503     23506     23507     23503     23506     23508
     23503     23506     23509     23504     23503     23505     23504     23503     23506
     23505     23503     23506     23506     23509     23510     23506     23509     23511
     23506     23509     23512     23507     23506     23508     23507     23506     23509
     23508     23506     23509     23509     23512     23513     23509     23512     23514
     23509     23512     23515     23510     23509     23511     23510     23509     23512
     23511     23509     23512     23512     23515     23516     23512     23515     23517
     23512     23515     23518     23513     23512     23514     23513     23512     23515
     23514     23512     23515     23515     23518     23519     23515     23518     23520
     23515     23518     23521     23516     23515     23517     23516     23515     23518
     23517     23515     23518     23519     23518     23520     23519     23518     23521
     23520     23518     23521     23522     23525     23526     23522     23525     23527
     23522     23525     23528     23523     23522     23524     23523     23522     23525
     23524     23522     23525     23525     23528     23529     23525     23528     23530
     23525     23528     23531     23526     23525     23527     23526     23525     23528
     23527     23525     23528     23528     23531     23532     23528     23531     23533
     23528     23531     23534     23529     23528     23530     23529     23528     23531
     23530     23528     23531     23531     23534     23535     23531     23534     23536
     23531     23534     23537     23532     23531     23533     23532     23531     23534
     23533     23531     23534     23534     23537     23538     23534     23537     23539
     23534     23537     23540     23535     23534     23536     23535     23534     23537
     23536     23534     23537     23537     23540     23541     23537     23540     23542
     23537     23540     23543     23538     23537     23539     23538     23537     23540
     23539     23537     23540     23540     23543     23544     23540     23543     23545
     23540     23543     23546     23541     23540     23542     23541     23540     23543
     23542     23540     23543     23543     23546     23547     23543     23546     23548
     23543     23546     23549     23544     23543     23545     23544     23543     23546
     23545     23543     23546     23546     23549     23550     23546     23549     23551
     23546     23549     23552     23547     23546     23548     23547     23546     23549
     23548     23546     23549     23549     23552     23553     23549     23552     23554
     23549     23552     23555     23550     23549     23551     23550     23549     23552
     23551     23549     23552     23552     23555     23556     23552     23555     23557
     23552     23555     23558     23553     23552     23554     23553     23552     23555
     23554     23552     23555     23555     23558     23559     23555     23558     23560
     23555     23558     23561     23556     23555     23557     23556     23555     23558
     23557     23555     23558     23558     23561     23562     23558     23561     23563
     23558     23561     23564     23559     23558     23560     23559     23558     23561
     23560     23558     23561     23562     23561     23563     23562     23561     23564
     23563     23561     23564     23565     23566     23567     23565     23566     23568
     23565     23566     23581     23565     23569     23570     23565     23569     23571
     23565     23569     23572     23565     23573     23574     23565     23573     23575
     23565     23573     23576     23565     23577     23578     23565     23577     23579
     23565     23577     23580     23566     23565     23569     23566     23565     23573
     23566     23565     23577     23566     23581     23582     23566     23581     23583
     23566     23581     23587     23567     23566     23568     23567     23566     23581
     23568     23566     23581     23569     23565     23573     23569     23565     23577
     23570     23569     23571     23570     23569     23572     23571     23569     23572
     23573     23565     23577     23574     23573     23575     23574     23573     23576
     23575     23573     23576     23578     23577     23579     23578     23577     23580
     23579     23577     23580     23581     23587     23584     23582     23581     23583
     23582     23581     23587     23583     23581     23587     23584     23588     23589
     23585     23584     23586     23585     23584     23587     23585     23584     23588
     23586     23584     23587     23586     23584     23588     23587     23584     23588
     23588     23589     23590     23588     23589     23591     23588     23589     23592
     23589     23592     23593     23589     23592     23594     23589     23592     23600
     23590     23589     23591     23590     23589     23592     23591     23589     23592
     23592     23594     23595     23592     23600     23601     23592     23600     23602
     23592     23600     23603     23593     23592     23594     23593     23592     23600
     23594     23592     23600     23594     23595     23596     23594     23595     23597
     23595     23597     23598     23595     23597     23599     23595     23597     23609
     23596     23595     23597     23597     23609     23610     23597     23609     23611
     23597     23609     23612     23598     23597     23599     23598     23597     23609
     23599     23597     23609     23600     23603     23604     23601     23600     23602
     23601     23600     23603     23602     23600     23603     23603     23604     23605
     23603     23604     23606     23604     23606     23607     23604     23606     23608
     23604     23606     23656     23605     23604     23606     23606     23656     23657
     23606     23656     23658     23606     23656     23659     23607     23606     23608
     23607     23606     23656     23608     23606     23656     23609     23612     23613
     23609     23612     23614     23609     23612     23615     23610     23609     23611
     23610     23609     23612     23611     23609     23612     23612     23615     23616
     23612     23615     23617     23612     23615     23618     23613     23612     23614
     23613     23612     23615     23614     23612     23615     23615     23618     23619
     23615     23618     23620     23615     23618     23621     23616     23615     23617
     23616     23615     23618     23617     23615     23618     23618     23621     23622
     23618     23621     23623     23618     23621     23624     23619     23618     23620
     23619     23618     23621     23620     23618     23621     23621     23624     23625
     23621     23624     23626     23621     23624     23627     23622     23621     23623
     23622     23621     23624     23623     23621     23624     23624     23627     23628
     23624     23627     23629     23625     23624     23626     23625     23624     23627
     23626     23624     23627     23627     23629     23630     23627     23629     23631
     23628     23627     23629     23629     23631     23632     23629     23631     23633
     23629     23631     23634     23630     23629     23631     23631     23634     23635
     23631     23634     23636     23631     23634     23637     23632     23631     23633
     23632     23631     23634     23633     23631     23634     23634     23637     23638
     23634     23637     23639     23634     23637     23640     23635     23634     23636
     23635     23634     23637     23636     23634     23637     23637     23640     23641
     23637     23640     23642     23637     23640     23643     23638     23637     23639
     23638     23637     23640     23639     23637     23640     23640     23643     23644
     23640     23643     23645     23640     23643     23646     23641     23640     23642
     23641     23640     23643     23642     23640     23643     23643     23646     23647
     23643     23646     23648     23643     23646     23649     23644     23643     23645
     23644     23643     23646     23645     23643     23646     23646     23649     23650
     23646     23649     23651     23646     23649     23652     23647     23646     23648
     23647     23646     23649     23648     23646     23649     23649     23652     23653
     23649     23652     23654     23649     23652     23655     23650     23649     23651
     23650     23649     23652     23651     23649     23652     23653     23652     23654
     23653     23652     23655     23654     23652     23655     23656     23659     23660
     23656     23659     23661     23656     23659     23662     23657     23656     23658
     23657     23656     23659     23658     23656     23659     23659     23662     23663
     23659     23662     23664     23659     23662     23665     23660     23659     23661
     23660     23659     23662     23661     23659     23662     23662     23665     23666
     23662     23665     23667     23662     23665     23668     23663     23662     23664
     23663     23662     23665     23664     23662     23665     23665     23668     23669
     23665     23668     23670     23665     23668     23671     23666     23665     23667
     23666     23665     23668     23667     23665     23668     23668     23671     23672
     23668     23671     23673     23668     23671     23674     23669     23668     23670
     23669     23668     23671     23670     23668     23671     23671     23674     23675
     23671     23674     23676     23671     23674     23677     23672     23671     23673
     23672     23671     23674     23673     23671     23674     23674     23677     23678
     23674     23677     23679     23674     23677     23680     23675     23674     23676
     23675     23674     23677     23676     23674     23677     23677     23680     23681
     23677     23680     23682     23677     23680     23683     23678     23677     23679
     23678     23677     23680     23679     23677     23680     23680     23683     23684
     23680     23683     23685     23680     23683     23686     23681     23680     23682
     23681     23680     23683     23682     23680     23683     23683     23686     23687
     23683     23686     23688     23683     23686     23689     23684     23683     23685
     23684     23683     23686     23685     23683     23686     23686     23689     23690
     23686     23689     23691     23686     23689     23692     23687     23686     23688
     23687     23686     23689     23688     23686     23689     23689     23692     23693
     23689     23692     23694     23689     23692     23695     23690     23689     23691
     23690     23689     23692     23691     23689     23692     23692     23695     23696
     23692     23695     23697     23692     23695     23698     23693     23692     23694
     23693     23692     23695     23694     23692     23695     23696     23695     23697
     23696     23695     23698     23697     23695     23698     23699     23703     23704
     23699     23703     23705     23699     23703     23706     23700     23699     23701
     23700     23699     23702     23700     23699     23703     23701     23699     23702
     23701     23699     23703     23702     23699     23703     23703     23706     23707
     23703     23706     23708     23703     23706     23713     23704     23703     23705
     23704     23703     23706     23705     23703     23706     23706     23713     23709
     23707     23706     23708     23707     23706     23713     23708     23706     23713
     23709     23712     23714     23710     23709     23711     23710     23709     23712
     23710     23709     23713     23711     23709     23712     23711     23709     23713
     23712     23709     23713     23712     23714     23715     23712     23714     23716
     23712     23714     23717     23714     23717     23718     23714     23717     23719
     23714     23717     23725     23715     23714     23716     23715     23714     23717
     23716     23714     23717     23717     23719     23720     23717     23725     23726
     23717     23725     23727     23717     23725     23728     23718     23717     23719
     23718     23717     23725     23719     23717     23725     23719     23720     23721
     23719     23720     23722     23720     23722     23723     23720     23722     23724
     23720     23722     23734     23721     23720     23722     23722     23734     23735
     23722     23734     23736     23722     23734     23737     23723     23722     23724
     23723     23722     23734     23724     23722     23734     23725     23728     23729
     23726     23725     23727     23726     23725     23728     23727     23725     23728
     23728     23729     23730     23728     23729     23731     23729     23731     23732
     23729     23731     23733     23729     23731     23781     23730     23729     23731
     23731     23781     23782     23731     23781     23783     23731     23781     23784
     23732     23731     23733     23732     23731     23781     23733     23731     23781
     23734     23737     23738     23734     23737     23739     23734     23737     23740
     23735     23734     23736     23735     23734     23737     23736     23734     23737
     23737     23740     23741     23737     23740     23742     23737     23740     23743
     23738     23737     23739     23738     23737     23740     23739     23737     23740
     23740     23743     23744     23740     23743     23745     23740     23743     23746
     23741     23740     23742     23741     23740     23743     23742     23740     23743
     23743     23746     23747     23743     23746     23748     23743     23746     23749
     23744     23743     23745     23744     23743     23746     23745     23743     23746
     23746     23749     23750     23746     23749     23751     23746     23749     23752
     23747     23746     23748     23747     23746     23749     23748     23746     23749
     23749     23752     23753     23749     23752     23754     23750     23749     23751
     23750     23749     23752     23751     23749     23752     23752     23754     23755
     23752     23754     23756     23753     23752     23754     23754     23756     23757
     23754     23756     23758     23754     23756     23759     23755     23754     23756
     23756     23759     23760     23756     23759     23761     23756     23759     23762
     23757     23756     23758     23757     23756     23759     23758     23756     23759
     23759     23762     23763     23759     23762     23764     23759     23762     23765
     23760     23759     23761     23760     23759     23762     23761     23759     23762
     23762     23765     23766     23762     23765     23767     23762     23765     23768
     23763     23762     23764     23763     23762     23765     23764     23762     23765
     23765     23768     23769     23765     23768     23770     23765     23768     23771
     23766     23765     23767     23766     23765     23768     23767     23765     23768
     23768     23771     23772     23768     23771     23773     23768     23771     23774
     23769     23768     23770     23769     23768     23771     23770     23768     23771
     23771     23774     23775     23771     23774     23776     23771     23774     23777
     23772     23771     23773     23772     23771     23774     23773     23771     23774
     23774     23777     23778     23774     23777     23779     23774     23777     23780
     23775     23774     23776     23775     23774     23777     23776     23774     23777
     23778     23777     23779     23778     23777     23780     23779     23777     23780
     23781     23784     23785     23781     23784     23786     23781     23784     23787
     23782     23781     23783     23782     23781     23784     23783     23781     23784
     23784     23787     23788     23784     23787     23789     23784     23787     23790
     23785     23784     23786     23785     23784     23787     23786     23784     23787
     23787     23790     23791     23787     23790     23792     23787     23790     23793
     23788     23787     23789     23788     23787     23790     23789     23787     23790
     23790     23793     23794     23790     23793     23795     23790     23793     23796
     23791     23790     23792     23791     23790     23793     23792     23790     23793
     23793     23796     23797     23793     23796     23798     23793     23796     23799
     23794     23793     23795     23794     23793     23796     23795     23793     23796
     23796     23799     23800     23796     23799     23801     23796     23799     23802
     23797     23796     23798     23797     23796     23799     23798     23796     23799
     23799     23802     23803     23799     23802     23804     23799     23802     23805
     23800     23799     23801     23800     23799     23802     23801     23799     23802
     23802     23805     23806     23802     23805     23807     23802     23805     23808
     23803     23802     23804     23803     23802     23805     23804     23802     23805
     23805     23808     23809     23805     23808     23810     23805     23808     23811
     23806     23805     23807     23806     23805     23808     23807     23805     23808
     23808     23811     23812     23808     23811     23813     23808     23811     23814
     23809     23808     23810     23809     23808     23811     23810     23808     23811
     23811     23814     23815     23811     23814     23816     23811     23814     23817
     23812     23811     23813     23812     23811     23814     23813     23811     23814
     23814     23817     23818     23814     23817     23819     23814     23817     23820
     23815     23814     23816     23815     23814     23817     23816     23814     23817
     23817     23820     23821     23817     23820     23822     23817     23820     23823
     23818     23817     23819     23818     23817     23820     23819     23817     23820
     23821     23820     23822     23821     23820     23823     23822     23820     23823
     23824     23825     23826     23824     23825     23827     23824     23825     23840
     23824     23828     23829     23824     23828     23830     23824     23828     23831
     23824     23832     23833     23824     23832     23834     23824     23832     23835
     23824     23836     23837     23824     23836     23838     23824     23836     23839
     23825     23824     23828     23825     23824     23832     23825     23824     23836
     23825     23840     23841     23825     23840     23842     23825     23840     23846
     23826     23825     23827     23826     23825     23840     23827     23825     23840
     23828     23824     23832     23828     23824     23836     23829     23828     23830
     23829     23828     23831     23830     23828     23831     23832     23824     23836
     23833     23832     23834     23833     23832     23835     23834     23832     23835
     23837     23836     23838     23837     23836     23839     23838     23836     23839
     23840     23846     23843     23841     23840     23842     23841     23840     23846
     23842     23840     23846     23843     23847     23848     23844     23843     23845
     23844     23843     23846     23844     23843     23847     23845     23843     23846
     23845     23843     23847     23846     23843     23847     23847     23848     23849
     23847     23848     23850     23847     23848     23851     23848     23851     23852
     23848     23851     23853     23848     23851     23859     23849     23848     23850
     23849     23848     23851     23850     23848     23851     23851     23853     23854
     23851     23859     23860     23851     23859     23861     23851     23859     23862
     23852     23851     23853     23852     23851     23859     23853     23851     23859
     23853     23854     23855     23853     23854     23856     23854     23856     23857
     23854     23856     23858     23854     23856     23868     23855     23854     23856
     23856     23868     23869     23856     23868     23870     23856     23868     23871
     23857     23856     23858     23857     23856     23868     23858     23856     23868
     23859     23862     23863     23860     23859     23861     23860     23859     23862
     23861     23859     23862     23862     23863     23864     23862     23863     23865
     23863     23865     23866     23863     23865     23867     23863     23865     23915
     23864     23863     23865     23865     23915     23916     23865     23915     23917
     23865     23915     23918     23866     23865     23867     23866     23865     23915
     23867     23865     23915     23868     23871     23872     23868     23871     23873
     23868     23871     23874     23869     23868     23870     23869     23868     23871
     23870     23868     23871     23871     23874     23875     23871     23874     23876
     23871     23874     23877     23872     23871     23873     23872     23871     23874
     23873     23871     23874     23874     23877     23878     23874     23877     23879
     23874     23877     23880     23875     23874     23876     23875     23874     23877
     23876     23874     23877     23877     23880     23881     23877     23880     23882
     23877     23880     23883     23878     23877     23879     23878     23877     23880
     23879     23877     23880     23880     23883     23884     23880     23883     23885
     23880     23883     23886     23881     23880     23882     23881     23880     23883
     23882     23880     23883     23883     23886     23887     23883     23886     23888
     23884     23883     23885     23884     23883     23886     23885     23883     23886
     23886     23888     23889     23886     23888     23890     23887     23886     23888
     23888     23890     23891     23888     23890     23892     23888     23890     23893
     23889     23888     23890     23890     23893     23894     23890     23893     23895
     23890     23893     23896     23891     23890     23892     23891     23890     23893
     23892     23890     23893     23893     23896     23897     23893     23896     23898
     23893     23896     23899     23894     23893     23895     23894     23893     23896
     23895     23893     23896     23896     23899     23900     23896     23899     23901
     23896     23899     23902     23897     23896     23898     23897     23896     23899
     23898     23896     23899     23899     23902     23903     23899     23902     23904
     23899     23902     23905     23900     23899     23901     23900     23899     23902
     23901     23899     23902     23902     23905     23906     23902     23905     23907
     23902     23905     23908     23903     23902     23904     23903     23902     23905
     23904     23902     23905     23905     23908     23909     23905     23908     23910
     23905     23908     23911     23906     23905     23907     23906     23905     23908
     23907     23905     23908     23908     23911     23912     23908     23911     23913
     23908     23911     23914     23909     23908     23910     23909     23908     23911
     23910     23908     23911     23912     23911     23913     23912     23911     23914
     23913     23911     23914     23915     23918     23919     23915     23918     23920
     23915     23918     23921     23916     23915     23917     23916     23915     23918
     23917     23915     23918     23918     23921     23922     23918     23921     23923
     23918     23921     23924     23919     23918     23920     23919     23918     23921
     23920     23918     23921     23921     23924     23925     23921     23924     23926
     23921     23924     23927     23922     23921     23923     23922     23921     23924
     23923     23921     23924     23924     23927     23928     23924     23927     23929
     23924     23927     23930     23925     23924     23926     23925     23924     23927
     23926     23924     23927     23927     23930     23931     23927     23930     23932
     23927     23930     23933     23928     23927     23929     23928     23927     23930
     23929     23927     23930     23930     23933     23934     23930     23933     23935
     23930     23933     23936     23931     23930     23932     23931     23930     23933
     23932     23930     23933     23933     23936     23937     23933     23936     23938
     23933     23936     23939     23934     23933     23935     23934     23933     23936
     23935     23933     23936     23936     23939     23940     23936     23939     23941
     23936     23939     23942     23937     23936     23938     23937     23936     23939
     23938     23936     23939     23939     23942     23943     23939     23942     23944
     23939     23942     23945     23940     23939     23941     23940     23939     23942
     23941     23939     23942     23942     23945     23946     23942     23945     23947
     23942     23945     23948     23943     23942     23944     23943     23942     23945
     23944     23942     23945     23945     23948     23949     23945     23948     23950
     23945     23948     23951     23946     23945     23947     23946     23945     23948
     23947     23945     23948     23948     23951     23952     23948     23951     23953
     23948     23951     23954     23949     23948     23950     23949     23948     23951
     23950     23948     23951     23951     23954     23955     23951     23954     23956
     23951     23954     23957     23952     23951     23953     23952     23951     23954
     23953     23951     23954     23955     23954     23956     23955     23954     23957
     23956     23954     23957     23958     23959     23960     23958     23959     23961
     23958     23959     23974     23958     23962     23963     23958     23962     23964
     23958     23962     23965     23958     23966     23967     23958     23966     23968
     23958     23966     23969     23958     23970     23971     23958     23970     23972
     23958     23970     23973     23959     23958     23962     23959     23958     23966
     23959     23958     23970     23959     23974     23975     23959     23974     23976
     23959     23974     23980     23960     23959     23961     23960     23959     23974
     23961     23959     23974     23962     23958     23966     23962     23958     23970
     23963     23962     23964     23963     23962     23965     23964     23962     23965
     23966     23958     23970     23967     23966     23968     23967     23966     23969
     23968     23966     23969     23971     23970     23972     23971     23970     23973
     23972     23970     23973     23974     23980     23977     23975     23974     23976
     23975     23974     23980     23976     23974     23980     23977     23981     23982
     23978     23977     23979     23978     23977     23980     23978     23977     23981
     23979     23977     23980     23979     23977     23981     23980     23977     23981
     23981     23982     23983     23981     23982     23984     23981     23982     23985
     23982     23985     23986     23982     23985     23987     23982     23985     23993
     23983     23982     23984     23983     23982     23985     23984     23982     23985
     23985     23987     23988     23985     23993     23994     23985     23993     23995
     23985     23993     23996     23986     23985     23987     23986     23985     23993
     23987     23985     23993     23987     23988     23989     23987     23988     23990
     23988     23990     23991     23988     23990     23992     23988     23990     24002
     23989     23988     23990     23990     24002     24003     23990     24002     24004
     23990     24002     24005     23991     23990     23992     23991     23990     24002
     23992     23990     24002     23993     23996     23997     23994     23993     23995
     23994     23993     23996     23995     23993     23996     23996     23997     23998
     23996     23997     23999     23997     23999     24000     23997     23999     24001
     23997     23999     24049     23998     23997     23999     23999     24049     24050
     23999     24049     24051     23999     24049     24052     24000     23999     24001
     24000     23999     24049     24001     23999     24049     24002     24005     24006
     24002     24005     24007     24002     24005     24008     24003     24002     24004
     24003     24002     24005     24004     24002     24005     24005     24008     24009
     24005     24008     24010     24005     24008     24011     24006     24005     24007
     24006     24005     24008     24007     24005     24008     24008     24011     24012
     24008     24011     24013     24008     24011     24014     24009     24008     24010
     24009     24008     24011     24010     24008     24011     24011     24014     24015
     24011     24014     24016     24011     24014     24017     24012     24011     24013
     24012     24011     24014     24013     24011     24014     24014     24017     24018
     24014     24017     24019     24014     24017     24020     24015     24014     24016
     24015     24014     24017     24016     24014     24017     24017     24020     24021
     24017     24020     24022     24018     24017     24019     24018     24017     24020
     24019     24017     24020     24020     24022     24023     24020     24022     24024
     24021     24020     24022     24022     24024     24025     24022     24024     24026
     24022     24024     24027     24023     24022     24024     24024     24027     24028
     24024     24027     24029     24024     24027     24030     24025     24024     24026
     24025     24024     24027     24026     24024     24027     24027     24030     24031
     24027     24030     24032     24027     24030     24033     24028     24027     24029
     24028     24027     24030     24029     24027     24030     24030     24033     24034
     24030     24033     24035     24030     24033     24036     24031     24030     24032
     24031     24030     24033     24032     24030     24033     24033     24036     24037
     24033     24036     24038     24033     24036     24039     24034     24033     24035
     24034     24033     24036     24035     24033     24036     24036     24039     24040
     24036     24039     24041     24036     24039     24042     24037     24036     24038
     24037     24036     24039     24038     24036     24039     24039     24042     24043
     24039     24042     24044     24039     24042     24045     24040     24039     24041
     24040     24039     24042     24041     24039     24042     24042     24045     24046
     24042     24045     24047     24042     24045     24048     24043     24042     24044
     24043     24042     24045     24044     24042     24045     24046     24045     24047
     24046     24045     24048     24047     24045     24048     24049     24052     24053
     24049     24052     24054     24049     24052     24055     24050     24049     24051
     24050     24049     24052     24051     24049     24052     24052     24055     24056
     24052     24055     24057     24052     24055     24058     24053     24052     24054
     24053     24052     24055     24054     24052     24055     24055     24058     24059
     24055     24058     24060     24055     24058     24061     24056     24055     24057
     24056     24055     24058     24057     24055     24058     24058     24061     24062
     24058     24061     24063     24058     24061     24064     24059     24058     24060
     24059     24058     24061     24060     24058     24061     24061     24064     24065
     24061     24064     24066     24061     24064     24067     24062     24061     24063
     24062     24061     24064     24063     24061     24064     24064     24067     24068
     24064     24067     24069     24064     24067     24070     24065     24064     24066
     24065     24064     24067     24066     24064     24067     24067     24070     24071
     24067     24070     24072     24067     24070     24073     24068     24067     24069
     24068     24067     24070     24069     24067     24070     24070     24073     24074
     24070     24073     24075     24070     24073     24076     24071     24070     24072
     24071     24070     24073     24072     24070     24073     24073     24076     24077
     24073     24076     24078     24073     24076     24079     24074     24073     24075
     24074     24073     24076     24075     24073     24076     24076     24079     24080
     24076     24079     24081     24076     24079     24082     24077     24076     24078
     24077     24076     24079     24078     24076     24079     24079     24082     24083
     24079     24082     24084     24079     24082     24085     24080     24079     24081
     24080     24079     24082     24081     24079     24082     24082     24085     24086
     24082     24085     24087     24082     24085     24088     24083     24082     24084
     24083     24082     24085     24084     24082     24085     24085     24088     24089
     24085     24088     24090     24085     24088     24091     24086     24085     24087
     24086     24085     24088     24087     24085     24088     24089     24088     24090
     24089     24088     24091     24090     24088     24091     24092     24096     24097
     24092     24096     24098     24092     24096     24099     24093     24092     24094
     24093     24092     24095     24093     24092     24096     24094     24092     24095
     24094     24092     24096     24095     24092     24096     24096     24099     24100
     24096     24099     24101     24096     24099     24106     24097     24096     24098
     24097     24096     24099     24098     24096     24099     24099     24106     24102
     24100     24099     24101     24100     24099     24106     24101     24099     24106
     24102     24105     24107     24103     24102     24104     24103     24102     24105
     24103     24102     24106     24104     24102     24105     24104     24102     24106
     24105     24102     24106     24105     24107     24108     24105     24107     24109
     24105     24107     24110     24107     24110     24111     24107     24110     24112
     24107     24110     24118     24108     24107     24109     24108     24107     24110
     24109     24107     24110     24110     24112     24113     24110     24118     24119
     24110     24118     24120     24110     24118     24121     24111     24110     24112
     24111     24110     24118     24112     24110     24118     24112     24113     24114
     24112     24113     24115     24113     24115     24116     24113     24115     24117
     24113     24115     24127     24114     24113     24115     24115     24127     24128
     24115     24127     24129     24115     24127     24130     24116     24115     24117
     24116     24115     24127     24117     24115     24127     24118     24121     24122
     24119     24118     24120     24119     24118     24121     24120     24118     24121
     24121     24122     24123     24121     24122     24124     24122     24124     24125
     24122     24124     24126     24122     24124     24174     24123     24122     24124
     24124     24174     24175     24124     24174     24176     24124     24174     24177
     24125     24124     24126     24125     24124     24174     24126     24124     24174
     24127     24130     24131     24127     24130     24132     24127     24130     24133
     24128     24127     24129     24128     24127     24130     24129     24127     24130
     24130     24133     24134     24130     24133     24135     24130     24133     24136
     24131     24130     24132     24131     24130     24133     24132     24130     24133
     24133     24136     24137     24133     24136     24138     24133     24136     24139
     24134     24133     24135     24134     24133     24136     24135     24133     24136
     24136     24139     24140     24136     24139     24141     24136     24139     24142
     24137     24136     24138     24137     24136     24139     24138     24136     24139
     24139     24142     24143     24139     24142     24144     24139     24142     24145
     24140     24139     24141     24140     24139     24142     24141     24139     24142
     24142     24145     24146     24142     24145     24147     24143     24142     24144
     24143     24142     24145     24144     24142     24145     24145     24147     24148
     24145     24147     24149     24146     24145     24147     24147     24149     24150
     24147     24149     24151     24147     24149     24152     24148     24147     24149
     24149     24152     24153     24149     24152     24154     24149     24152     24155
     24150     24149     24151     24150     24149     24152     24151     24149     24152
     24152     24155     24156     24152     24155     24157     24152     24155     24158
     24153     24152     24154     24153     24152     24155     24154     24152     24155
     24155     24158     24159     24155     24158     24160     24155     24158     24161
     24156     24155     24157     24156     24155     24158     24157     24155     24158
     24158     24161     24162     24158     24161     24163     24158     24161     24164
     24159     24158     24160     24159     24158     24161     24160     24158     24161
     24161     24164     24165     24161     24164     24166     24161     24164     24167
     24162     24161     24163     24162     24161     24164     24163     24161     24164
     24164     24167     24168     24164     24167     24169     24164     24167     24170
     24165     24164     24166     24165     24164     24167     24166     24164     24167
     24167     24170     24171     24167     24170     24172     24167     24170     24173
     24168     24167     24169     24168     24167     24170     24169     24167     24170
     24171     24170     24172     24171     24170     24173     24172     24170     24173
     24174     24177     24178     24174     24177     24179     24174     24177     24180
     24175     24174     24176     24175     24174     24177     24176     24174     24177
     24177     24180     24181     24177     24180     24182     24177     24180     24183
     24178     24177     24179     24178     24177     24180     24179     24177     24180
     24180     24183     24184     24180     24183     24185     24180     24183     24186
     24181     24180     24182     24181     24180     24183     24182     24180     24183
     24183     24186     24187     24183     24186     24188     24183     24186     24189
     24184     24183     24185     24184     24183     24186     24185     24183     24186
     24186     24189     24190     24186     24189     24191     24186     24189     24192
     24187     24186     24188     24187     24186     24189     24188     24186     24189
     24189     24192     24193     24189     24192     24194     24189     24192     24195
     24190     24189     24191     24190     24189     24192     24191     24189     24192
     24192     24195     24196     24192     24195     24197     24192     24195     24198
     24193     24192     24194     24193     24192     24195     24194     24192     24195
     24195     24198     24199     24195     24198     24200     24195     24198     24201
     24196     24195     24197     24196     24195     24198     24197     24195     24198
     24198     24201     24202     24198     24201     24203     24198     24201     24204
     24199     24198     24200     24199     24198     24201     24200     24198     24201
     24201     24204     24205     24201     24204     24206     24201     24204     24207
     24202     24201     24203     24202     24201     24204     24203     24201     24204
     24204     24207     24208     24204     24207     24209     24204     24207     24210
     24205     24204     24206     24205     24204     24207     24206     24204     24207
     24207     24210     24211     24207     24210     24212     24207     24210     24213
     24208     24207     24209     24208     24207     24210     24209     24207     24210
     24210     24213     24214     24210     24213     24215     24210     24213     24216
     24211     24210     24212     24211     24210     24213     24212     24210     24213
     24214     24213     24215     24214     24213     24216     24215     24213     24216
     24217     24221     24222     24217     24221     24223     24217     24221     24224
     24218     24217     24219     24218     24217     24220     24218     24217     24221
     24219     24217     24220     24219     24217     24221     24220     24217     24221
     24221     24224     24225     24221     24224     24226     24221     24224     24231
     24222     24221     24223     24222     24221     24224     24223     24221     24224
     24224     24231     24227     24225     24224     24226     24225     24224     24231
     24226     24224     24231     24227     24230     24232     24228     24227     24229
     24228     24227     24230     24228     24227     24231     24229     24227     24230
     24229     24227     24231     24230     24227     24231     24230     24232     24233
     24230     24232     24234     24230     24232     24235     24232     24235     24236
     24232     24235     24237     24232     24235     24243     24233     24232     24234
     24233     24232     24235     24234     24232     24235     24235     24237     24238
     24235     24243     24244     24235     24243     24245     24235     24243     24246
     24236     24235     24237     24236     24235     24243     24237     24235     24243
     24237     24238     24239     24237     24238     24240     24238     24240     24241
     24238     24240     24242     24238     24240     24252     24239     24238     24240
     24240     24252     24253     24240     24252     24254     24240     24252     24255
     24241     24240     24242     24241     24240     24252     24242     24240     24252
     24243     24246     24247     24244     24243     24245     24244     24243     24246
     24245     24243     24246     24246     24247     24248     24246     24247     24249
     24247     24249     24250     24247     24249     24251     24247     24249     24299
     24248     24247     24249     24249     24299     24300     24249     24299     24301
     24249     24299     24302     24250     24249     24251     24250     24249     24299
     24251     24249     24299     24252     24255     24256     24252     24255     24257
     24252     24255     24258     24253     24252     24254     24253     24252     24255
     24254     24252     24255     24255     24258     24259     24255     24258     24260
     24255     24258     24261     24256     24255     24257     24256     24255     24258
     24257     24255     24258     24258     24261     24262     24258     24261     24263
     24258     24261     24264     24259     24258     24260     24259     24258     24261
     24260     24258     24261     24261     24264     24265     24261     24264     24266
     24261     24264     24267     24262     24261     24263     24262     24261     24264
     24263     24261     24264     24264     24267     24268     24264     24267     24269
     24264     24267     24270     24265     24264     24266     24265     24264     24267
     24266     24264     24267     24267     24270     24271     24267     24270     24272
     24268     24267     24269     24268     24267     24270     24269     24267     24270
     24270     24272     24273     24270     24272     24274     24271     24270     24272
     24272     24274     24275     24272     24274     24276     24272     24274     24277
     24273     24272     24274     24274     24277     24278     24274     24277     24279
     24274     24277     24280     24275     24274     24276     24275     24274     24277
     24276     24274     24277     24277     24280     24281     24277     24280     24282
     24277     24280     24283     24278     24277     24279     24278     24277     24280
     24279     24277     24280     24280     24283     24284     24280     24283     24285
     24280     24283     24286     24281     24280     24282     24281     24280     24283
     24282     24280     24283     24283     24286     24287     24283     24286     24288
     24283     24286     24289     24284     24283     24285     24284     24283     24286
     24285     24283     24286     24286     24289     24290     24286     24289     24291
     24286     24289     24292     24287     24286     24288     24287     24286     24289
     24288     24286     24289     24289     24292     24293     24289     24292     24294
     24289     24292     24295     24290     24289     24291     24290     24289     24292
     24291     24289     24292     24292     24295     24296     24292     24295     24297
     24292     24295     24298     24293     24292     24294     24293     24292     24295
     24294     24292     24295     24296     24295     24297     24296     24295     24298
     24297     24295     24298     24299     24302     24303     24299     24302     24304
     24299     24302     24305     24300     24299     24301     24300     24299     24302
     24301     24299     24302     24302     24305     24306     24302     24305     24307
     24302     24305     24308     24303     24302     24304     24303     24302     24305
     24304     24302     24305     24305     24308     24309     24305     24308     24310
     24305     24308     24311     24306     24305     24307     24306     24305     24308
     24307     24305     24308     24308     24311     24312     24308     24311     24313
     24308     24311     24314     24309     24308     24310     24309     24308     24311
     24310     24308     24311     24311     24314     24315     24311     24314     24316
     24311     24314     24317     24312     24311     24313     24312     24311     24314
     24313     24311     24314     24314     24317     24318     24314     24317     24319
     24314     24317     24320     24315     24314     24316     24315     24314     24317
     24316     24314     24317     24317     24320     24321     24317     24320     24322
     24317     24320     24323     24318     24317     24319     24318     24317     24320
     24319     24317     24320     24320     24323     24324     24320     24323     24325
     24320     24323     24326     24321     24320     24322     24321     24320     24323
     24322     24320     24323     24323     24326     24327     24323     24326     24328
     24323     24326     24329     24324     24323     24325     24324     24323     24326
     24325     24323     24326     24326     24329     24330     24326     24329     24331
     24326     24329     24332     24327     24326     24328     24327     24326     24329
     24328     24326     24329     24329     24332     24333     24329     24332     24334
     24329     24332     24335     24330     24329     24331     24330     24329     24332
     24331     24329     24332     24332     24335     24336     24332     24335     24337
     24332     24335     24338     24333     24332     24334     24333     24332     24335
     24334     24332     24335     24335     24338     24339     24335     24338     24340
     24335     24338     24341     24336     24335     24337     24336     24335     24338
     24337     24335     24338     24339     24338     24340     24339     24338     24341
     24340     24338     24341     24342     24346     24347     24342     24346     24348
     24342     24346     24349     24343     24342     24344     24343     24342     24345
     24343     24342     24346     24344     24342     24345     24344     24342     24346
     24345     24342     24346     24346     24349     24350     24346     24349     24351
     24346     24349     24356     24347     24346     24348     24347     24346     24349
     24348     24346     24349     24349     24356     24352     24350     24349     24351
     24350     24349     24356     24351     24349     24356     24352     24355     24357
     24353     24352     24354     24353     24352     24355     24353     24352     24356
     24354     24352     24355     24354     24352     24356     24355     24352     24356
     24355     24357     24358     24355     24357     24359     24355     24357     24360
     24357     24360     24361     24357     24360     24362     24357     24360     24368
     24358     24357     24359     24358     24357     24360     24359     24357     24360
     24360     24362     24363     24360     24368     24369     24360     24368     24370
     24360     24368     24371     24361     24360     24362     24361     24360     24368
     24362     24360     24368     24362     24363     24364     24362     24363     24365
     24363     24365     24366     24363     24365     24367     24363     24365     24377
     24364     24363     24365     24365     24377     24378     24365     24377     24379
     24365     24377     24380     24366     24365     24367     24366     24365     24377
     24367     24365     24377     24368     24371     24372     24369     24368     24370
     24369     24368     24371     24370     24368     24371     24371     24372     24373
     24371     24372     24374     24372     24374     24375     24372     24374     24376
     24372     24374     24424     24373     24372     24374     24374     24424     24425
     24374     24424     24426     24374     24424     24427     24375     24374     24376
     24375     24374     24424     24376     24374     24424     24377     24380     24381
     24377     24380     24382     24377     24380     24383     24378     24377     24379
     24378     24377     24380     24379     24377     24380     24380     24383     24384
     24380     24383     24385     24380     24383     24386     24381     24380     24382
     24381     24380     24383     24382     24380     24383     24383     24386     24387
     24383     24386     24388     24383     24386     24389     24384     24383     24385
     24384     24383     24386     24385     24383     24386     24386     24389     24390
     24386     24389     24391     24386     24389     24392     24387     24386     24388
     24387     24386     24389     24388     24386     24389     24389     24392     24393
     24389     24392     24394     24389     24392     24395     24390     24389     24391
     24390     24389     24392     24391     24389     24392     24392     24395     24396
     24392     24395     24397     24393     24392     24394     24393     24392     24395
     24394     24392     24395     24395     24397     24398     24395     24397     24399
     24396     24395     24397     24397     24399     24400     24397     24399     24401
     24397     24399     24402     24398     24397     24399     24399     24402     24403
     24399     24402     24404     24399     24402     24405     24400     24399     24401
     24400     24399     24402     24401     24399     24402     24402     24405     24406
     24402     24405     24407     24402     24405     24408     24403     24402     24404
     24403     24402     24405     24404     24402     24405     24405     24408     24409
     24405     24408     24410     24405     24408     24411     24406     24405     24407
     24406     24405     24408     24407     24405     24408     24408     24411     24412
     24408     24411     24413     24408     24411     24414     24409     24408     24410
     24409     24408     24411     24410     24408     24411     24411     24414     24415
     24411     24414     24416     24411     24414     24417     24412     24411     24413
     24412     24411     24414     24413     24411     24414     24414     24417     24418
     24414     24417     24419     24414     24417     24420     24415     24414     24416
     24415     24414     24417     24416     24414     24417     24417     24420     24421
     24417     24420     24422     24417     24420     24423     24418     24417     24419
     24418     24417     24420     24419     24417     24420     24421     24420     24422
     24421     24420     24423     24422     24420     24423     24424     24427     24428
     24424     24427     24429     24424     24427     24430     24425     24424     24426
     24425     24424     24427     24426     24424     24427     24427     24430     24431
     24427     24430     24432     24427     24430     24433     24428     24427     24429
     24428     24427     24430     24429     24427     24430     24430     24433     24434
     24430     24433     24435     24430     24433     24436     24431     24430     24432
     24431     24430     24433     24432     24430     24433     24433     24436     24437
     24433     24436     24438     24433     24436     24439     24434     24433     24435
     24434     24433     24436     24435     24433     24436     24436     24439     24440
     24436     24439     24441     24436     24439     24442     24437     24436     24438
     24437     24436     24439     24438     24436     24439     24439     24442     24443
     24439     24442     24444     24439     24442     24445     24440     24439     24441
     24440     24439     24442     24441     24439     24442     24442     24445     24446
     24442     24445     24447     24442     24445     24448     24443     24442     24444
     24443     24442     24445     24444     24442     24445     24445     24448     24449
     24445     24448     24450     24445     24448     24451     24446     24445     24447
     24446     24445     24448     24447     24445     24448     24448     24451     24452
     24448     24451     24453     24448     24451     24454     24449     24448     24450
     24449     24448     24451     24450     24448     24451     24451     24454     24455
     24451     24454     24456     24451     24454     24457     24452     24451     24453
     24452     24451     24454     24453     24451     24454     24454     24457     24458
     24454     24457     24459     24454     24457     24460     24455     24454     24456
     24455     24454     24457     24456     24454     24457     24457     24460     24461
     24457     24460     24462     24457     24460     24463     24458     24457     24459
     24458     24457     24460     24459     24457     24460     24460     24463     24464
     24460     24463     24465     24460     24463     24466     24461     24460     24462
     24461     24460     24463     24462     24460     24463     24464     24463     24465
     24464     24463     24466     24465     24463     24466     24467     24468     24469
     24467     24468     24470     24467     24468     24483     24467     24471     24472
     24467     24471     24473     24467     24471     24474     24467     24475     24476
     24467     24475     24477     24467     24475     24478     24467     24479     24480
     24467     24479     24481     24467     24479     24482     24468     24467     24471
     24468     24467     24475     24468     24467     24479     24468     24483     24484
     24468     24483     24485     24468     24483     24489     24469     24468     24470
     24469     24468     24483     24470     24468     24483     24471     24467     24475
     24471     24467     24479     24472     24471     24473     24472     24471     24474
     24473     24471     24474     24475     24467     24479     24476     24475     24477
     24476     24475     24478     24477     24475     24478     24480     24479     24481
     24480     24479     24482     24481     24479     24482     24483     24489     24486
     24484     24483     24485     24484     24483     24489     24485     24483     24489
     24486     24490     24491     24487     24486     24488     24487     24486     24489
     24487     24486     24490     24488     24486     24489     24488     24486     24490
     24489     24486     24490     24490     24491     24492     24490     24491     24493
     24490     24491     24494     24491     24494     24495     24491     24494     24496
     24491     24494     24502     24492     24491     24493     24492     24491     24494
     24493     24491     24494     24494     24496     24497     24494     24502     24503
     24494     24502     24504     24494     24502     24505     24495     24494     24496
     24495     24494     24502     24496     24494     24502     24496     24497     24498
     24496     24497     24499     24497     24499     24500     24497     24499     24501
     24497     24499     24511     24498     24497     24499     24499     24511     24512
     24499     24511     24513     24499     24511     24514     24500     24499     24501
     24500     24499     24511     24501     24499     24511     24502     24505     24506
     24503     24502     24504     24503     24502     24505     24504     24502     24505
     24505     24506     24507     24505     24506     24508     24506     24508     24509
     24506     24508     24510     24506     24508     24558     24507     24506     24508
     24508     24558     24559     24508     24558     24560     24508     24558     24561
     24509     24508     24510     24509     24508     24558     24510     24508     24558
     24511     24514     24515     24511     24514     24516     24511     24514     24517
     24512     24511     24513     24512     24511     24514     24513     24511     24514
     24514     24517     24518     24514     24517     24519     24514     24517     24520
     24515     24514     24516     24515     24514     24517     24516     24514     24517
     24517     24520     24521     24517     24520     24522     24517     24520     24523
     24518     24517     24519     24518     24517     24520     24519     24517     24520
     24520     24523     24524     24520     24523     24525     24520     24523     24526
     24521     24520     24522     24521     24520     24523     24522     24520     24523
     24523     24526     24527     24523     24526     24528     24523     24526     24529
     24524     24523     24525     24524     24523     24526     24525     24523     24526
     24526     24529     24530     24526     24529     24531     24527     24526     24528
     24527     24526     24529     24528     24526     24529     24529     24531     24532
     24529     24531     24533     24530     24529     24531     24531     24533     24534
     24531     24533     24535     24531     24533     24536     24532     24531     24533
     24533     24536     24537     24533     24536     24538     24533     24536     24539
     24534     24533     24535     24534     24533     24536     24535     24533     24536
     24536     24539     24540     24536     24539     24541     24536     24539     24542
     24537     24536     24538     24537     24536     24539     24538     24536     24539
     24539     24542     24543     24539     24542     24544     24539     24542     24545
     24540     24539     24541     24540     24539     24542     24541     24539     24542
     24542     24545     24546     24542     24545     24547     24542     24545     24548
     24543     24542     24544     24543     24542     24545     24544     24542     24545
     24545     24548     24549     24545     24548     24550     24545     24548     24551
     24546     24545     24547     24546     24545     24548     24547     24545     24548
     24548     24551     24552     24548     24551     24553     24548     24551     24554
     24549     24548     24550     24549     24548     24551     24550     24548     24551
     24551     24554     24555     24551     24554     24556     24551     24554     24557
     24552     24551     24553     24552     24551     24554     24553     24551     24554
     24555     24554     24556     24555     24554     24557     24556     24554     24557
     24558     24561     24562     24558     24561     24563     24558     24561     24564
     24559     24558     24560     24559     24558     24561     24560     24558     24561
     24561     24564     24565     24561     24564     24566     24561     24564     24567
     24562     24561     24563     24562     24561     24564     24563     24561     24564
     24564     24567     24568     24564     24567     24569     24564     24567     24570
     24565     24564     24566     24565     24564     24567     24566     24564     24567
     24567     24570     24571     24567     24570     24572     24567     24570     24573
     24568     24567     24569     24568     24567     24570     24569     24567     24570
     24570     24573     24574     24570     24573     24575     24570     24573     24576
     24571     24570     24572     24571     24570     24573     24572     24570     24573
     24573     24576     24577     24573     24576     24578     24573     24576     24579
     24574     24573     24575     24574     24573     24576     24575     24573     24576
     24576     24579     24580     24576     24579     24581     24576     24579     24582
     24577     24576     24578     24577     24576     24579     24578     24576     24579
     24579     24582     24583     24579     24582     24584     24579     24582     24585
     24580     24579     24581     24580     24579     24582     24581     24579     24582
     24582     24585     24586     24582     24585     24587     24582     24585     24588
     24583     24582     24584     24583     24582     24585     24584     24582     24585
     24585     24588     24589     24585     24588     24590     24585     24588     24591
     24586     24585     24587     24586     24585     24588     24587     24585     24588
     24588     24591     24592     24588     24591     24593     24588     24591     24594
     24589     24588     24590     24589     24588     24591     24590     24588     24591
     24591     24594     24595     24591     24594     24596     24591     24594     24597
     24592     24591     24593     24592     24591     24594     24593     24591     24594
     24594     24597     24598     24594     24597     24599     24594     24597     24600
     24595     24594     24596     24595     24594     24597     24596     24594     24597
     24598     24597     24599     24598     24597     24600     24599     24597     24600
     24601     24605     24606     24601     24605     24607     24601     24605     24608
     24602     24601     24603     24602     24601     24604     24602     24601     24605
     24603     24601     24604     24603     24601     24605     24604     24601     24605
     24605     24608     24609     24605     24608     24610     24605     24608     24615
     24606     24605     24607     24606     24605     24608     24607     24605     24608
     24608     24615     24611     24609     24608     24610     24609     24608     24615
     24610     24608     24615     24611     24614     24616     24612     24611     24613
     24612     24611     24614     24612     24611     24615     24613     24611     24614
     24613     24611     24615     24614     24611     24615     24614     24616     24617
     24614     24616     24618     24614     24616     24619     24616     24619     24620
     24616     24619     24621     24616     24619     24627     24617     24616     24618
     24617     24616     24619     24618     24616     24619     24619     24621     24622
     24619     24627     24628     24619     24627     24629     24619     24627     24630
     24620     24619     24621     24620     24619     24627     24621     24619     24627
     24621     24622     24623     24621     24622     24624     24622     24624     24625
     24622     24624     24626     24622     24624     24636     24623     24622     24624
     24624     24636     24637     24624     24636     24638     24624     24636     24639
     24625     24624     24626     24625     24624     24636     24626     24624     24636
     24627     24630     24631     24628     24627     24629     24628     24627     24630
     24629     24627     24630     24630     24631     24632     24630     24631     24633
     24631     24633     24634     24631     24633     24635     24631     24633     24683
     24632     24631     24633     24633     24683     24684     24633     24683     24685
     24633     24683     24686     24634     24633     24635     24634     24633     24683
     24635     24633     24683     24636     24639     24640     24636     24639     24641
     24636     24639     24642     24637     24636     24638     24637     24636     24639
     24638     24636     24639     24639     24642     24643     24639     24642     24644
     24639     24642     24645     24640     24639     24641     24640     24639     24642
     24641     24639     24642     24642     24645     24646     24642     24645     24647
     24642     24645     24648     24643     24642     24644     24643     24642     24645
     24644     24642     24645     24645     24648     24649     24645     24648     24650
     24645     24648     24651     24646     24645     24647     24646     24645     24648
     24647     24645     24648     24648     24651     24652     24648     24651     24653
     24648     24651     24654     24649     24648     24650     24649     24648     24651
     24650     24648     24651     24651     24654     24655     24651     24654     24656
     24652     24651     24653     24652     24651     24654     24653     24651     24654
     24654     24656     24657     24654     24656     24658     24655     24654     24656
     24656     24658     24659     24656     24658     24660     24656     24658     24661
     24657     24656     24658     24658     24661     24662     24658     24661     24663
     24658     24661     24664     24659     24658     24660     24659     24658     24661
     24660     24658     24661     24661     24664     24665     24661     24664     24666
     24661     24664     24667     24662     24661     24663     24662     24661     24664
     24663     24661     24664     24664     24667     24668     24664     24667     24669
     24664     24667     24670     24665     24664     24666     24665     24664     24667
     24666     24664     24667     24667     24670     24671     24667     24670     24672
     24667     24670     24673     24668     24667     24669     24668     24667     24670
     24669     24667     24670     24670     24673     24674     24670     24673     24675
     24670     24673     24676     24671     24670     24672     24671     24670     24673
     24672     24670     24673     24673     24676     24677     24673     24676     24678
     24673     24676     24679     24674     24673     24675     24674     24673     24676
     24675     24673     24676     24676     24679     24680     24676     24679     24681
     24676     24679     24682     24677     24676     24678     24677     24676     24679
     24678     24676     24679     24680     24679     24681     24680     24679     24682
     24681     24679     24682     24683     24686     24687     24683     24686     24688
     24683     24686     24689     24684     24683     24685     24684     24683     24686
     24685     24683     24686     24686     24689     24690     24686     24689     24691
     24686     24689     24692     24687     24686     24688     24687     24686     24689
     24688     24686     24689     24689     24692     24693     24689     24692     24694
     24689     24692     24695     24690     24689     24691     24690     24689     24692
     24691     24689     24692     24692     24695     24696     24692     24695     24697
     24692     24695     24698     24693     24692     24694     24693     24692     24695
     24694     24692     24695     24695     24698     24699     24695     24698     24700
     24695     24698     24701     24696     24695     24697     24696     24695     24698
     24697     24695     24698     24698     24701     24702     24698     24701     24703
     24698     24701     24704     24699     24698     24700     24699     24698     24701
     24700     24698     24701     24701     24704     24705     24701     24704     24706
     24701     24704     24707     24702     24701     24703     24702     24701     24704
     24703     24701     24704     24704     24707     24708     24704     24707     24709
     24704     24707     24710     24705     24704     24706     24705     24704     24707
     24706     24704     24707     24707     24710     24711     24707     24710     24712
     24707     24710     24713     24708     24707     24709     24708     24707     24710
     24709     24707     24710     24710     24713     24714     24710     24713     24715
     24710     24713     24716     24711     24710     24712     24711     24710     24713
     24712     24710     24713     24713     24716     24717     24713     24716     24718
     24713     24716     24719     24714     24713     24715     24714     24713     24716
     24715     24713     24716     24716     24719     24720     24716     24719     24721
     24716     24719     24722     24717     24716     24718     24717     24716     24719
     24718     24716     24719     24719     24722     24723     24719     24722     24724
     24719     24722     24725     24720     24719     24721     24720     24719     24722
     24721     24719     24722     24723     24722     24724     24723     24722     24725
     24724     24722     24725     24726     24730     24731     24726     24730     24732
     24726     24730     24733     24727     24726     24728     24727     24726     24729
     24727     24726     24730     24728     24726     24729     24728     24726     24730
     24729     24726     24730     24730     24733     24734     24730     24733     24735
     24730     24733     24740     24731     24730     24732     24731     24730     24733
     24732     24730     24733     24733     24740     24736     24734     24733     24735
     24734     24733     24740     24735     24733     24740     24736     24739     24741
     24737     24736     24738     24737     24736     24739     24737     24736     24740
     24738     24736     24739     24738     24736     24740     24739     24736     24740
     24739     24741     24742     24739     24741     24743     24739     24741     24744
     24741     24744     24745     24741     24744     24746     24741     24744     24752
     24742     24741     24743     24742     24741     24744     24743     24741     24744
     24744     24746     24747     24744     24752     24753     24744     24752     24754
     24744     24752     24755     24745     24744     24746     24745     24744     24752
     24746     24744     24752     24746     24747     24748     24746     24747     24749
     24747     24749     24750     24747     24749     24751     24747     24749     24761
     24748     24747     24749     24749     24761     24762     24749     24761     24763
     24749     24761     24764     24750     24749     24751     24750     24749     24761
     24751     24749     24761     24752     24755     24756     24753     24752     24754
     24753     24752     24755     24754     24752     24755     24755     24756     24757
     24755     24756     24758     24756     24758     24759     24756     24758     24760
     24756     24758     24808     24757     24756     24758     24758     24808     24809
     24758     24808     24810     24758     24808     24811     24759     24758     24760
     24759     24758     24808     24760     24758     24808     24761     24764     24765
     24761     24764     24766     24761     24764     24767     24762     24761     24763
     24762     24761     24764     24763     24761     24764     24764     24767     24768
     24764     24767     24769     24764     24767     24770     24765     24764     24766
     24765     24764     24767     24766     24764     24767     24767     24770     24771
     24767     24770     24772     24767     24770     24773     24768     24767     24769
     24768     24767     24770     24769     24767     24770     24770     24773     24774
     24770     24773     24775     24770     24773     24776     24771     24770     24772
     24771     24770     24773     24772     24770     24773     24773     24776     24777
     24773     24776     24778     24773     24776     24779     24774     24773     24775
     24774     24773     24776     24775     24773     24776     24776     24779     24780
     24776     24779     24781     24777     24776     24778     24777     24776     24779
     24778     24776     24779     24779     24781     24782     24779     24781     24783
     24780     24779     24781     24781     24783     24784     24781     24783     24785
     24781     24783     24786     24782     24781     24783     24783     24786     24787
     24783     24786     24788     24783     24786     24789     24784     24783     24785
     24784     24783     24786     24785     24783     24786     24786     24789     24790
     24786     24789     24791     24786     24789     24792     24787     24786     24788
     24787     24786     24789     24788     24786     24789     24789     24792     24793
     24789     24792     24794     24789     24792     24795     24790     24789     24791
     24790     24789     24792     24791     24789     24792     24792     24795     24796
     24792     24795     24797     24792     24795     24798     24793     24792     24794
     24793     24792     24795     24794     24792     24795     24795     24798     24799
     24795     24798     24800     24795     24798     24801     24796     24795     24797
     24796     24795     24798     24797     24795     24798     24798     24801     24802
     24798     24801     24803     24798     24801     24804     24799     24798     24800
     24799     24798     24801     24800     24798     24801     24801     24804     24805
     24801     24804     24806     24801     24804     24807     24802     24801     24803
     24802     24801     24804     24803     24801     24804     24805     24804     24806
     24805     24804     24807     24806     24804     24807     24808     24811     24812
     24808     24811     24813     24808     24811     24814     24809     24808     24810
     24809     24808     24811     24810     24808     24811     24811     24814     24815
     24811     24814     24816     24811     24814     24817     24812     24811     24813
     24812     24811     24814     24813     24811     24814     24814     24817     24818
     24814     24817     24819     24814     24817     24820     24815     24814     24816
     24815     24814     24817     24816     24814     24817     24817     24820     24821
     24817     24820     24822     24817     24820     24823     24818     24817     24819
     24818     24817     24820     24819     24817     24820     24820     24823     24824
     24820     24823     24825     24820     24823     24826     24821     24820     24822
     24821     24820     24823     24822     24820     24823     24823     24826     24827
     24823     24826     24828     24823     24826     24829     24824     24823     24825
     24824     24823     24826     24825     24823     24826     24826     24829     24830
     24826     24829     24831     24826     24829     24832     24827     24826     24828
     24827     24826     24829     24828     24826     24829     24829     24832     24833
     24829     24832     24834     24829     24832     24835     24830     24829     24831
     24830     24829     24832     24831     24829     24832     24832     24835     24836
     24832     24835     24837     24832     24835     24838     24833     24832     24834
     24833     24832     24835     24834     24832     24835     24835     24838     24839
     24835     24838     24840     24835     24838     24841     24836     24835     24837
     24836     24835     24838     24837     24835     24838     24838     24841     24842
     24838     24841     24843     24838     24841     24844     24839     24838     24840
     24839     24838     24841     24840     24838     24841     24841     24844     24845
     24841     24844     24846     24841     24844     24847     24842     24841     24843
     24842     24841     24844     24843     24841     24844     24844     24847     24848
     24844     24847     24849     24844     24847     24850     24845     24844     24846
     24845     24844     24847     24846     24844     24847     24848     24847     24849
     24848     24847     24850     24849     24847     24850     24851     24852     24853
     24851     24852     24854     24851     24852     24867     24851     24855     24856
     24851     24855     24857     24851     24855     24858     24851     24859     24860
     24851     24859     24861     24851     24859     24862     24851     24863     24864
     24851     24863     24865     24851     24863     24866     24852     24851     24855
     24852     24851     24859     24852     24851     24863     24852     24867     24868
     24852     24867     24869     24852     24867     24873     24853     24852     24854
     24853     24852     24867     24854     24852     24867     24855     24851     24859
     24855     24851     24863     24856     24855     24857     24856     24855     24858
     24857     24855     24858     24859     24851     24863     24860     24859     24861
     24860     24859     24862     24861     24859     24862     24864     24863     24865
     24864     24863     24866     24865     24863     24866     24867     24873     24870
     24868     24867     24869     24868     24867     24873     24869     24867     24873
     24870     24874     24875     24871     24870     24872     24871     24870     24873
     24871     24870     24874     24872     24870     24873     24872     24870     24874
     24873     24870     24874     24874     24875     24876     24874     24875     24877
     24874     24875     24878     24875     24878     24879     24875     24878     24880
     24875     24878     24886     24876     24875     24877     24876     24875     24878
     24877     24875     24878     24878     24880     24881     24878     24886     24887
     24878     24886     24888     24878     24886     24889     24879     24878     24880
     24879     24878     24886     24880     24878     24886     24880     24881     24882
     24880     24881     24883     24881     24883     24884     24881     24883     24885
     24881     24883     24895     24882     24881     24883     24883     24895     24896
     24883     24895     24897     24883     24895     24898     24884     24883     24885
     24884     24883     24895     24885     24883     24895     24886     24889     24890
     24887     24886     24888     24887     24886     24889     24888     24886     24889
     24889     24890     24891     24889     24890     24892     24890     24892     24893
     24890     24892     24894     24890     24892     24942     24891     24890     24892
     24892     24942     24943     24892     24942     24944     24892     24942     24945
     24893     24892     24894     24893     24892     24942     24894     24892     24942
     24895     24898     24899     24895     24898     24900     24895     24898     24901
     24896     24895     24897     24896     24895     24898     24897     24895     24898
     24898     24901     24902     24898     24901     24903     24898     24901     24904
     24899     24898     24900     24899     24898     24901     24900     24898     24901
     24901     24904     24905     24901     24904     24906     24901     24904     24907
     24902     24901     24903     24902     24901     24904     24903     24901     24904
     24904     24907     24908     24904     24907     24909     24904     24907     24910
     24905     24904     24906     24905     24904     24907     24906     24904     24907
     24907     24910     24911     24907     24910     24912     24907     24910     24913
     24908     24907     24909     24908     24907     24910     24909     24907     24910
     24910     24913     24914     24910     24913     24915     24911     24910     24912
     24911     24910     24913     24912     24910     24913     24913     24915     24916
     24913     24915     24917     24914     24913     24915     24915     24917     24918
     24915     24917     24919     24915     24917     24920     24916     24915     24917
     24917     24920     24921     24917     24920     24922     24917     24920     24923
     24918     24917     24919     24918     24917     24920     24919     24917     24920
     24920     24923     24924     24920     24923     24925     24920     24923     24926
     24921     24920     24922     24921     24920     24923     24922     24920     24923
     24923     24926     24927     24923     24926     24928     24923     24926     24929
     24924     24923     24925     24924     24923     24926     24925     24923     24926
     24926     24929     24930     24926     24929     24931     24926     24929     24932
     24927     24926     24928     24927     24926     24929     24928     24926     24929
     24929     24932     24933     24929     24932     24934     24929     24932     24935
     24930     24929     24931     24930     24929     24932     24931     24929     24932
     24932     24935     24936     24932     24935     24937     24932     24935     24938
     24933     24932     24934     24933     24932     24935     24934     24932     24935
     24935     24938     24939     24935     24938     24940     24935     24938     24941
     24936     24935     24937     24936     24935     24938     24937     24935     24938
     24939     24938     24940     24939     24938     24941     24940     24938     24941
     24942     24945     24946     24942     24945     24947     24942     24945     24948
     24943     24942     24944     24943     24942     24945     24944     24942     24945
     24945     24948     24949     24945     24948     24950     24945     24948     24951
     24946     24945     24947     24946     24945     24948     24947     24945     24948
     24948     24951     24952     24948     24951     24953     24948     24951     24954
     24949     24948     24950     24949     24948     24951     24950     24948     24951
     24951     24954     24955     24951     24954     24956     24951     24954     24957
     24952     24951     24953     24952     24951     24954     24953     24951     24954
     24954     24957     24958     24954     24957     24959     24954     24957     24960
     24955     24954     24956     24955     24954     24957     24956     24954     24957
     24957     24960     24961     24957     24960     24962     24957     24960     24963
     24958     24957     24959     24958     24957     24960     24959     24957     24960
     24960     24963     24964     24960     24963     24965     24960     24963     24966
     24961     24960     24962     24961     24960     24963     24962     24960     24963
     24963     24966     24967     24963     24966     24968     24963     24966     24969
     24964     24963     24965     24964     24963     24966     24965     24963     24966
     24966     24969     24970     24966     24969     24971     24966     24969     24972
     24967     24966     24968     24967     24966     24969     24968     24966     24969
     24969     24972     24973     24969     24972     24974     24969     24972     24975
     24970     24969     24971     24970     24969     24972     24971     24969     24972
     24972     24975     24976     24972     24975     24977     24972     24975     24978
     24973     24972     24974     24973     24972     24975     24974     24972     24975
     24975     24978     24979     24975     24978     24980     24975     24978     24981
     24976     24975     24977     24976     24975     24978     24977     24975     24978
     24978     24981     24982     24978     24981     24983     24978     24981     24984
     24979     24978     24980     24979     24978     24981     24980     24978     24981
     24982     24981     24983     24982     24981     24984     24983     24981     24984
     24985     24986     24987     24985     24986     24988     24985     24986     25001
     24985     24989     24990     24985     24989     24991     24985     24989     24992
     24985     24993     24994     24985     24993     24995     24985     24993     24996
     24985     24997     24998     24985     24997     24999     24985     24997     25000
     24986     24985     24989     24986     24985     24993     24986     24985     24997
     24986     25001     25002     24986     25001     25003     24986     25001     25007
     24987     24986     24988     24987     24986     25001     24988     24986     25001
     24989     24985     24993     24989     24985     24997     24990     24989     24991
     24990     24989     24992     24991     24989     24992     24993     24985     24997
     24994     24993     24995     24994     24993     24996     24995     24993     24996
     24998     24997     24999     24998     24997     25000     24999     24997     25000
     25001     25007     25004     25002     25001     25003     25002     25001     25007
     25003     25001     25007     25004     25008     25009     25005     25004     25006
     25005     25004     25007     25005     25004     25008     25006     25004     25007
     25006     25004     25008     25007     25004     25008     25008     25009     25010
     25008     25009     25011     25008     25009     25012     25009     25012     25013
     25009     25012     25014     25009     25012     25020     25010     25009     25011
     25010     25009     25012     25011     25009     25012     25012     25014     25015
     25012     25020     25021     25012     25020     25022     25012     25020     25023
     25013     25012     25014     25013     25012     25020     25014     25012     25020
     25014     25015     25016     25014     25015     25017     25015     25017     25018
     25015     25017     25019     25015     25017     25029     25016     25015     25017
     25017     25029     25030     25017     25029     25031     25017     25029     25032
     25018     25017     25019     25018     25017     25029     25019     25017     25029
     25020     25023     25024     25021     25020     25022     25021     25020     25023
     25022     25020     25023     25023     25024     25025     25023     25024     25026
     25024     25026     25027     25024     25026     25028     25024     25026     25076
     25025     25024     25026     25026     25076     25077     25026     25076     25078
     25026     25076     25079     25027     25026     25028     25027     25026     25076
     25028     25026     25076     25029     25032     25033     25029     25032     25034
     25029     25032     25035     25030     25029     25031     25030     25029     25032
     25031     25029     25032     25032     25035     25036     25032     25035     25037
     25032     25035     25038     25033     25032     25034     25033     25032     25035
     25034     25032     25035     25035     25038     25039     25035     25038     25040
     25035     25038     25041     25036     25035     25037     25036     25035     25038
     25037     25035     25038     25038     25041     25042     25038     25041     25043
     25038     25041     25044     25039     25038     25040     25039     25038     25041
     25040     25038     25041     25041     25044     25045     25041     25044     25046
     25041     25044     25047     25042     25041     25043     25042     25041     25044
     25043     25041     25044     25044     25047     25048     25044     25047     25049
     25045     25044     25046     25045     25044     25047     25046     25044     25047
     25047     25049     25050     25047     25049     25051     25048     25047     25049
     25049     25051     25052     25049     25051     25053     25049     25051     25054
     25050     25049     25051     25051     25054     25055     25051     25054     25056
     25051     25054     25057     25052     25051     25053     25052     25051     25054
     25053     25051     25054     25054     25057     25058     25054     25057     25059
     25054     25057     25060     25055     25054     25056     25055     25054     25057
     25056     25054     25057     25057     25060     25061     25057     25060     25062
     25057     25060     25063     25058     25057     25059     25058     25057     25060
     25059     25057     25060     25060     25063     25064     25060     25063     25065
     25060     25063     25066     25061     25060     25062     25061     25060     25063
     25062     25060     25063     25063     25066     25067     25063     25066     25068
     25063     25066     25069     25064     25063     25065     25064     25063     25066
     25065     25063     25066     25066     25069     25070     25066     25069     25071
     25066     25069     25072     25067     25066     25068     25067     25066     25069
     25068     25066     25069     25069     25072     25073     25069     25072     25074
     25069     25072     25075     25070     25069     25071     25070     25069     25072
     25071     25069     25072     25073     25072     25074     25073     25072     25075
     25074     25072     25075     25076     25079     25080     25076     25079     25081
     25076     25079     25082     25077     25076     25078     25077     25076     25079
     25078     25076     25079     25079     25082     25083     25079     25082     25084
     25079     25082     25085     25080     25079     25081     25080     25079     25082
     25081     25079     25082     25082     25085     25086     25082     25085     25087
     25082     25085     25088     25083     25082     25084     25083     25082     25085
     25084     25082     25085     25085     25088     25089     25085     25088     25090
     25085     25088     25091     25086     25085     25087     25086     25085     25088
     25087     25085     25088     25088     25091     25092     25088     25091     25093
     25088     25091     25094     25089     25088     25090     25089     25088     25091
     25090     25088     25091     25091     25094     25095     25091     25094     25096
     25091     25094     25097     25092     25091     25093     25092     25091     25094
     25093     25091     25094     25094     25097     25098     25094     25097     25099
     25094     25097     25100     25095     25094     25096     25095     25094     25097
     25096     25094     25097     25097     25100     25101     25097     25100     25102
     25097     25100     25103     25098     25097     25099     25098     25097     25100
     25099     25097     25100     25100     25103     25104     25100     25103     25105
     25100     25103     25106     25101     25100     25102     25101     25100     25103
     25102     25100     25103     25103     25106     25107     25103     25106     25108
     25103     25106     25109     25104     25103     25105     25104     25103     25106
     25105     25103     25106     25106     25109     25110     25106     25109     25111
     25106     25109     25112     25107     25106     25108     25107     25106     25109
     25108     25106     25109     25109     25112     25113     25109     25112     25114
     25109     25112     25115     25110     25109     25111     25110     25109     25112
     25111     25109     25112     25112     25115     25116     25112     25115     25117
     25112     25115     25118     25113     25112     25114     25113     25112     25115
     25114     25112     25115     25116     25115     25117     25116     25115     25118
     25117     25115     25118     25119     25123     25124     25119     25123     25125
     25119     25123     25126     25120     25119     25121     25120     25119     25122
     25120     25119     25123     25121     25119     25122     25121     25119     25123
     25122     25119     25123     25123     25126     25127     25123     25126     25128
     25123     25126     25133     25124     25123     25125     25124     25123     25126
     25125     25123     25126     25126     25133     25129     25127     25126     25128
     25127     25126     25133     25128     25126     25133     25129     25132     25134
     25130     25129     25131     25130     25129     25132     25130     25129     25133
     25131     25129     25132     25131     25129     25133     25132     25129     25133
     25132     25134     25135     25132     25134     25136     25132     25134     25137
     25134     25137     25138     25134     25137     25139     25134     25137     25145
     25135     25134     25136     25135     25134     25137     25136     25134     25137
     25137     25139     25140     25137     25145     25146     25137     25145     25147
     25137     25145     25148     25138     25137     25139     25138     25137     25145
     25139     25137     25145     25139     25140     25141     25139     25140     25142
     25140     25142     25143     25140     25142     25144     25140     25142     25154
     25141     25140     25142     25142     25154     25155     25142     25154     25156
     25142     25154     25157     25143     25142     25144     25143     25142     25154
     25144     25142     25154     25145     25148     25149     25146     25145     25147
     25146     25145     25148     25147     25145     25148     25148     25149     25150
     25148     25149     25151     25149     25151     25152     25149     25151     25153
     25149     25151     25201     25150     25149     25151     25151     25201     25202
     25151     25201     25203     25151     25201     25204     25152     25151     25153
     25152     25151     25201     25153     25151     25201     25154     25157     25158
     25154     25157     25159     25154     25157     25160     25155     25154     25156
     25155     25154     25157     25156     25154     25157     25157     25160     25161
     25157     25160     25162     25157     25160     25163     25158     25157     25159
     25158     25157     25160     25159     25157     25160     25160     25163     25164
     25160     25163     25165     25160     25163     25166     25161     25160     25162
     25161     25160     25163     25162     25160     25163     25163     25166     25167
     25163     25166     25168     25163     25166     25169     25164     25163     25165
     25164     25163     25166     25165     25163     25166     25166     25169     25170
     25166     25169     25171     25166     25169     25172     25167     25166     25168
     25167     25166     25169     25168     25166     25169     25169     25172     25173
     25169     25172     25174     25170     25169     25171     25170     25169     25172
     25171     25169     25172     25172     25174     25175     25172     25174     25176
     25173     25172     25174     25174     25176     25177     25174     25176     25178
     25174     25176     25179     25175     25174     25176     25176     25179     25180
     25176     25179     25181     25176     25179     25182     25177     25176     25178
     25177     25176     25179     25178     25176     25179     25179     25182     25183
     25179     25182     25184     25179     25182     25185     25180     25179     25181
     25180     25179     25182     25181     25179     25182     25182     25185     25186
     25182     25185     25187     25182     25185     25188     25183     25182     25184
     25183     25182     25185     25184     25182     25185     25185     25188     25189
     25185     25188     25190     25185     25188     25191     25186     25185     25187
     25186     25185     25188     25187     25185     25188     25188     25191     25192
     25188     25191     25193     25188     25191     25194     25189     25188     25190
     25189     25188     25191     25190     25188     25191     25191     25194     25195
     25191     25194     25196     25191     25194     25197     25192     25191     25193
     25192     25191     25194     25193     25191     25194     25194     25197     25198
     25194     25197     25199     25194     25197     25200     25195     25194     25196
     25195     25194     25197     25196     25194     25197     25198     25197     25199
     25198     25197     25200     25199     25197     25200     25201     25204     25205
     25201     25204     25206     25201     25204     25207     25202     25201     25203
     25202     25201     25204     25203     25201     25204     25204     25207     25208
     25204     25207     25209     25204     25207     25210     25205     25204     25206
     25205     25204     25207     25206     25204     25207     25207     25210     25211
     25207     25210     25212     25207     25210     25213     25208     25207     25209
     25208     25207     25210     25209     25207     25210     25210     25213     25214
     25210     25213     25215     25210     25213     25216     25211     25210     25212
     25211     25210     25213     25212     25210     25213     25213     25216     25217
     25213     25216     25218     25213     25216     25219     25214     25213     25215
     25214     25213     25216     25215     25213     25216     25216     25219     25220
     25216     25219     25221     25216     25219     25222     25217     25216     25218
     25217     25216     25219     25218     25216     25219     25219     25222     25223
     25219     25222     25224     25219     25222     25225     25220     25219     25221
     25220     25219     25222     25221     25219     25222     25222     25225     25226
     25222     25225     25227     25222     25225     25228     25223     25222     25224
     25223     25222     25225     25224     25222     25225     25225     25228     25229
     25225     25228     25230     25225     25228     25231     25226     25225     25227
     25226     25225     25228     25227     25225     25228     25228     25231     25232
     25228     25231     25233     25228     25231     25234     25229     25228     25230
     25229     25228     25231     25230     25228     25231     25231     25234     25235
     25231     25234     25236     25231     25234     25237     25232     25231     25233
     25232     25231     25234     25233     25231     25234     25234     25237     25238
     25234     25237     25239     25234     25237     25240     25235     25234     25236
     25235     25234     25237     25236     25234     25237     25237     25240     25241
     25237     25240     25242     25237     25240     25243     25238     25237     25239
     25238     25237     25240     25239     25237     25240     25241     25240     25242
     25241     25240     25243     25242     25240     25243     25244     25245     25246
     25244     25245     25247     25244     25245     25260     25244     25248     25249
     25244     25248     25250     25244     25248     25251     25244     25252     25253
     25244     25252     25254     25244     25252     25255     25244     25256     25257
     25244     25256     25258     25244     25256     25259     25245     25244     25248
     25245     25244     25252     25245     25244     25256     25245     25260     25261
     25245     25260     25262     25245     25260     25266     25246     25245     25247
     25246     25245     25260     25247     25245     25260     25248     25244     25252
     25248     25244     25256     25249     25248     25250     25249     25248     25251
     25250     25248     25251     25252     25244     25256     25253     25252     25254
     25253     25252     25255     25254     25252     25255     25257     25256     25258
     25257     25256     25259     25258     25256     25259     25260     25266     25263
     25261     25260     25262     25261     25260     25266     25262     25260     25266
     25263     25267     25268     25264     25263     25265     25264     25263     25266
     25264     25263     25267     25265     25263     25266     25265     25263     25267
     25266     25263     25267     25267     25268     25269     25267     25268     25270
     25267     25268     25271     25268     25271     25272     25268     25271     25273
     25268     25271     25279     25269     25268     25270     25269     25268     25271
     25270     25268     25271     25271     25273     25274     25271     25279     25280
     25271     25279     25281     25271     25279     25282     25272     25271     25273
     25272     25271     25279     25273     25271     25279     25273     25274     25275
     25273     25274     25276     25274     25276     25277     25274     25276     25278
     25274     25276     25288     25275     25274     25276     25276     25288     25289
     25276     25288     25290     25276     25288     25291     25277     25276     25278
     25277     25276     25288     25278     25276     25288     25279     25282     25283
     25280     25279     25281     25280     25279     25282     25281     25279     25282
     25282     25283     25284     25282     25283     25285     25283     25285     25286
     25283     25285     25287     25283     25285     25335     25284     25283     25285
     25285     25335     25336     25285     25335     25337     25285     25335     25338
     25286     25285     25287     25286     25285     25335     25287     25285     25335
     25288     25291     25292     25288     25291     25293     25288     25291     25294
     25289     25288     25290     25289     25288     25291     25290     25288     25291
     25291     25294     25295     25291     25294     25296     25291     25294     25297
     25292     25291     25293     25292     25291     25294     25293     25291     25294
     25294     25297     25298     25294     25297     25299     25294     25297     25300
     25295     25294     25296     25295     25294     25297     25296     25294     25297
     25297     25300     25301     25297     25300     25302     25297     25300     25303
     25298     25297     25299     25298     25297     25300     25299     25297     25300
     25300     25303     25304     25300     25303     25305     25300     25303     25306
     25301     25300     25302     25301     25300     25303     25302     25300     25303
     25303     25306     25307     25303     25306     25308     25304     25303     25305
     25304     25303     25306     25305     25303     25306     25306     25308     25309
     25306     25308     25310     25307     25306     25308     25308     25310     25311
     25308     25310     25312     25308     25310     25313     25309     25308     25310
     25310     25313     25314     25310     25313     25315     25310     25313     25316
     25311     25310     25312     25311     25310     25313     25312     25310     25313
     25313     25316     25317     25313     25316     25318     25313     25316     25319
     25314     25313     25315     25314     25313     25316     25315     25313     25316
     25316     25319     25320     25316     25319     25321     25316     25319     25322
     25317     25316     25318     25317     25316     25319     25318     25316     25319
     25319     25322     25323     25319     25322     25324     25319     25322     25325
     25320     25319     25321     25320     25319     25322     25321     25319     25322
     25322     25325     25326     25322     25325     25327     25322     25325     25328
     25323     25322     25324     25323     25322     25325     25324     25322     25325
     25325     25328     25329     25325     25328     25330     25325     25328     25331
     25326     25325     25327     25326     25325     25328     25327     25325     25328
     25328     25331     25332     25328     25331     25333     25328     25331     25334
     25329     25328     25330     25329     25328     25331     25330     25328     25331
     25332     25331     25333     25332     25331     25334     25333     25331     25334
     25335     25338     25339     25335     25338     25340     25335     25338     25341
     25336     25335     25337     25336     25335     25338     25337     25335     25338
     25338     25341     25342     25338     25341     25343     25338     25341     25344
     25339     25338     25340     25339     25338     25341     25340     25338     25341
     25341     25344     25345     25341     25344     25346     25341     25344     25347
     25342     25341     25343     25342     25341     25344     25343     25341     25344
     25344     25347     25348     25344     25347     25349     25344     25347     25350
     25345     25344     25346     25345     25344     25347     25346     25344     25347
     25347     25350     25351     25347     25350     25352     25347     25350     25353
     25348     25347     25349     25348     25347     25350     25349     25347     25350
     25350     25353     25354     25350     25353     25355     25350     25353     25356
     25351     25350     25352     25351     25350     25353     25352     25350     25353
     25353     25356     25357     25353     25356     25358     25353     25356     25359
     25354     25353     25355     25354     25353     25356     25355     25353     25356
     25356     25359     25360     25356     25359     25361     25356     25359     25362
     25357     25356     25358     25357     25356     25359     25358     25356     25359
     25359     25362     25363     25359     25362     25364     25359     25362     25365
     25360     25359     25361     25360     25359     25362     25361     25359     25362
     25362     25365     25366     25362     25365     25367     25362     25365     25368
     25363     25362     25364     25363     25362     25365     25364     25362     25365
     25365     25368     25369     25365     25368     25370     25365     25368     25371
     25366     25365     25367     25366     25365     25368     25367     25365     25368
     25368     25371     25372     25368     25371     25373     25368     25371     25374
     25369     25368     25370     25369     25368     25371     25370     25368     25371
     25371     25374     25375     25371     25374     25376     25371     25374     25377
     25372     25371     25373     25372     25371     25374     25373     25371     25374
     25375     25374     25376     25375     25374     25377     25376     25374     25377
     25378     25382     25383     25378     25382     25384     25378     25382     25385
     25379     25378     25380     25379     25378     25381     25379     25378     25382
     25380     25378     25381     25380     25378     25382     25381     25378     25382
     25382     25385     25386     25382     25385     25387     25382     25385     25392
     25383     25382     25384     25383     25382     25385     25384     25382     25385
     25385     25392     25388     25386     25385     25387     25386     25385     25392
     25387     25385     25392     25388     25391     25393     25389     25388     25390
     25389     25388     25391     25389     25388     25392     25390     25388     25391
     25390     25388     25392     25391     25388     25392     25391     25393     25394
     25391     25393     25395     25391     25393     25396     25393     25396     25397
     25393     25396     25398     25393     25396     25404     25394     25393     25395
     25394     25393     25396     25395     25393     25396     25396     25398     25399
     25396     25404     25405     25396     25404     25406     25396     25404     25407
     25397     25396     25398     25397     25396     25404     25398     25396     25404
     25398     25399     25400     25398     25399     25401     25399     25401     25402
     25399     25401     25403     25399     25401     25413     25400     25399     25401
     25401     25413     25414     25401     25413     25415     25401     25413     25416
     25402     25401     25403     25402     25401     25413     25403     25401     25413
     25404     25407     25408     25405     25404     25406     25405     25404     25407
     25406     25404     25407     25407     25408     25409     25407     25408     25410
     25408     25410     25411     25408     25410     25412     25408     25410     25460
     25409     25408     25410     25410     25460     25461     25410     25460     25462
     25410     25460     25463     25411     25410     25412     25411     25410     25460
     25412     25410     25460     25413     25416     25417     25413     25416     25418
     25413     25416     25419     25414     25413     25415     25414     25413     25416
     25415     25413     25416     25416     25419     25420     25416     25419     25421
     25416     25419     25422     25417     25416     25418     25417     25416     25419
     25418     25416     25419     25419     25422     25423     25419     25422     25424
     25419     25422     25425     25420     25419     25421     25420     25419     25422
     25421     25419     25422     25422     25425     25426     25422     25425     25427
     25422     25425     25428     25423     25422     25424     25423     25422     25425
     25424     25422     25425     25425     25428     25429     25425     25428     25430
     25425     25428     25431     25426     25425     25427     25426     25425     25428
     25427     25425     25428     25428     25431     25432     25428     25431     25433
     25429     25428     25430     25429     25428     25431     25430     25428     25431
     25431     25433     25434     25431     25433     25435     25432     25431     25433
     25433     25435     25436     25433     25435     25437     25433     25435     25438
     25434     25433     25435     25435     25438     25439     25435     25438     25440
     25435     25438     25441     25436     25435     25437     25436     25435     25438
     25437     25435     25438     25438     25441     25442     25438     25441     25443
     25438     25441     25444     25439     25438     25440     25439     25438     25441
     25440     25438     25441     25441     25444     25445     25441     25444     25446
     25441     25444     25447     25442     25441     25443     25442     25441     25444
     25443     25441     25444     25444     25447     25448     25444     25447     25449
     25444     25447     25450     25445     25444     25446     25445     25444     25447
     25446     25444     25447     25447     25450     25451     25447     25450     25452
     25447     25450     25453     25448     25447     25449     25448     25447     25450
     25449     25447     25450     25450     25453     25454     25450     25453     25455
     25450     25453     25456     25451     25450     25452     25451     25450     25453
     25452     25450     25453     25453     25456     25457     25453     25456     25458
     25453     25456     25459     25454     25453     25455     25454     25453     25456
     25455     25453     25456     25457     25456     25458     25457     25456     25459
     25458     25456     25459     25460     25463     25464     25460     25463     25465
     25460     25463     25466     25461     25460     25462     25461     25460     25463
     25462     25460     25463     25463     25466     25467     25463     25466     25468
     25463     25466     25469     25464     25463     25465     25464     25463     25466
     25465     25463     25466     25466     25469     25470     25466     25469     25471
     25466     25469     25472     25467     25466     25468     25467     25466     25469
     25468     25466     25469     25469     25472     25473     25469     25472     25474
     25469     25472     25475     25470     25469     25471     25470     25469     25472
     25471     25469     25472     25472     25475     25476     25472     25475     25477
     25472     25475     25478     25473     25472     25474     25473     25472     25475
     25474     25472     25475     25475     25478     25479     25475     25478     25480
     25475     25478     25481     25476     25475     25477     25476     25475     25478
     25477     25475     25478     25478     25481     25482     25478     25481     25483
     25478     25481     25484     25479     25478     25480     25479     25478     25481
     25480     25478     25481     25481     25484     25485     25481     25484     25486
     25481     25484     25487     25482     25481     25483     25482     25481     25484
     25483     25481     25484     25484     25487     25488     25484     25487     25489
     25484     25487     25490     25485     25484     25486     25485     25484     25487
     25486     25484     25487     25487     25490     25491     25487     25490     25492
     25487     25490     25493     25488     25487     25489     25488     25487     25490
     25489     25487     25490     25490     25493     25494     25490     25493     25495
     25490     25493     25496     25491     25490     25492     25491     25490     25493
     25492     25490     25493     25493     25496     25497     25493     25496     25498
     25493     25496     25499     25494     25493     25495     25494     25493     25496
     25495     25493     25496     25496     25499     25500     25496     25499     25501
     25496     25499     25502     25497     25496     25498     25497     25496     25499
     25498     25496     25499     25500     25499     25501     25500     25499     25502
     25501     25499     25502     25503     25504     25505     25503     25504     25506
     25503     25504     25519     25503     25507     25508     25503     25507     25509
     25503     25507     25510     25503     25511     25512     25503     25511     25513
     25503     25511     25514     25503     25515     25516     25503     25515     25517
     25503     25515     25518     25504     25503     25507     25504     25503     25511
     25504     25503     25515     25504     25519     25520     25504     25519     25521
     25504     25519     25525     25505     25504     25506     25505     25504     25519
     25506     25504     25519     25507     25503     25511     25507     25503     25515
     25508     25507     25509     25508     25507     25510     25509     25507     25510
     25511     25503     25515     25512     25511     25513     25512     25511     25514
     25513     25511     25514     25516     25515     25517     25516     25515     25518
     25517     25515     25518     25519     25525     25522     25520     25519     25521
     25520     25519     25525     25521     25519     25525     25522     25526     25527
     25523     25522     25524     25523     25522     25525     25523     25522     25526
     25524     25522     25525     25524     25522     25526     25525     25522     25526
     25526     25527     25528     25526     25527     25529     25526     25527     25530
     25527     25530     25531     25527     25530     25532     25527     25530     25538
     25528     25527     25529     25528     25527     25530     25529     25527     25530
     25530     25532     25533     25530     25538     25539     25530     25538     25540
     25530     25538     25541     25531     25530     25532     25531     25530     25538
     25532     25530     25538     25532     25533     25534     25532     25533     25535
     25533     25535     25536     25533     25535     25537     25533     25535     25547
     25534     25533     25535     25535     25547     25548     25535     25547     25549
     25535     25547     25550     25536     25535     25537     25536     25535     25547
     25537     25535     25547     25538     25541     25542     25539     25538     25540
     25539     25538     25541     25540     25538     25541     25541     25542     25543
     25541     25542     25544     25542     25544     25545     25542     25544     25546
     25542     25544     25594     25543     25542     25544     25544     25594     25595
     25544     25594     25596     25544     25594     25597     25545     25544     25546
     25545     25544     25594     25546     25544     25594     25547     25550     25551
     25547     25550     25552     25547     25550     25553     25548     25547     25549
     25548     25547     25550     25549     25547     25550     25550     25553     25554
     25550     25553     25555     25550     25553     25556     25551     25550     25552
     25551     25550     25553     25552     25550     25553     25553     25556     25557
     25553     25556     25558     25553     25556     25559     25554     25553     25555
     25554     25553     25556     25555     25553     25556     25556     25559     25560
     25556     25559     25561     25556     25559     25562     25557     25556     25558
     25557     25556     25559     25558     25556     25559     25559     25562     25563
     25559     25562     25564     25559     25562     25565     25560     25559     25561
     25560     25559     25562     25561     25559     25562     25562     25565     25566
     25562     25565     25567     25563     25562     25564     25563     25562     25565
     25564     25562     25565     25565     25567     25568     25565     25567     25569
     25566     25565     25567     25567     25569     25570     25567     25569     25571
     25567     25569     25572     25568     25567     25569     25569     25572     25573
     25569     25572     25574     25569     25572     25575     25570     25569     25571
     25570     25569     25572     25571     25569     25572     25572     25575     25576
     25572     25575     25577     25572     25575     25578     25573     25572     25574
     25573     25572     25575     25574     25572     25575     25575     25578     25579
     25575     25578     25580     25575     25578     25581     25576     25575     25577
     25576     25575     25578     25577     25575     25578     25578     25581     25582
     25578     25581     25583     25578     25581     25584     25579     25578     25580
     25579     25578     25581     25580     25578     25581     25581     25584     25585
     25581     25584     25586     25581     25584     25587     25582     25581     25583
     25582     25581     25584     25583     25581     25584     25584     25587     25588
     25584     25587     25589     25584     25587     25590     25585     25584     25586
     25585     25584     25587     25586     25584     25587     25587     25590     25591
     25587     25590     25592     25587     25590     25593     25588     25587     25589
     25588     25587     25590     25589     25587     25590     25591     25590     25592
     25591     25590     25593     25592     25590     25593     25594     25597     25598
     25594     25597     25599     25594     25597     25600     25595     25594     25596
     25595     25594     25597     25596     25594     25597     25597     25600     25601
     25597     25600     25602     25597     25600     25603     25598     25597     25599
     25598     25597     25600     25599     25597     25600     25600     25603     25604
     25600     25603     25605     25600     25603     25606     25601     25600     25602
     25601     25600     25603     25602     25600     25603     25603     25606     25607
     25603     25606     25608     25603     25606     25609     25604     25603     25605
     25604     25603     25606     25605     25603     25606     25606     25609     25610
     25606     25609     25611     25606     25609     25612     25607     25606     25608
     25607     25606     25609     25608     25606     25609     25609     25612     25613
     25609     25612     25614     25609     25612     25615     25610     25609     25611
     25610     25609     25612     25611     25609     25612     25612     25615     25616
     25612     25615     25617     25612     25615     25618     25613     25612     25614
     25613     25612     25615     25614     25612     25615     25615     25618     25619
     25615     25618     25620     25615     25618     25621     25616     25615     25617
     25616     25615     25618     25617     25615     25618     25618     25621     25622
     25618     25621     25623     25618     25621     25624     25619     25618     25620
     25619     25618     25621     25620     25618     25621     25621     25624     25625
     25621     25624     25626     25621     25624     25627     25622     25621     25623
     25622     25621     25624     25623     25621     25624     25624     25627     25628
     25624     25627     25629     25624     25627     25630     25625     25624     25626
     25625     25624     25627     25626     25624     25627     25627     25630     25631
     25627     25630     25632     25627     25630     25633     25628     25627     25629
     25628     25627     25630     25629     25627     25630     25630     25633     25634
     25630     25633     25635     25630     25633     25636     25631     25630     25632
     25631     25630     25633     25632     25630     25633     25634     25633     25635
     25634     25633     25636     25635     25633     25636     25637     25638     25639
     25637     25638     25640     25637     25638     25653     25637     25641     25642
     25637     25641     25643     25637     25641     25644     25637     25645     25646
     25637     25645     25647     25637     25645     25648     25637     25649     25650
     25637     25649     25651     25637     25649     25652     25638     25637     25641
     25638     25637     25645     25638     25637     25649     25638     25653     25654
     25638     25653     25655     25638     25653     25659     25639     25638     25640
     25639     25638     25653     25640     25638     25653     25641     25637     25645
     25641     25637     25649     25642     25641     25643     25642     25641     25644
     25643     25641     25644     25645     25637     25649     25646     25645     25647
     25646     25645     25648     25647     25645     25648     25650     25649     25651
     25650     25649     25652     25651     25649     25652     25653     25659     25656
     25654     25653     25655     25654     25653     25659     25655     25653     25659
     25656     25660     25661     25657     25656     25658     25657     25656     25659
     25657     25656     25660     25658     25656     25659     25658     25656     25660
     25659     25656     25660     25660     25661     25662     25660     25661     25663
     25660     25661     25664     25661     25664     25665     25661     25664     25666
     25661     25664     25672     25662     25661     25663     25662     25661     25664
     25663     25661     25664     25664     25666     25667     25664     25672     25673
     25664     25672     25674     25664     25672     25675     25665     25664     25666
     25665     25664     25672     25666     25664     25672     25666     25667     25668
     25666     25667     25669     25667     25669     25670     25667     25669     25671
     25667     25669     25681     25668     25667     25669     25669     25681     25682
     25669     25681     25683     25669     25681     25684     25670     25669     25671
     25670     25669     25681     25671     25669     25681     25672     25675     25676
     25673     25672     25674     25673     25672     25675     25674     25672     25675
     25675     25676     25677     25675     25676     25678     25676     25678     25679
     25676     25678     25680     25676     25678     25728     25677     25676     25678
     25678     25728     25729     25678     25728     25730     25678     25728     25731
     25679     25678     25680     25679     25678     25728     25680     25678     25728
     25681     25684     25685     25681     25684     25686     25681     25684     25687
     25682     25681     25683     25682     25681     25684     25683     25681     25684
     25684     25687     25688     25684     25687     25689     25684     25687     25690
     25685     25684     25686     25685     25684     25687     25686     25684     25687
     25687     25690     25691     25687     25690     25692     25687     25690     25693
     25688     25687     25689     25688     25687     25690     25689     25687     25690
     25690     25693     25694     25690     25693     25695     25690     25693     25696
     25691     25690     25692     25691     25690     25693     25692     25690     25693
     25693     25696     25697     25693     25696     25698     25693     25696     25699
     25694     25693     25695     25694     25693     25696     25695     25693     25696
     25696     25699     25700     25696     25699     25701     25697     25696     25698
     25697     25696     25699     25698     25696     25699     25699     25701     25702
     25699     25701     25703     25700     25699     25701     25701     25703     25704
     25701     25703     25705     25701     25703     25706     25702     25701     25703
     25703     25706     25707     25703     25706     25708     25703     25706     25709
     25704     25703     25705     25704     25703     25706     25705     25703     25706
     25706     25709     25710     25706     25709     25711     25706     25709     25712
     25707     25706     25708     25707     25706     25709     25708     25706     25709
     25709     25712     25713     25709     25712     25714     25709     25712     25715
     25710     25709     25711     25710     25709     25712     25711     25709     25712
     25712     25715     25716     25712     25715     25717     25712     25715     25718
     25713     25712     25714     25713     25712     25715     25714     25712     25715
     25715     25718     25719     25715     25718     25720     25715     25718     25721
     25716     25715     25717     25716     25715     25718     25717     25715     25718
     25718     25721     25722     25718     25721     25723     25718     25721     25724
     25719     25718     25720     25719     25718     25721     25720     25718     25721
     25721     25724     25725     25721     25724     25726     25721     25724     25727
     25722     25721     25723     25722     25721     25724     25723     25721     25724
     25725     25724     25726     25725     25724     25727     25726     25724     25727
     25728     25731     25732     25728     25731     25733     25728     25731     25734
     25729     25728     25730     25729     25728     25731     25730     25728     25731
     25731     25734     25735     25731     25734     25736     25731     25734     25737
     25732     25731     25733     25732     25731     25734     25733     25731     25734
     25734     25737     25738     25734     25737     25739     25734     25737     25740
     25735     25734     25736     25735     25734     25737     25736     25734     25737
     25737     25740     25741     25737     25740     25742     25737     25740     25743
     25738     25737     25739     25738     25737     25740     25739     25737     25740
     25740     25743     25744     25740     25743     25745     25740     25743     25746
     25741     25740     25742     25741     25740     25743     25742     25740     25743
     25743     25746     25747     25743     25746     25748     25743     25746     25749
     25744     25743     25745     25744     25743     25746     25745     25743     25746
     25746     25749     25750     25746     25749     25751     25746     25749     25752
     25747     25746     25748     25747     25746     25749     25748     25746     25749
     25749     25752     25753     25749     25752     25754     25749     25752     25755
     25750     25749     25751     25750     25749     25752     25751     25749     25752
     25752     25755     25756     25752     25755     25757     25752     25755     25758
     25753     25752     25754     25753     25752     25755     25754     25752     25755
     25755     25758     25759     25755     25758     25760     25755     25758     25761
     25756     25755     25757     25756     25755     25758     25757     25755     25758
     25758     25761     25762     25758     25761     25763     25758     25761     25764
     25759     25758     25760     25759     25758     25761     25760     25758     25761
     25761     25764     25765     25761     25764     25766     25761     25764     25767
     25762     25761     25763     25762     25761     25764     25763     25761     25764
     25764     25767     25768     25764     25767     25769     25764     25767     25770
     25765     25764     25766     25765     25764     25767     25766     25764     25767
     25768     25767     25769     25768     25767     25770     25769     25767     25770
     25771     25775     25776     25771     25775     25777     25771     25775     25778
     25772     25771     25773     25772     25771     25774     25772     25771     25775
     25773     25771     25774     25773     25771     25775     25774     25771     25775
     25775     25778     25779     25775     25778     25780     25775     25778     25785
     25776     25775     25777     25776     25775     25778     25777     25775     25778
     25778     25785     25781     25779     25778     25780     25779     25778     25785
     25780     25778     25785     25781     25784     25786     25782     25781     25783
     25782     25781     25784     25782     25781     25785     25783     25781     25784
     25783     25781     25785     25784     25781     25785     25784     25786     25787
     25784     25786     25788     25784     25786     25789     25786     25789     25790
     25786     25789     25791     25786     25789     25797     25787     25786     25788
     25787     25786     25789     25788     25786     25789     25789     25791     25792
     25789     25797     25798     25789     25797     25799     25789     25797     25800
     25790     25789     25791     25790     25789     25797     25791     25789     25797
     25791     25792     25793     25791     25792     25794     25792     25794     25795
     25792     25794     25796     25792     25794     25806     25793     25792     25794
     25794     25806     25807     25794     25806     25808     25794     25806     25809
     25795     25794     25796     25795     25794     25806     25796     25794     25806
     25797     25800     25801     25798     25797     25799     25798     25797     25800
     25799     25797     25800     25800     25801     25802     25800     25801     25803
     25801     25803     25804     25801     25803     25805     25801     25803     25853
     25802     25801     25803     25803     25853     25854     25803     25853     25855
     25803     25853     25856     25804     25803     25805     25804     25803     25853
     25805     25803     25853     25806     25809     25810     25806     25809     25811
     25806     25809     25812     25807     25806     25808     25807     25806     25809
     25808     25806     25809     25809     25812     25813     25809     25812     25814
     25809     25812     25815     25810     25809     25811     25810     25809     25812
     25811     25809     25812     25812     25815     25816     25812     25815     25817
     25812     25815     25818     25813     25812     25814     25813     25812     25815
     25814     25812     25815     25815     25818     25819     25815     25818     25820
     25815     25818     25821     25816     25815     25817     25816     25815     25818
     25817     25815     25818     25818     25821     25822     25818     25821     25823
     25818     25821     25824     25819     25818     25820     25819     25818     25821
     25820     25818     25821     25821     25824     25825     25821     25824     25826
     25822     25821     25823     25822     25821     25824     25823     25821     25824
     25824     25826     25827     25824     25826     25828     25825     25824     25826
     25826     25828     25829     25826     25828     25830     25826     25828     25831
     25827     25826     25828     25828     25831     25832     25828     25831     25833
     25828     25831     25834     25829     25828     25830     25829     25828     25831
     25830     25828     25831     25831     25834     25835     25831     25834     25836
     25831     25834     25837     25832     25831     25833     25832     25831     25834
     25833     25831     25834     25834     25837     25838     25834     25837     25839
     25834     25837     25840     25835     25834     25836     25835     25834     25837
     25836     25834     25837     25837     25840     25841     25837     25840     25842
     25837     25840     25843     25838     25837     25839     25838     25837     25840
     25839     25837     25840     25840     25843     25844     25840     25843     25845
     25840     25843     25846     25841     25840     25842     25841     25840     25843
     25842     25840     25843     25843     25846     25847     25843     25846     25848
     25843     25846     25849     25844     25843     25845     25844     25843     25846
     25845     25843     25846     25846     25849     25850     25846     25849     25851
     25846     25849     25852     25847     25846     25848     25847     25846     25849
     25848     25846     25849     25850     25849     25851     25850     25849     25852
     25851     25849     25852     25853     25856     25857     25853     25856     25858
     25853     25856     25859     25854     25853     25855     25854     25853     25856
     25855     25853     25856     25856     25859     25860     25856     25859     25861
     25856     25859     25862     25857     25856     25858     25857     25856     25859
     25858     25856     25859     25859     25862     25863     25859     25862     25864
     25859     25862     25865     25860     25859     25861     25860     25859     25862
     25861     25859     25862     25862     25865     25866     25862     25865     25867
     25862     25865     25868     25863     25862     25864     25863     25862     25865
     25864     25862     25865     25865     25868     25869     25865     25868     25870
     25865     25868     25871     25866     25865     25867     25866     25865     25868
     25867     25865     25868     25868     25871     25872     25868     25871     25873
     25868     25871     25874     25869     25868     25870     25869     25868     25871
     25870     25868     25871     25871     25874     25875     25871     25874     25876
     25871     25874     25877     25872     25871     25873     25872     25871     25874
     25873     25871     25874     25874     25877     25878     25874     25877     25879
     25874     25877     25880     25875     25874     25876     25875     25874     25877
     25876     25874     25877     25877     25880     25881     25877     25880     25882
     25877     25880     25883     25878     25877     25879     25878     25877     25880
     25879     25877     25880     25880     25883     25884     25880     25883     25885
     25880     25883     25886     25881     25880     25882     25881     25880     25883
     25882     25880     25883     25883     25886     25887     25883     25886     25888
     25883     25886     25889     25884     25883     25885     25884     25883     25886
     25885     25883     25886     25886     25889     25890     25886     25889     25891
     25886     25889     25892     25887     25886     25888     25887     25886     25889
     25888     25886     25889     25889     25892     25893     25889     25892     25894
     25889     25892     25895     25890     25889     25891     25890     25889     25892
     25891     25889     25892     25893     25892     25894     25893     25892     25895
     25894     25892     25895     25896     25900     25901     25896     25900     25902
     25896     25900     25903     25897     25896     25898     25897     25896     25899
     25897     25896     25900     25898     25896     25899     25898     25896     25900
     25899     25896     25900     25900     25903     25904     25900     25903     25905
     25900     25903     25910     25901     25900     25902     25901     25900     25903
     25902     25900     25903     25903     25910     25906     25904     25903     25905
     25904     25903     25910     25905     25903     25910     25906     25909     25911
     25907     25906     25908     25907     25906     25909     25907     25906     25910
     25908     25906     25909     25908     25906     25910     25909     25906     25910
     25909     25911     25912     25909     25911     25913     25909     25911     25914
     25911     25914     25915     25911     25914     25916     25911     25914     25922
     25912     25911     25913     25912     25911     25914     25913     25911     25914
     25914     25916     25917     25914     25922     25923     25914     25922     25924
     25914     25922     25925     25915     25914     25916     25915     25914     25922
     25916     25914     25922     25916     25917     25918     25916     25917     25919
     25917     25919     25920     25917     25919     25921     25917     25919     25931
     25918     25917     25919     25919     25931     25932     25919     25931     25933
     25919     25931     25934     25920     25919     25921     25920     25919     25931
     25921     25919     25931     25922     25925     25926     25923     25922     25924
     25923     25922     25925     25924     25922     25925     25925     25926     25927
     25925     25926     25928     25926     25928     25929     25926     25928     25930
     25926     25928     25978     25927     25926     25928     25928     25978     25979
     25928     25978     25980     25928     25978     25981     25929     25928     25930
     25929     25928     25978     25930     25928     25978     25931     25934     25935
     25931     25934     25936     25931     25934     25937     25932     25931     25933
     25932     25931     25934     25933     25931     25934     25934     25937     25938
     25934     25937     25939     25934     25937     25940     25935     25934     25936
     25935     25934     25937     25936     25934     25937     25937     25940     25941
     25937     25940     25942     25937     25940     25943     25938     25937     25939
     25938     25937     25940     25939     25937     25940     25940     25943     25944
     25940     25943     25945     25940     25943     25946     25941     25940     25942
     25941     25940     25943     25942     25940     25943     25943     25946     25947
     25943     25946     25948     25943     25946     25949     25944     25943     25945
     25944     25943     25946     25945     25943     25946     25946     25949     25950
     25946     25949     25951     25947     25946     25948     25947     25946     25949
     25948     25946     25949     25949     25951     25952     25949     25951     25953
     25950     25949     25951     25951     25953     25954     25951     25953     25955
     25951     25953     25956     25952     25951     25953     25953     25956     25957
     25953     25956     25958     25953     25956     25959     25954     25953     25955
     25954     25953     25956     25955     25953     25956     25956     25959     25960
     25956     25959     25961     25956     25959     25962     25957     25956     25958
     25957     25956     25959     25958     25956     25959     25959     25962     25963
     25959     25962     25964     25959     25962     25965     25960     25959     25961
     25960     25959     25962     25961     25959     25962     25962     25965     25966
     25962     25965     25967     25962     25965     25968     25963     25962     25964
     25963     25962     25965     25964     25962     25965     25965     25968     25969
     25965     25968     25970     25965     25968     25971     25966     25965     25967
     25966     25965     25968     25967     25965     25968     25968     25971     25972
     25968     25971     25973     25968     25971     25974     25969     25968     25970
     25969     25968     25971     25970     25968     25971     25971     25974     25975
     25971     25974     25976     25971     25974     25977     25972     25971     25973
     25972     25971     25974     25973     25971     25974     25975     25974     25976
     25975     25974     25977     25976     25974     25977     25978     25981     25982
     25978     25981     25983     25978     25981     25984     25979     25978     25980
     25979     25978     25981     25980     25978     25981     25981     25984     25985
     25981     25984     25986     25981     25984     25987     25982     25981     25983
     25982     25981     25984     25983     25981     25984     25984     25987     25988
     25984     25987     25989     25984     25987     25990     25985     25984     25986
     25985     25984     25987     25986     25984     25987     25987     25990     25991
     25987     25990     25992     25987     25990     25993     25988     25987     25989
     25988     25987     25990     25989     25987     25990     25990     25993     25994
     25990     25993     25995     25990     25993     25996     25991     25990     25992
     25991     25990     25993     25992     25990     25993     25993     25996     25997
     25993     25996     25998     25993     25996     25999     25994     25993     25995
     25994     25993     25996     25995     25993     25996     25996     25999     26000
     25996     25999     26001     25996     25999     26002     25997     25996     25998
     25997     25996     25999     25998     25996     25999     25999     26002     26003
     25999     26002     26004     25999     26002     26005     26000     25999     26001
     26000     25999     26002     26001     25999     26002     26002     26005     26006
     26002     26005     26007     26002     26005     26008     26003     26002     26004
     26003     26002     26005     26004     26002     26005     26005     26008     26009
     26005     26008     26010     26005     26008     26011     26006     26005     26007
     26006     26005     26008     26007     26005     26008     26008     26011     26012
     26008     26011     26013     26008     26011     26014     26009     26008     26010
     26009     26008     26011     26010     26008     26011     26011     26014     26015
     26011     26014     26016     26011     26014     26017     26012     26011     26013
     26012     26011     26014     26013     26011     26014     26014     26017     26018
     26014     26017     26019     26014     26017     26020     26015     26014     26016
     26015     26014     26017     26016     26014     26017     26018     26017     26019
     26018     26017     26020     26019     26017     26020     26021     26025     26026
     26021     26025     26027     26021     26025     26028     26022     26021     26023
     26022     26021     26024     26022     26021     26025     26023     26021     26024
     26023     26021     26025     26024     26021     26025     26025     26028     26029
     26025     26028     26030     26025     26028     26035     26026     26025     26027
     26026     26025     26028     26027     26025     26028     26028     26035     26031
     26029     26028     26030     26029     26028     26035     26030     26028     26035
     26031     26034     26036     26032     26031     26033     26032     26031     26034
     26032     26031     26035     26033     26031     26034     26033     26031     26035
     26034     26031     26035     26034     26036     26037     26034     26036     26038
     26034     26036     26039     26036     26039     26040     26036     26039     26041
     26036     26039     26047     26037     26036     26038     26037     26036     26039
     26038     26036     26039     26039     26041     26042     26039     26047     26048
     26039     26047     26049     26039     26047     26050     26040     26039     26041
     26040     26039     26047     26041     26039     26047     26041     26042     26043
     26041     26042     26044     26042     26044     26045     26042     26044     26046
     26042     26044     26056     26043     26042     26044     26044     26056     26057
     26044     26056     26058     26044     26056     26059     26045     26044     26046
     26045     26044     26056     26046     26044     26056     26047     26050     26051
     26048     26047     26049     26048     26047     26050     26049     26047     26050
     26050     26051     26052     26050     26051     26053     26051     26053     26054
     26051     26053     26055     26051     26053     26103     26052     26051     26053
     26053     26103     26104     26053     26103     26105     26053     26103     26106
     26054     26053     26055     26054     26053     26103     26055     26053     26103
     26056     26059     26060     26056     26059     26061     26056     26059     26062
     26057     26056     26058     26057     26056     26059     26058     26056     26059
     26059     26062     26063     26059     26062     26064     26059     26062     26065
     26060     26059     26061     26060     26059     26062     26061     26059     26062
     26062     26065     26066     26062     26065     26067     26062     26065     26068
     26063     26062     26064     26063     26062     26065     26064     26062     26065
     26065     26068     26069     26065     26068     26070     26065     26068     26071
     26066     26065     26067     26066     26065     26068     26067     26065     26068
     26068     26071     26072     26068     26071     26073     26068     26071     26074
     26069     26068     26070     26069     26068     26071     26070     26068     26071
     26071     26074     26075     26071     26074     26076     26072     26071     26073
     26072     26071     26074     26073     26071     26074     26074     26076     26077
     26074     26076     26078     26075     26074     26076     26076     26078     26079
     26076     26078     26080     26076     26078     26081     26077     26076     26078
     26078     26081     26082     26078     26081     26083     26078     26081     26084
     26079     26078     26080     26079     26078     26081     26080     26078     26081
     26081     26084     26085     26081     26084     26086     26081     26084     26087
     26082     26081     26083     26082     26081     26084     26083     26081     26084
     26084     26087     26088     26084     26087     26089     26084     26087     26090
     26085     26084     26086     26085     26084     26087     26086     26084     26087
     26087     26090     26091     26087     26090     26092     26087     26090     26093
     26088     26087     26089     26088     26087     26090     26089     26087     26090
     26090     26093     26094     26090     26093     26095     26090     26093     26096
     26091     26090     26092     26091     26090     26093     26092     26090     26093
     26093     26096     26097     26093     26096     26098     26093     26096     26099
     26094     26093     26095     26094     26093     26096     26095     26093     26096
     26096     26099     26100     26096     26099     26101     26096     26099     26102
     26097     26096     26098     26097     26096     26099     26098     26096     26099
     26100     26099     26101     26100     26099     26102     26101     26099     26102
     26103     26106     26107     26103     26106     26108     26103     26106     26109
     26104     26103     26105     26104     26103     26106     26105     26103     26106
     26106     26109     26110     26106     26109     26111     26106     26109     26112
     26107     26106     26108     26107     26106     26109     26108     26106     26109
     26109     26112     26113     26109     26112     26114     26109     26112     26115
     26110     26109     26111     26110     26109     26112     26111     26109     26112
     26112     26115     26116     26112     26115     26117     26112     26115     26118
     26113     26112     26114     26113     26112     26115     26114     26112     26115
     26115     26118     26119     26115     26118     26120     26115     26118     26121
     26116     26115     26117     26116     26115     26118     26117     26115     26118
     26118     26121     26122     26118     26121     26123     26118     26121     26124
     26119     26118     26120     26119     26118     26121     26120     26118     26121
     26121     26124     26125     26121     26124     26126     26121     26124     26127
     26122     26121     26123     26122     26121     26124     26123     26121     26124
     26124     26127     26128     26124     26127     26129     26124     26127     26130
     26125     26124     26126     26125     26124     26127     26126     26124     26127
     26127     26130     26131     26127     26130     26132     26127     26130     26133
     26128     26127     26129     26128     26127     26130     26129     26127     26130
     26130     26133     26134     26130     26133     26135     26130     26133     26136
     26131     26130     26132     26131     26130     26133     26132     26130     26133
     26133     26136     26137     26133     26136     26138     26133     26136     26139
     26134     26133     26135     26134     26133     26136     26135     26133     26136
     26136     26139     26140     26136     26139     26141     26136     26139     26142
     26137     26136     26138     26137     26136     26139     26138     26136     26139
     26139     26142     26143     26139     26142     26144     26139     26142     26145
     26140     26139     26141     26140     26139     26142     26141     26139     26142
     26143     26142     26144     26143     26142     26145     26144     26142     26145
     26146     26147     26148     26146     26147     26149     26146     26147     26162
     26146     26150     26151     26146     26150     26152     26146     26150     26153
     26146     26154     26155     26146     26154     26156     26146     26154     26157
     26146     26158     26159     26146     26158     26160     26146     26158     26161
     26147     26146     26150     26147     26146     26154     26147     26146     26158
     26147     26162     26163     26147     26162     26164     26147     26162     26168
     26148     26147     26149     26148     26147     26162     26149     26147     26162
     26150     26146     26154     26150     26146     26158     26151     26150     26152
     26151     26150     26153     26152     26150     26153     26154     26146     26158
     26155     26154     26156     26155     26154     26157     26156     26154     26157
     26159     26158     26160     26159     26158     26161     26160     26158     26161
     26162     26168     26165     26163     26162     26164     26163     26162     26168
     26164     26162     26168     26165     26169     26170     26166     26165     26167
     26166     26165     26168     26166     26165     26169     26167     26165     26168
     26167     26165     26169     26168     26165     26169     26169     26170     26171
     26169     26170     26172     26169     26170     26173     26170     26173     26174
     26170     26173     26175     26170     26173     26181     26171     26170     26172
     26171     26170     26173     26172     26170     26173     26173     26175     26176
     26173     26181     26182     26173     26181     26183     26173     26181     26184
     26174     26173     26175     26174     26173     26181     26175     26173     26181
     26175     26176     26177     26175     26176     26178     26176     26178     26179
     26176     26178     26180     26176     26178     26190     26177     26176     26178
     26178     26190     26191     26178     26190     26192     26178     26190     26193
     26179     26178     26180     26179     26178     26190     26180     26178     26190
     26181     26184     26185     26182     26181     26183     26182     26181     26184
     26183     26181     26184     26184     26185     26186     26184     26185     26187
     26185     26187     26188     26185     26187     26189     26185     26187     26237
     26186     26185     26187     26187     26237     26238     26187     26237     26239
     26187     26237     26240     26188     26187     26189     26188     26187     26237
     26189     26187     26237     26190     26193     26194     26190     26193     26195
     26190     26193     26196     26191     26190     26192     26191     26190     26193
     26192     26190     26193     26193     26196     26197     26193     26196     26198
     26193     26196     26199     26194     26193     26195     26194     26193     26196
     26195     26193     26196     26196     26199     26200     26196     26199     26201
     26196     26199     26202     26197     26196     26198     26197     26196     26199
     26198     26196     26199     26199     26202     26203     26199     26202     26204
     26199     26202     26205     26200     26199     26201     26200     26199     26202
     26201     26199     26202     26202     26205     26206     26202     26205     26207
     26202     26205     26208     26203     26202     26204     26203     26202     26205
     26204     26202     26205     26205     26208     26209     26205     26208     26210
     26206     26205     26207     26206     26205     26208     26207     26205     26208
     26208     26210     26211     26208     26210     26212     26209     26208     26210
     26210     26212     26213     26210     26212     26214     26210     26212     26215
     26211     26210     26212     26212     26215     26216     26212     26215     26217
     26212     26215     26218     26213     26212     26214     26213     26212     26215
     26214     26212     26215     26215     26218     26219     26215     26218     26220
     26215     26218     26221     26216     26215     26217     26216     26215     26218
     26217     26215     26218     26218     26221     26222     26218     26221     26223
     26218     26221     26224     26219     26218     26220     26219     26218     26221
     26220     26218     26221     26221     26224     26225     26221     26224     26226
     26221     26224     26227     26222     26221     26223     26222     26221     26224
     26223     26221     26224     26224     26227     26228     26224     26227     26229
     26224     26227     26230     26225     26224     26226     26225     26224     26227
     26226     26224     26227     26227     26230     26231     26227     26230     26232
     26227     26230     26233     26228     26227     26229     26228     26227     26230
     26229     26227     26230     26230     26233     26234     26230     26233     26235
     26230     26233     26236     26231     26230     26232     26231     26230     26233
     26232     26230     26233     26234     26233     26235     26234     26233     26236
     26235     26233     26236     26237     26240     26241     26237     26240     26242
     26237     26240     26243     26238     26237     26239     26238     26237     26240
     26239     26237     26240     26240     26243     26244     26240     26243     26245
     26240     26243     26246     26241     26240     26242     26241     26240     26243
     26242     26240     26243     26243     26246     26247     26243     26246     26248
     26243     26246     26249     26244     26243     26245     26244     26243     26246
     26245     26243     26246     26246     26249     26250     26246     26249     26251
     26246     26249     26252     26247     26246     26248     26247     26246     26249
     26248     26246     26249     26249     26252     26253     26249     26252     26254
     26249     26252     26255     26250     26249     26251     26250     26249     26252
     26251     26249     26252     26252     26255     26256     26252     26255     26257
     26252     26255     26258     26253     26252     26254     26253     26252     26255
     26254     26252     26255     26255     26258     26259     26255     26258     26260
     26255     26258     26261     26256     26255     26257     26256     26255     26258
     26257     26255     26258     26258     26261     26262     26258     26261     26263
     26258     26261     26264     26259     26258     26260     26259     26258     26261
     26260     26258     26261     26261     26264     26265     26261     26264     26266
     26261     26264     26267     26262     26261     26263     26262     26261     26264
     26263     26261     26264     26264     26267     26268     26264     26267     26269
     26264     26267     26270     26265     26264     26266     26265     26264     26267
     26266     26264     26267     26267     26270     26271     26267     26270     26272
     26267     26270     26273     26268     26267     26269     26268     26267     26270
     26269     26267     26270     26270     26273     26274     26270     26273     26275
     26270     26273     26276     26271     26270     26272     26271     26270     26273
     26272     26270     26273     26273     26276     26277     26273     26276     26278
     26273     26276     26279     26274     26273     26275     26274     26273     26276
     26275     26273     26276     26277     26276     26278     26277     26276     26279
     26278     26276     26279     26280     26281     26282     26280     26281     26283
     26280     26281     26296     26280     26284     26285     26280     26284     26286
     26280     26284     26287     26280     26288     26289     26280     26288     26290
     26280     26288     26291     26280     26292     26293     26280     26292     26294
     26280     26292     26295     26281     26280     26284     26281     26280     26288
     26281     26280     26292     26281     26296     26297     26281     26296     26298
     26281     26296     26302     26282     26281     26283     26282     26281     26296
     26283     26281     26296     26284     26280     26288     26284     26280     26292
     26285     26284     26286     26285     26284     26287     26286     26284     26287
     26288     26280     26292     26289     26288     26290     26289     26288     26291
     26290     26288     26291     26293     26292     26294     26293     26292     26295
     26294     26292     26295     26296     26302     26299     26297     26296     26298
     26297     26296     26302     26298     26296     26302     26299     26303     26304
     26300     26299     26301     26300     26299     26302     26300     26299     26303
     26301     26299     26302     26301     26299     26303     26302     26299     26303
     26303     26304     26305     26303     26304     26306     26303     26304     26307
     26304     26307     26308     26304     26307     26309     26304     26307     26315
     26305     26304     26306     26305     26304     26307     26306     26304     26307
     26307     26309     26310     26307     26315     26316     26307     26315     26317
     26307     26315     26318     26308     26307     26309     26308     26307     26315
     26309     26307     26315     26309     26310     26311     26309     26310     26312
     26310     26312     26313     26310     26312     26314     26310     26312     26324
     26311     26310     26312     26312     26324     26325     26312     26324     26326
     26312     26324     26327     26313     26312     26314     26313     26312     26324
     26314     26312     26324     26315     26318     26319     26316     26315     26317
     26316     26315     26318     26317     26315     26318     26318     26319     26320
     26318     26319     26321     26319     26321     26322     26319     26321     26323
     26319     26321     26371     26320     26319     26321     26321     26371     26372
     26321     26371     26373     26321     26371     26374     26322     26321     26323
     26322     26321     26371     26323     26321     26371     26324     26327     26328
     26324     26327     26329     26324     26327     26330     26325     26324     26326
     26325     26324     26327     26326     26324     26327     26327     26330     26331
     26327     26330     26332     26327     26330     26333     26328     26327     26329
     26328     26327     26330     26329     26327     26330     26330     26333     26334
     26330     26333     26335     26330     26333     26336     26331     26330     26332
     26331     26330     26333     26332     26330     26333     26333     26336     26337
     26333     26336     26338     26333     26336     26339     26334     26333     26335
     26334     26333     26336     26335     26333     26336     26336     26339     26340
     26336     26339     26341     26336     26339     26342     26337     26336     26338
     26337     26336     26339     26338     26336     26339     26339     26342     26343
     26339     26342     26344     26340     26339     26341     26340     26339     26342
     26341     26339     26342     26342     26344     26345     26342     26344     26346
     26343     26342     26344     26344     26346     26347     26344     26346     26348
     26344     26346     26349     26345     26344     26346     26346     26349     26350
     26346     26349     26351     26346     26349     26352     26347     26346     26348
     26347     26346     26349     26348     26346     26349     26349     26352     26353
     26349     26352     26354     26349     26352     26355     26350     26349     26351
     26350     26349     26352     26351     26349     26352     26352     26355     26356
     26352     26355     26357     26352     26355     26358     26353     26352     26354
     26353     26352     26355     26354     26352     26355     26355     26358     26359
     26355     26358     26360     26355     26358     26361     26356     26355     26357
     26356     26355     26358     26357     26355     26358     26358     26361     26362
     26358     26361     26363     26358     26361     26364     26359     26358     26360
     26359     26358     26361     26360     26358     26361     26361     26364     26365
     26361     26364     26366     26361     26364     26367     26362     26361     26363
     26362     26361     26364     26363     26361     26364     26364     26367     26368
     26364     26367     26369     26364     26367     26370     26365     26364     26366
     26365     26364     26367     26366     26364     26367     26368     26367     26369
     26368     26367     26370     26369     26367     26370     26371     26374     26375
     26371     26374     26376     26371     26374     26377     26372     26371     26373
     26372     26371     26374     26373     26371     26374     26374     26377     26378
     26374     26377     26379     26374     26377     26380     26375     26374     26376
     26375     26374     26377     26376     26374     26377     26377     26380     26381
     26377     26380     26382     26377     26380     26383     26378     26377     26379
     26378     26377     26380     26379     26377     26380     26380     26383     26384
     26380     26383     26385     26380     26383     26386     26381     26380     26382
     26381     26380     26383     26382     26380     26383     26383     26386     26387
     26383     26386     26388     26383     26386     26389     26384     26383     26385
     26384     26383     26386     26385     26383     26386     26386     26389     26390
     26386     26389     26391     26386     26389     26392     26387     26386     26388
     26387     26386     26389     26388     26386     26389     26389     26392     26393
     26389     26392     26394     26389     26392     26395     26390     26389     26391
     26390     26389     26392     26391     26389     26392     26392     26395     26396
     26392     26395     26397     26392     26395     26398     26393     26392     26394
     26393     26392     26395     26394     26392     26395     26395     26398     26399
     26395     26398     26400     26395     26398     26401     26396     26395     26397
     26396     26395     26398     26397     26395     26398     26398     26401     26402
     26398     26401     26403     26398     26401     26404     26399     26398     26400
     26399     26398     26401     26400     26398     26401     26401     26404     26405
     26401     26404     26406     26401     26404     26407     26402     26401     26403
     26402     26401     26404     26403     26401     26404     26404     26407     26408
     26404     26407     26409     26404     26407     26410     26405     26404     26406
     26405     26404     26407     26406     26404     26407     26407     26410     26411
     26407     26410     26412     26407     26410     26413     26408     26407     26409
     26408     26407     26410     26409     26407     26410     26411     26410     26412
     26411     26410     26413     26412     26410     26413     26414     26418     26419
     26414     26418     26420     26414     26418     26421     26415     26414     26416
     26415     26414     26417     26415     26414     26418     26416     26414     26417
     26416     26414     26418     26417     26414     26418     26418     26421     26422
     26418     26421     26423     26418     26421     26428     26419     26418     26420
     26419     26418     26421     26420     26418     26421     26421     26428     26424
     26422     26421     26423     26422     26421     26428     26423     26421     26428
     26424     26427     26429     26425     26424     26426     26425     26424     26427
     26425     26424     26428     26426     26424     26427     26426     26424     26428
     26427     26424     26428     26427     26429     26430     26427     26429     26431
     26427     26429     26432     26429     26432     26433     26429     26432     26434
     26429     26432     26440     26430     26429     26431     26430     26429     26432
     26431     26429     26432     26432     26434     26435     26432     26440     26441
     26432     26440     26442     26432     26440     26443     26433     26432     26434
     26433     26432     26440     26434     26432     26440     26434     26435     26436
     26434     26435     26437     26435     26437     26438     26435     26437     26439
     26435     26437     26449     26436     26435     26437     26437     26449     26450
     26437     26449     26451     26437     26449     26452     26438     26437     26439
     26438     26437     26449     26439     26437     26449     26440     26443     26444
     26441     26440     26442     26441     26440     26443     26442     26440     26443
     26443     26444     26445     26443     26444     26446     26444     26446     26447
     26444     26446     26448     26444     26446     26496     26445     26444     26446
     26446     26496     26497     26446     26496     26498     26446     26496     26499
     26447     26446     26448     26447     26446     26496     26448     26446     26496
     26449     26452     26453     26449     26452     26454     26449     26452     26455
     26450     26449     26451     26450     26449     26452     26451     26449     26452
     26452     26455     26456     26452     26455     26457     26452     26455     26458
     26453     26452     26454     26453     26452     26455     26454     26452     26455
     26455     26458     26459     26455     26458     26460     26455     26458     26461
     26456     26455     26457     26456     26455     26458     26457     26455     26458
     26458     26461     26462     26458     26461     26463     26458     26461     26464
     26459     26458     26460     26459     26458     26461     26460     26458     26461
     26461     26464     26465     26461     26464     26466     26461     26464     26467
     26462     26461     26463     26462     26461     26464     26463     26461     26464
     26464     26467     26468     26464     26467     26469     26465     26464     26466
     26465     26464     26467     26466     26464     26467     26467     26469     26470
     26467     26469     26471     26468     26467     26469     26469     26471     26472
     26469     26471     26473     26469     26471     26474     26470     26469     26471
     26471     26474     26475     26471     26474     26476     26471     26474     26477
     26472     26471     26473     26472     26471     26474     26473     26471     26474
     26474     26477     26478     26474     26477     26479     26474     26477     26480
     26475     26474     26476     26475     26474     26477     26476     26474     26477
     26477     26480     26481     26477     26480     26482     26477     26480     26483
     26478     26477     26479     26478     26477     26480     26479     26477     26480
     26480     26483     26484     26480     26483     26485     26480     26483     26486
     26481     26480     26482     26481     26480     26483     26482     26480     26483
     26483     26486     26487     26483     26486     26488     26483     26486     26489
     26484     26483     26485     26484     26483     26486     26485     26483     26486
     26486     26489     26490     26486     26489     26491     26486     26489     26492
     26487     26486     26488     26487     26486     26489     26488     26486     26489
     26489     26492     26493     26489     26492     26494     26489     26492     26495
     26490     26489     26491     26490     26489     26492     26491     26489     26492
     26493     26492     26494     26493     26492     26495     26494     26492     26495
     26496     26499     26500     26496     26499     26501     26496     26499     26502
     26497     26496     26498     26497     26496     26499     26498     26496     26499
     26499     26502     26503     26499     26502     26504     26499     26502     26505
     26500     26499     26501     26500     26499     26502     26501     26499     26502
     26502     26505     26506     26502     26505     26507     26502     26505     26508
     26503     26502     26504     26503     26502     26505     26504     26502     26505
     26505     26508     26509     26505     26508     26510     26505     26508     26511
     26506     26505     26507     26506     26505     26508     26507     26505     26508
     26508     26511     26512     26508     26511     26513     26508     26511     26514
     26509     26508     26510     26509     26508     26511     26510     26508     26511
     26511     26514     26515     26511     26514     26516     26511     26514     26517
     26512     26511     26513     26512     26511     26514     26513     26511     26514
     26514     26517     26518     26514     26517     26519     26514     26517     26520
     26515     26514     26516     26515     26514     26517     26516     26514     26517
     26517     26520     26521     26517     26520     26522     26517     26520     26523
     26518     26517     26519     26518     26517     26520     26519     26517     26520
     26520     26523     26524     26520     26523     26525     26520     26523     26526
     26521     26520     26522     26521     26520     26523     26522     26520     26523
     26523     26526     26527     26523     26526     26528     26523     26526     26529
     26524     26523     26525     26524     26523     26526     26525     26523     26526
     26526     26529     26530     26526     26529     26531     26526     26529     26532
     26527     26526     26528     26527     26526     26529     26528     26526     26529
     26529     26532     26533     26529     26532     26534     26529     26532     26535
     26530     26529     26531     26530     26529     26532     26531     26529     26532
     26532     26535     26536     26532     26535     26537     26532     26535     26538
     26533     26532     26534     26533     26532     26535     26534     26532     26535
     26536     26535     26537     26536     26535     26538     26537     26535     26538
     26539     26543     26544     26539     26543     26545     26539     26543     26546
     26540     26539     26541     26540     26539     26542     26540     26539     26543
     26541     26539     26542     26541     26539     26543     26542     26539     26543
     26543     26546     26547     26543     26546     26548     26543     26546     26553
     26544     26543     26545     26544     26543     26546     26545     26543     26546
     26546     26553     26549     26547     26546     26548     26547     26546     26553
     26548     26546     26553     26549     26552     26554     26550     26549     26551
     26550     26549     26552     26550     26549     26553     26551     26549     26552
     26551     26549     26553     26552     26549     26553     26552     26554     26555
     26552     26554     26556     26552     26554     26557     26554     26557     26558
     26554     26557     26559     26554     26557     26565     26555     26554     26556
     26555     26554     26557     26556     26554     26557     26557     26559     26560
     26557     26565     26566     26557     26565     26567     26557     26565     26568
     26558     26557     26559     26558     26557     26565     26559     26557     26565
     26559     26560     26561     26559     26560     26562     26560     26562     26563
     26560     26562     26564     26560     26562     26574     26561     26560     26562
     26562     26574     26575     26562     26574     26576     26562     26574     26577
     26563     26562     26564     26563     26562     26574     26564     26562     26574
     26565     26568     26569     26566     26565     26567     26566     26565     26568
     26567     26565     26568     26568     26569     26570     26568     26569     26571
     26569     26571     26572     26569     26571     26573     26569     26571     26621
     26570     26569     26571     26571     26621     26622     26571     26621     26623
     26571     26621     26624     26572     26571     26573     26572     26571     26621
     26573     26571     26621     26574     26577     26578     26574     26577     26579
     26574     26577     26580     26575     26574     26576     26575     26574     26577
     26576     26574     26577     26577     26580     26581     26577     26580     26582
     26577     26580     26583     26578     26577     26579     26578     26577     26580
     26579     26577     26580     26580     26583     26584     26580     26583     26585
     26580     26583     26586     26581     26580     26582     26581     26580     26583
     26582     26580     26583     26583     26586     26587     26583     26586     26588
     26583     26586     26589     26584     26583     26585     26584     26583     26586
     26585     26583     26586     26586     26589     26590     26586     26589     26591
     26586     26589     26592     26587     26586     26588     26587     26586     26589
     26588     26586     26589     26589     26592     26593     26589     26592     26594
     26590     26589     26591     26590     26589     26592     26591     26589     26592
     26592     26594     26595     26592     26594     26596     26593     26592     26594
     26594     26596     26597     26594     26596     26598     26594     26596     26599
     26595     26594     26596     26596     26599     26600     26596     26599     26601
     26596     26599     26602     26597     26596     26598     26597     26596     26599
     26598     26596     26599     26599     26602     26603     26599     26602     26604
     26599     26602     26605     26600     26599     26601     26600     26599     26602
     26601     26599     26602     26602     26605     26606     26602     26605     26607
     26602     26605     26608     26603     26602     26604     26603     26602     26605
     26604     26602     26605     26605     26608     26609     26605     26608     26610
     26605     26608     26611     26606     26605     26607     26606     26605     26608
     26607     26605     26608     26608     26611     26612     26608     26611     26613
     26608     26611     26614     26609     26608     26610     26609     26608     26611
     26610     26608     26611     26611     26614     26615     26611     26614     26616
     26611     26614     26617     26612     26611     26613     26612     26611     26614
     26613     26611     26614     26614     26617     26618     26614     26617     26619
     26614     26617     26620     26615     26614     26616     26615     26614     26617
     26616     26614     26617     26618     26617     26619     26618     26617     26620
     26619     26617     26620     26621     26624     26625     26621     26624     26626
     26621     26624     26627     26622     26621     26623     26622     26621     26624
     26623     26621     26624     26624     26627     26628     26624     26627     26629
     26624     26627     26630     26625     26624     26626     26625     26624     26627
     26626     26624     26627     26627     26630     26631     26627     26630     26632
     26627     26630     26633     26628     26627     26629     26628     26627     26630
     26629     26627     26630     26630     26633     26634     26630     26633     26635
     26630     26633     26636     26631     26630     26632     26631     26630     26633
     26632     26630     26633     26633     26636     26637     26633     26636     26638
     26633     26636     26639     26634     26633     26635     26634     26633     26636
     26635     26633     26636     26636     26639     26640     26636     26639     26641
     26636     26639     26642     26637     26636     26638     26637     26636     26639
     26638     26636     26639     26639     26642     26643     26639     26642     26644
     26639     26642     26645     26640     26639     26641     26640     26639     26642
     26641     26639     26642     26642     26645     26646     26642     26645     26647
     26642     26645     26648     26643     26642     26644     26643     26642     26645
     26644     26642     26645     26645     26648     26649     26645     26648     26650
     26645     26648     26651     26646     26645     26647     26646     26645     26648
     26647     26645     26648     26648     26651     26652     26648     26651     26653
     26648     26651     26654     26649     26648     26650     26649     26648     26651
     26650     26648     26651     26651     26654     26655     26651     26654     26656
     26651     26654     26657     26652     26651     26653     26652     26651     26654
     26653     26651     26654     26654     26657     26658     26654     26657     26659
     26654     26657     26660     26655     26654     26656     26655     26654     26657
     26656     26654     26657     26657     26660     26661     26657     26660     26662
     26657     26660     26663     26658     26657     26659     26658     26657     26660
     26659     26657     26660     26661     26660     26662     26661     26660     26663
     26662     26660     26663     26664     26668     26669     26664     26668     26670
     26664     26668     26671     26665     26664     26666     26665     26664     26667
     26665     26664     26668     26666     26664     26667     26666     26664     26668
     26667     26664     26668     26668     26671     26672     26668     26671     26673
     26668     26671     26678     26669     26668     26670     26669     26668     26671
     26670     26668     26671     26671     26678     26674     26672     26671     26673
     26672     26671     26678     26673     26671     26678     26674     26677     26679
     26675     26674     26676     26675     26674     26677     26675     26674     26678
     26676     26674     26677     26676     26674     26678     26677     26674     26678
     26677     26679     26680     26677     26679     26681     26677     26679     26682
     26679     26682     26683     26679     26682     26684     26679     26682     26690
     26680     26679     26681     26680     26679     26682     26681     26679     26682
     26682     26684     26685     26682     26690     26691     26682     26690     26692
     26682     26690     26693     26683     26682     26684     26683     26682     26690
     26684     26682     26690     26684     26685     26686     26684     26685     26687
     26685     26687     26688     26685     26687     26689     26685     26687     26699
     26686     26685     26687     26687     26699     26700     26687     26699     26701
     26687     26699     26702     26688     26687     26689     26688     26687     26699
     26689     26687     26699     26690     26693     26694     26691     26690     26692
     26691     26690     26693     26692     26690     26693     26693     26694     26695
     26693     26694     26696     26694     26696     26697     26694     26696     26698
     26694     26696     26746     26695     26694     26696     26696     26746     26747
     26696     26746     26748     26696     26746     26749     26697     26696     26698
     26697     26696     26746     26698     26696     26746     26699     26702     26703
     26699     26702     26704     26699     26702     26705     26700     26699     26701
     26700     26699     26702     26701     26699     26702     26702     26705     26706
     26702     26705     26707     26702     26705     26708     26703     26702     26704
     26703     26702     26705     26704     26702     26705     26705     26708     26709
     26705     26708     26710     26705     26708     26711     26706     26705     26707
     26706     26705     26708     26707     26705     26708     26708     26711     26712
     26708     26711     26713     26708     26711     26714     26709     26708     26710
     26709     26708     26711     26710     26708     26711     26711     26714     26715
     26711     26714     26716     26711     26714     26717     26712     26711     26713
     26712     26711     26714     26713     26711     26714     26714     26717     26718
     26714     26717     26719     26715     26714     26716     26715     26714     26717
     26716     26714     26717     26717     26719     26720     26717     26719     26721
     26718     26717     26719     26719     26721     26722     26719     26721     26723
     26719     26721     26724     26720     26719     26721     26721     26724     26725
     26721     26724     26726     26721     26724     26727     26722     26721     26723
     26722     26721     26724     26723     26721     26724     26724     26727     26728
     26724     26727     26729     26724     26727     26730     26725     26724     26726
     26725     26724     26727     26726     26724     26727     26727     26730     26731
     26727     26730     26732     26727     26730     26733     26728     26727     26729
     26728     26727     26730     26729     26727     26730     26730     26733     26734
     26730     26733     26735     26730     26733     26736     26731     26730     26732
     26731     26730     26733     26732     26730     26733     26733     26736     26737
     26733     26736     26738     26733     26736     26739     26734     26733     26735
     26734     26733     26736     26735     26733     26736     26736     26739     26740
     26736     26739     26741     26736     26739     26742     26737     26736     26738
     26737     26736     26739     26738     26736     26739     26739     26742     26743
     26739     26742     26744     26739     26742     26745     26740     26739     26741
     26740     26739     26742     26741     26739     26742     26743     26742     26744
     26743     26742     26745     26744     26742     26745     26746     26749     26750
     26746     26749     26751     26746     26749     26752     26747     26746     26748
     26747     26746     26749     26748     26746     26749     26749     26752     26753
     26749     26752     26754     26749     26752     26755     26750     26749     26751
     26750     26749     26752     26751     26749     26752     26752     26755     26756
     26752     26755     26757     26752     26755     26758     26753     26752     26754
     26753     26752     26755     26754     26752     26755     26755     26758     26759
     26755     26758     26760     26755     26758     26761     26756     26755     26757
     26756     26755     26758     26757     26755     26758     26758     26761     26762
     26758     26761     26763     26758     26761     26764     26759     26758     26760
     26759     26758     26761     26760     26758     26761     26761     26764     26765
     26761     26764     26766     26761     26764     26767     26762     26761     26763
     26762     26761     26764     26763     26761     26764     26764     26767     26768
     26764     26767     26769     26764     26767     26770     26765     26764     26766
     26765     26764     26767     26766     26764     26767     26767     26770     26771
     26767     26770     26772     26767     26770     26773     26768     26767     26769
     26768     26767     26770     26769     26767     26770     26770     26773     26774
     26770     26773     26775     26770     26773     26776     26771     26770     26772
     26771     26770     26773     26772     26770     26773     26773     26776     26777
     26773     26776     26778     26773     26776     26779     26774     26773     26775
     26774     26773     26776     26775     26773     26776     26776     26779     26780
     26776     26779     26781     26776     26779     26782     26777     26776     26778
     26777     26776     26779     26778     26776     26779     26779     26782     26783
     26779     26782     26784     26779     26782     26785     26780     26779     26781
     26780     26779     26782     26781     26779     26782     26782     26785     26786
     26782     26785     26787     26782     26785     26788     26783     26782     26784
     26783     26782     26785     26784     26782     26785     26786     26785     26787
     26786     26785     26788     26787     26785     26788     26789     26793     26794
     26789     26793     26795     26789     26793     26796     26790     26789     26791
     26790     26789     26792     26790     26789     26793     26791     26789     26792
     26791     26789     26793     26792     26789     26793     26793     26796     26797
     26793     26796     26798     26793     26796     26803     26794     26793     26795
     26794     26793     26796     26795     26793     26796     26796     26803     26799
     26797     26796     26798     26797     26796     26803     26798     26796     26803
     26799     26802     26804     26800     26799     26801     26800     26799     26802
     26800     26799     26803     26801     26799     26802     26801     26799     26803
     26802     26799     26803     26802     26804     26805     26802     26804     26806
     26802     26804     26807     26804     26807     26808     26804     26807     26809
     26804     26807     26815     26805     26804     26806     26805     26804     26807
     26806     26804     26807     26807     26809     26810     26807     26815     26816
     26807     26815     26817     26807     26815     26818     26808     26807     26809
     26808     26807     26815     26809     26807     26815     26809     26810     26811
     26809     26810     26812     26810     26812     26813     26810     26812     26814
     26810     26812     26824     26811     26810     26812     26812     26824     26825
     26812     26824     26826     26812     26824     26827     26813     26812     26814
     26813     26812     26824     26814     26812     26824     26815     26818     26819
     26816     26815     26817     26816     26815     26818     26817     26815     26818
     26818     26819     26820     26818     26819     26821     26819     26821     26822
     26819     26821     26823     26819     26821     26871     26820     26819     26821
     26821     26871     26872     26821     26871     26873     26821     26871     26874
     26822     26821     26823     26822     26821     26871     26823     26821     26871
     26824     26827     26828     26824     26827     26829     26824     26827     26830
     26825     26824     26826     26825     26824     26827     26826     26824     26827
     26827     26830     26831     26827     26830     26832     26827     26830     26833
     26828     26827     26829     26828     26827     26830     26829     26827     26830
     26830     26833     26834     26830     26833     26835     26830     26833     26836
     26831     26830     26832     26831     26830     26833     26832     26830     26833
     26833     26836     26837     26833     26836     26838     26833     26836     26839
     26834     26833     26835     26834     26833     26836     26835     26833     26836
     26836     26839     26840     26836     26839     26841     26836     26839     26842
     26837     26836     26838     26837     26836     26839     26838     26836     26839
     26839     26842     26843     26839     26842     26844     26840     26839     26841
     26840     26839     26842     26841     26839     26842     26842     26844     26845
     26842     26844     26846     26843     26842     26844     26844     26846     26847
     26844     26846     26848     26844     26846     26849     26845     26844     26846
     26846     26849     26850     26846     26849     26851     26846     26849     26852
     26847     26846     26848     26847     26846     26849     26848     26846     26849
     26849     26852     26853     26849     26852     26854     26849     26852     26855
     26850     26849     26851     26850     26849     26852     26851     26849     26852
     26852     26855     26856     26852     26855     26857     26852     26855     26858
     26853     26852     26854     26853     26852     26855     26854     26852     26855
     26855     26858     26859     26855     26858     26860     26855     26858     26861
     26856     26855     26857     26856     26855     26858     26857     26855     26858
     26858     26861     26862     26858     26861     26863     26858     26861     26864
     26859     26858     26860     26859     26858     26861     26860     26858     26861
     26861     26864     26865     26861     26864     26866     26861     26864     26867
     26862     26861     26863     26862     26861     26864     26863     26861     26864
     26864     26867     26868     26864     26867     26869     26864     26867     26870
     26865     26864     26866     26865     26864     26867     26866     26864     26867
     26868     26867     26869     26868     26867     26870     26869     26867     26870
     26871     26874     26875     26871     26874     26876     26871     26874     26877
     26872     26871     26873     26872     26871     26874     26873     26871     26874
     26874     26877     26878     26874     26877     26879     26874     26877     26880
     26875     26874     26876     26875     26874     26877     26876     26874     26877
     26877     26880     26881     26877     26880     26882     26877     26880     26883
     26878     26877     26879     26878     26877     26880     26879     26877     26880
     26880     26883     26884     26880     26883     26885     26880     26883     26886
     26881     26880     26882     26881     26880     26883     26882     26880     26883
     26883     26886     26887     26883     26886     26888     26883     26886     26889
     26884     26883     26885     26884     26883     26886     26885     26883     26886
     26886     26889     26890     26886     26889     26891     26886     26889     26892
     26887     26886     26888     26887     26886     26889     26888     26886     26889
     26889     26892     26893     26889     26892     26894     26889     26892     26895
     26890     26889     26891     26890     26889     26892     26891     26889     26892
     26892     26895     26896     26892     26895     26897     26892     26895     26898
     26893     26892     26894     26893     26892     26895     26894     26892     26895
     26895     26898     26899     26895     26898     26900     26895     26898     26901
     26896     26895     26897     26896     26895     26898     26897     26895     26898
     26898     26901     26902     26898     26901     26903     26898     26901     26904
     26899     26898     26900     26899     26898     26901     26900     26898     26901
     26901     26904     26905     26901     26904     26906     26901     26904     26907
     26902     26901     26903     26902     26901     26904     26903     26901     26904
     26904     26907     26908     26904     26907     26909     26904     26907     26910
     26905     26904     26906     26905     26904     26907     26906     26904     26907
     26907     26910     26911     26907     26910     26912     26907     26910     26913
     26908     26907     26909     26908     26907     26910     26909     26907     26910
     26911     26910     26912     26911     26910     26913     26912     26910     26913
     26914     26915     26916     26914     26915     26917     26914     26915     26930
     26914     26918     26919     26914     26918     26920     26914     26918     26921
     26914     26922     26923     26914     26922     26924     26914     26922     26925
     26914     26926     26927     26914     26926     26928     26914     26926     26929
     26915     26914     26918     26915     26914     26922     26915     26914     26926
     26915     26930     26931     26915     26930     26932     26915     26930     26936
     26916     26915     26917     26916     26915     26930     26917     26915     26930
     26918     26914     26922     26918     26914     26926     26919     26918     26920
     26919     26918     26921     26920     26918     26921     26922     26914     26926
     26923     26922     26924     26923     26922     26925     26924     26922     26925
     26927     26926     26928     26927     26926     26929     26928     26926     26929
     26930     26936     26933     26931     26930     26932     26931     26930     26936
     26932     26930     26936     26933     26937     26938     26934     26933     26935
     26934     26933     26936     26934     26933     26937     26935     26933     26936
     26935     26933     26937     26936     26933     26937     26937     26938     26939
     26937     26938     26940     26937     26938     26941     26938     26941     26942
     26938     26941     26943     26938     26941     26949     26939     26938     26940
     26939     26938     26941     26940     26938     26941     26941     26943     26944
     26941     26949     26950     26941     26949     26951     26941     26949     26952
     26942     26941     26943     26942     26941     26949     26943     26941     26949
     26943     26944     26945     26943     26944     26946     26944     26946     26947
     26944     26946     26948     26944     26946     26958     26945     26944     26946
     26946     26958     26959     26946     26958     26960     26946     26958     26961
     26947     26946     26948     26947     26946     26958     26948     26946     26958
     26949     26952     26953     26950     26949     26951     26950     26949     26952
     26951     26949     26952     26952     26953     26954     26952     26953     26955
     26953     26955     26956     26953     26955     26957     26953     26955     27005
     26954     26953     26955     26955     27005     27006     26955     27005     27007
     26955     27005     27008     26956     26955     26957     26956     26955     27005
     26957     26955     27005     26958     26961     26962     26958     26961     26963
     26958     26961     26964     26959     26958     26960     26959     26958     26961
     26960     26958     26961     26961     26964     26965     26961     26964     26966
     26961     26964     26967     26962     26961     26963     26962     26961     26964
     26963     26961     26964     26964     26967     26968     26964     26967     26969
     26964     26967     26970     26965     26964     26966     26965     26964     26967
     26966     26964     26967     26967     26970     26971     26967     26970     26972
     26967     26970     26973     26968     26967     26969     26968     26967     26970
     26969     26967     26970     26970     26973     26974     26970     26973     26975
     26970     26973     26976     26971     26970     26972     26971     26970     26973
     26972     26970     26973     26973     26976     26977     26973     26976     26978
     26974     26973     26975     26974     26973     26976     26975     26973     26976
     26976     26978     26979     26976     26978     26980     26977     26976     26978
     26978     26980     26981     26978     26980     26982     26978     26980     26983
     26979     26978     26980     26980     26983     26984     26980     26983     26985
     26980     26983     26986     26981     26980     26982     26981     26980     26983
     26982     26980     26983     26983     26986     26987     26983     26986     26988
     26983     26986     26989     26984     26983     26985     26984     26983     26986
     26985     26983     26986     26986     26989     26990     26986     26989     26991
     26986     26989     26992     26987     26986     26988     26987     26986     26989
     26988     26986     26989     26989     26992     26993     26989     26992     26994
     26989     26992     26995     26990     26989     26991     26990     26989     26992
     26991     26989     26992     26992     26995     26996     26992     26995     26997
     26992     26995     26998     26993     26992     26994     26993     26992     26995
     26994     26992     26995     26995     26998     26999     26995     26998     27000
     26995     26998     27001     26996     26995     26997     26996     26995     26998
     26997     26995     26998     26998     27001     27002     26998     27001     27003
     26998     27001     27004     26999     26998     27000     26999     26998     27001
     27000     26998     27001     27002     27001     27003     27002     27001     27004
     27003     27001     27004     27005     27008     27009     27005     27008     27010
     27005     27008     27011     27006     27005     27007     27006     27005     27008
     27007     27005     27008     27008     27011     27012     27008     27011     27013
     27008     27011     27014     27009     27008     27010     27009     27008     27011
     27010     27008     27011     27011     27014     27015     27011     27014     27016
     27011     27014     27017     27012     27011     27013     27012     27011     27014
     27013     27011     27014     27014     27017     27018     27014     27017     27019
     27014     27017     27020     27015     27014     27016     27015     27014     27017
     27016     27014     27017     27017     27020     27021     27017     27020     27022
     27017     27020     27023     27018     27017     27019     27018     27017     27020
     27019     27017     27020     27020     27023     27024     27020     27023     27025
     27020     27023     27026     27021     27020     27022     27021     27020     27023
     27022     27020     27023     27023     27026     27027     27023     27026     27028
     27023     27026     27029     27024     27023     27025     27024     27023     27026
     27025     27023     27026     27026     27029     27030     27026     27029     27031
     27026     27029     27032     27027     27026     27028     27027     27026     27029
     27028     27026     27029     27029     27032     27033     27029     27032     27034
     27029     27032     27035     27030     27029     27031     27030     27029     27032
     27031     27029     27032     27032     27035     27036     27032     27035     27037
     27032     27035     27038     27033     27032     27034     27033     27032     27035
     27034     27032     27035     27035     27038     27039     27035     27038     27040
     27035     27038     27041     27036     27035     27037     27036     27035     27038
     27037     27035     27038     27038     27041     27042     27038     27041     27043
     27038     27041     27044     27039     27038     27040     27039     27038     27041
     27040     27038     27041     27041     27044     27045     27041     27044     27046
     27041     27044     27047     27042     27041     27043     27042     27041     27044
     27043     27041     27044     27045     27044     27046     27045     27044     27047
     27046     27044     27047     27048     27049     27050     27048     27049     27051
     27048     27049     27064     27048     27052     27053     27048     27052     27054
     27048     27052     27055     27048     27056     27057     27048     27056     27058
     27048     27056     27059     27048     27060     27061     27048     27060     27062
     27048     27060     27063     27049     27048     27052     27049     27048     27056
     27049     27048     27060     27049     27064     27065     27049     27064     27066
     27049     27064     27070     27050     27049     27051     27050     27049     27064
     27051     27049     27064     27052     27048     27056     27052     27048     27060
     27053     27052     27054     27053     27052     27055     27054     27052     27055
     27056     27048     27060     27057     27056     27058     27057     27056     27059
     27058     27056     27059     27061     27060     27062     27061     27060     27063
     27062     27060     27063     27064     27070     27067     27065     27064     27066
     27065     27064     27070     27066     27064     27070     27067     27071     27072
     27068     27067     27069     27068     27067     27070     27068     27067     27071
     27069     27067     27070     27069     27067     27071     27070     27067     27071
     27071     27072     27073     27071     27072     27074     27071     27072     27075
     27072     27075     27076     27072     27075     27077     27072     27075     27083
     27073     27072     27074     27073     27072     27075     27074     27072     27075
     27075     27077     27078     27075     27083     27084     27075     27083     27085
     27075     27083     27086     27076     27075     27077     27076     27075     27083
     27077     27075     27083     27077     27078     27079     27077     27078     27080
     27078     27080     27081     27078     27080     27082     27078     27080     27092
     27079     27078     27080     27080     27092     27093     27080     27092     27094
     27080     27092     27095     27081     27080     27082     27081     27080     27092
     27082     27080     27092     27083     27086     27087     27084     27083     27085
     27084     27083     27086     27085     27083     27086     27086     27087     27088
     27086     27087     27089     27087     27089     27090     27087     27089     27091
     27087     27089     27139     27088     27087     27089     27089     27139     27140
     27089     27139     27141     27089     27139     27142     27090     27089     27091
     27090     27089     27139     27091     27089     27139     27092     27095     27096
     27092     27095     27097     27092     27095     27098     27093     27092     27094
     27093     27092     27095     27094     27092     27095     27095     27098     27099
     27095     27098     27100     27095     27098     27101     27096     27095     27097
     27096     27095     27098     27097     27095     27098     27098     27101     27102
     27098     27101     27103     27098     27101     27104     27099     27098     27100
     27099     27098     27101     27100     27098     27101     27101     27104     27105
     27101     27104     27106     27101     27104     27107     27102     27101     27103
     27102     27101     27104     27103     27101     27104     27104     27107     27108
     27104     27107     27109     27104     27107     27110     27105     27104     27106
     27105     27104     27107     27106     27104     27107     27107     27110     27111
     27107     27110     27112     27108     27107     27109     27108     27107     27110
     27109     27107     27110     27110     27112     27113     27110     27112     27114
     27111     27110     27112     27112     27114     27115     27112     27114     27116
     27112     27114     27117     27113     27112     27114     27114     27117     27118
     27114     27117     27119     27114     27117     27120     27115     27114     27116
     27115     27114     27117     27116     27114     27117     27117     27120     27121
     27117     27120     27122     27117     27120     27123     27118     27117     27119
     27118     27117     27120     27119     27117     27120     27120     27123     27124
     27120     27123     27125     27120     27123     27126     27121     27120     27122
     27121     27120     27123     27122     27120     27123     27123     27126     27127
     27123     27126     27128     27123     27126     27129     27124     27123     27125
     27124     27123     27126     27125     27123     27126     27126     27129     27130
     27126     27129     27131     27126     27129     27132     27127     27126     27128
     27127     27126     27129     27128     27126     27129     27129     27132     27133
     27129     27132     27134     27129     27132     27135     27130     27129     27131
     27130     27129     27132     27131     27129     27132     27132     27135     27136
     27132     27135     27137     27132     27135     27138     27133     27132     27134
     27133     27132     27135     27134     27132     27135     27136     27135     27137
     27136     27135     27138     27137     27135     27138     27139     27142     27143
     27139     27142     27144     27139     27142     27145     27140     27139     27141
     27140     27139     27142     27141     27139     27142     27142     27145     27146
     27142     27145     27147     27142     27145     27148     27143     27142     27144
     27143     27142     27145     27144     27142     27145     27145     27148     27149
     27145     27148     27150     27145     27148     27151     27146     27145     27147
     27146     27145     27148     27147     27145     27148     27148     27151     27152
     27148     27151     27153     27148     27151     27154     27149     27148     27150
     27149     27148     27151     27150     27148     27151     27151     27154     27155
     27151     27154     27156     27151     27154     27157     27152     27151     27153
     27152     27151     27154     27153     27151     27154     27154     27157     27158
     27154     27157     27159     27154     27157     27160     27155     27154     27156
     27155     27154     27157     27156     27154     27157     27157     27160     27161
     27157     27160     27162     27157     27160     27163     27158     27157     27159
     27158     27157     27160     27159     27157     27160     27160     27163     27164
     27160     27163     27165     27160     27163     27166     27161     27160     27162
     27161     27160     27163     27162     27160     27163     27163     27166     27167
     27163     27166     27168     27163     27166     27169     27164     27163     27165
     27164     27163     27166     27165     27163     27166     27166     27169     27170
     27166     27169     27171     27166     27169     27172     27167     27166     27168
     27167     27166     27169     27168     27166     27169     27169     27172     27173
     27169     27172     27174     27169     27172     27175     27170     27169     27171
     27170     27169     27172     27171     27169     27172     27172     27175     27176
     27172     27175     27177     27172     27175     27178     27173     27172     27174
     27173     27172     27175     27174     27172     27175     27175     27178     27179
     27175     27178     27180     27175     27178     27181     27176     27175     27177
     27176     27175     27178     27177     27175     27178     27179     27178     27180
     27179     27178     27181     27180     27178     27181     27182     27183     27184
     27182     27183     27185     27182     27183     27198     27182     27186     27187
     27182     27186     27188     27182     27186     27189     27182     27190     27191
     27182     27190     27192     27182     27190     27193     27182     27194     27195
     27182     27194     27196     27182     27194     27197     27183     27182     27186
     27183     27182     27190     27183     27182     27194     27183     27198     27199
     27183     27198     27200     27183     27198     27204     27184     27183     27185
     27184     27183     27198     27185     27183     27198     27186     27182     27190
     27186     27182     27194     27187     27186     27188     27187     27186     27189
     27188     27186     27189     27190     27182     27194     27191     27190     27192
     27191     27190     27193     27192     27190     27193     27195     27194     27196
     27195     27194     27197     27196     27194     27197     27198     27204     27201
     27199     27198     27200     27199     27198     27204     27200     27198     27204
     27201     27205     27206     27202     27201     27203     27202     27201     27204
     27202     27201     27205     27203     27201     27204     27203     27201     27205
     27204     27201     27205     27205     27206     27207     27205     27206     27208
     27205     27206     27209     27206     27209     27210     27206     27209     27211
     27206     27209     27217     27207     27206     27208     27207     27206     27209
     27208     27206     27209     27209     27211     27212     27209     27217     27218
     27209     27217     27219     27209     27217     27220     27210     27209     27211
     27210     27209     27217     27211     27209     27217     27211     27212     27213
     27211     27212     27214     27212     27214     27215     27212     27214     27216
     27212     27214     27226     27213     27212     27214     27214     27226     27227
     27214     27226     27228     27214     27226     27229     27215     27214     27216
     27215     27214     27226     27216     27214     27226     27217     27220     27221
     27218     27217     27219     27218     27217     27220     27219     27217     27220
     27220     27221     27222     27220     27221     27223     27221     27223     27224
     27221     27223     27225     27221     27223     27273     27222     27221     27223
     27223     27273     27274     27223     27273     27275     27223     27273     27276
     27224     27223     27225     27224     27223     27273     27225     27223     27273
     27226     27229     27230     27226     27229     27231     27226     27229     27232
     27227     27226     27228     27227     27226     27229     27228     27226     27229
     27229     27232     27233     27229     27232     27234     27229     27232     27235
     27230     27229     27231     27230     27229     27232     27231     27229     27232
     27232     27235     27236     27232     27235     27237     27232     27235     27238
     27233     27232     27234     27233     27232     27235     27234     27232     27235
     27235     27238     27239     27235     27238     27240     27235     27238     27241
     27236     27235     27237     27236     27235     27238     27237     27235     27238
     27238     27241     27242     27238     27241     27243     27238     27241     27244
     27239     27238     27240     27239     27238     27241     27240     27238     27241
     27241     27244     27245     27241     27244     27246     27242     27241     27243
     27242     27241     27244     27243     27241     27244     27244     27246     27247
     27244     27246     27248     27245     27244     27246     27246     27248     27249
     27246     27248     27250     27246     27248     27251     27247     27246     27248
     27248     27251     27252     27248     27251     27253     27248     27251     27254
     27249     27248     27250     27249     27248     27251     27250     27248     27251
     27251     27254     27255     27251     27254     27256     27251     27254     27257
     27252     27251     27253     27252     27251     27254     27253     27251     27254
     27254     27257     27258     27254     27257     27259     27254     27257     27260
     27255     27254     27256     27255     27254     27257     27256     27254     27257
     27257     27260     27261     27257     27260     27262     27257     27260     27263
     27258     27257     27259     27258     27257     27260     27259     27257     27260
     27260     27263     27264     27260     27263     27265     27260     27263     27266
     27261     27260     27262     27261     27260     27263     27262     27260     27263
     27263     27266     27267     27263     27266     27268     27263     27266     27269
     27264     27263     27265     27264     27263     27266     27265     27263     27266
     27266     27269     27270     27266     27269     27271     27266     27269     27272
     27267     27266     27268     27267     27266     27269     27268     27266     27269
     27270     27269     27271     27270     27269     27272     27271     27269     27272
     27273     27276     27277     27273     27276     27278     27273     27276     27279
     27274     27273     27275     27274     27273     27276     27275     27273     27276
     27276     27279     27280     27276     27279     27281     27276     27279     27282
     27277     27276     27278     27277     27276     27279     27278     27276     27279
     27279     27282     27283     27279     27282     27284     27279     27282     27285
     27280     27279     27281     27280     27279     27282     27281     27279     27282
     27282     27285     27286     27282     27285     27287     27282     27285     27288
     27283     27282     27284     27283     27282     27285     27284     27282     27285
     27285     27288     27289     27285     27288     27290     27285     27288     27291
     27286     27285     27287     27286     27285     27288     27287     27285     27288
     27288     27291     27292     27288     27291     27293     27288     27291     27294
     27289     27288     27290     27289     27288     27291     27290     27288     27291
     27291     27294     27295     27291     27294     27296     27291     27294     27297
     27292     27291     27293     27292     27291     27294     27293     27291     27294
     27294     27297     27298     27294     27297     27299     27294     27297     27300
     27295     27294     27296     27295     27294     27297     27296     27294     27297
     27297     27300     27301     27297     27300     27302     27297     27300     27303
     27298     27297     27299     27298     27297     27300     27299     27297     27300
     27300     27303     27304     27300     27303     27305     27300     27303     27306
     27301     27300     27302     27301     27300     27303     27302     27300     27303
     27303     27306     27307     27303     27306     27308     27303     27306     27309
     27304     27303     27305     27304     27303     27306     27305     27303     27306
     27306     27309     27310     27306     27309     27311     27306     27309     27312
     27307     27306     27308     27307     27306     27309     27308     27306     27309
     27309     27312     27313     27309     27312     27314     27309     27312     27315
     27310     27309     27311     27310     27309     27312     27311     27309     27312
     27313     27312     27314     27313     27312     27315     27314     27312     27315
     27316     27317     27318     27316     27317     27319     27316     27317     27332
     27316     27320     27321     27316     27320     27322     27316     27320     27323
     27316     27324     27325     27316     27324     27326     27316     27324     27327
     27316     27328     27329     27316     27328     27330     27316     27328     27331
     27317     27316     27320     27317     27316     27324     27317     27316     27328
     27317     27332     27333     27317     27332     27334     27317     27332     27338
     27318     27317     27319     27318     27317     27332     27319     27317     27332
     27320     27316     27324     27320     27316     27328     27321     27320     27322
     27321     27320     27323     27322     27320     27323     27324     27316     27328
     27325     27324     27326     27325     27324     27327     27326     27324     27327
     27329     27328     27330     27329     27328     27331     27330     27328     27331
     27332     27338     27335     27333     27332     27334     27333     27332     27338
     27334     27332     27338     27335     27339     27340     27336     27335     27337
     27336     27335     27338     27336     27335     27339     27337     27335     27338
     27337     27335     27339     27338     27335     27339     27339     27340     27341
     27339     27340     27342     27339     27340     27343     27340     27343     27344
     27340     27343     27345     27340     27343     27351     27341     27340     27342
     27341     27340     27343     27342     27340     27343     27343     27345     27346
     27343     27351     27352     27343     27351     27353     27343     27351     27354
     27344     27343     27345     27344     27343     27351     27345     27343     27351
     27345     27346     27347     27345     27346     27348     27346     27348     27349
     27346     27348     27350     27346     27348     27360     27347     27346     27348
     27348     27360     27361     27348     27360     27362     27348     27360     27363
     27349     27348     27350     27349     27348     27360     27350     27348     27360
     27351     27354     27355     27352     27351     27353     27352     27351     27354
     27353     27351     27354     27354     27355     27356     27354     27355     27357
     27355     27357     27358     27355     27357     27359     27355     27357     27407
     27356     27355     27357     27357     27407     27408     27357     27407     27409
     27357     27407     27410     27358     27357     27359     27358     27357     27407
     27359     27357     27407     27360     27363     27364     27360     27363     27365
     27360     27363     27366     27361     27360     27362     27361     27360     27363
     27362     27360     27363     27363     27366     27367     27363     27366     27368
     27363     27366     27369     27364     27363     27365     27364     27363     27366
     27365     27363     27366     27366     27369     27370     27366     27369     27371
     27366     27369     27372     27367     27366     27368     27367     27366     27369
     27368     27366     27369     27369     27372     27373     27369     27372     27374
     27369     27372     27375     27370     27369     27371     27370     27369     27372
     27371     27369     27372     27372     27375     27376     27372     27375     27377
     27372     27375     27378     27373     27372     27374     27373     27372     27375
     27374     27372     27375     27375     27378     27379     27375     27378     27380
     27376     27375     27377     27376     27375     27378     27377     27375     27378
     27378     27380     27381     27378     27380     27382     27379     27378     27380
     27380     27382     27383     27380     27382     27384     27380     27382     27385
     27381     27380     27382     27382     27385     27386     27382     27385     27387
     27382     27385     27388     27383     27382     27384     27383     27382     27385
     27384     27382     27385     27385     27388     27389     27385     27388     27390
     27385     27388     27391     27386     27385     27387     27386     27385     27388
     27387     27385     27388     27388     27391     27392     27388     27391     27393
     27388     27391     27394     27389     27388     27390     27389     27388     27391
     27390     27388     27391     27391     27394     27395     27391     27394     27396
     27391     27394     27397     27392     27391     27393     27392     27391     27394
     27393     27391     27394     27394     27397     27398     27394     27397     27399
     27394     27397     27400     27395     27394     27396     27395     27394     27397
     27396     27394     27397     27397     27400     27401     27397     27400     27402
     27397     27400     27403     27398     27397     27399     27398     27397     27400
     27399     27397     27400     27400     27403     27404     27400     27403     27405
     27400     27403     27406     27401     27400     27402     27401     27400     27403
     27402     27400     27403     27404     27403     27405     27404     27403     27406
     27405     27403     27406     27407     27410     27411     27407     27410     27412
     27407     27410     27413     27408     27407     27409     27408     27407     27410
     27409     27407     27410     27410     27413     27414     27410     27413     27415
     27410     27413     27416     27411     27410     27412     27411     27410     27413
     27412     27410     27413     27413     27416     27417     27413     27416     27418
     27413     27416     27419     27414     27413     27415     27414     27413     27416
     27415     27413     27416     27416     27419     27420     27416     27419     27421
     27416     27419     27422     27417     27416     27418     27417     27416     27419
     27418     27416     27419     27419     27422     27423     27419     27422     27424
     27419     27422     27425     27420     27419     27421     27420     27419     27422
     27421     27419     27422     27422     27425     27426     27422     27425     27427
     27422     27425     27428     27423     27422     27424     27423     27422     27425
     27424     27422     27425     27425     27428     27429     27425     27428     27430
     27425     27428     27431     27426     27425     27427     27426     27425     27428
     27427     27425     27428     27428     27431     27432     27428     27431     27433
     27428     27431     27434     27429     27428     27430     27429     27428     27431
     27430     27428     27431     27431     27434     27435     27431     27434     27436
     27431     27434     27437     27432     27431     27433     27432     27431     27434
     27433     27431     27434     27434     27437     27438     27434     27437     27439
     27434     27437     27440     27435     27434     27436     27435     27434     27437
     27436     27434     27437     27437     27440     27441     27437     27440     27442
     27437     27440     27443     27438     27437     27439     27438     27437     27440
     27439     27437     27440     27440     27443     27444     27440     27443     27445
     27440     27443     27446     27441     27440     27442     27441     27440     27443
     27442     27440     27443     27443     27446     27447     27443     27446     27448
     27443     27446     27449     27444     27443     27445     27444     27443     27446
     27445     27443     27446     27447     27446     27448     27447     27446     27449
     27448     27446     27449     27450     27451     27452     27450     27451     27453
     27450     27451     27466     27450     27454     27455     27450     27454     27456
     27450     27454     27457     27450     27458     27459     27450     27458     27460
     27450     27458     27461     27450     27462     27463     27450     27462     27464
     27450     27462     27465     27451     27450     27454     27451     27450     27458
     27451     27450     27462     27451     27466     27467     27451     27466     27468
     27451     27466     27472     27452     27451     27453     27452     27451     27466
     27453     27451     27466     27454     27450     27458     27454     27450     27462
     27455     27454     27456     27455     27454     27457     27456     27454     27457
     27458     27450     27462     27459     27458     27460     27459     27458     27461
     27460     27458     27461     27463     27462     27464     27463     27462     27465
     27464     27462     27465     27466     27472     27469     27467     27466     27468
     27467     27466     27472     27468     27466     27472     27469     27473     27474
     27470     27469     27471     27470     27469     27472     27470     27469     27473
     27471     27469     27472     27471     27469     27473     27472     27469     27473
     27473     27474     27475     27473     27474     27476     27473     27474     27477
     27474     27477     27478     27474     27477     27479     27474     27477     27485
     27475     27474     27476     27475     27474     27477     27476     27474     27477
     27477     27479     27480     27477     27485     27486     27477     27485     27487
     27477     27485     27488     27478     27477     27479     27478     27477     27485
     27479     27477     27485     27479     27480     27481     27479     27480     27482
     27480     27482     27483     27480     27482     27484     27480     27482     27494
     27481     27480     27482     27482     27494     27495     27482     27494     27496
     27482     27494     27497     27483     27482     27484     27483     27482     27494
     27484     27482     27494     27485     27488     27489     27486     27485     27487
     27486     27485     27488     27487     27485     27488     27488     27489     27490
     27488     27489     27491     27489     27491     27492     27489     27491     27493
     27489     27491     27541     27490     27489     27491     27491     27541     27542
     27491     27541     27543     27491     27541     27544     27492     27491     27493
     27492     27491     27541     27493     27491     27541     27494     27497     27498
     27494     27497     27499     27494     27497     27500     27495     27494     27496
     27495     27494     27497     27496     27494     27497     27497     27500     27501
     27497     27500     27502     27497     27500     27503     27498     27497     27499
     27498     27497     27500     27499     27497     27500     27500     27503     27504
     27500     27503     27505     27500     27503     27506     27501     27500     27502
     27501     27500     27503     27502     27500     27503     27503     27506     27507
     27503     27506     27508     27503     27506     27509     27504     27503     27505
     27504     27503     27506     27505     27503     27506     27506     27509     27510
     27506     27509     27511     27506     27509     27512     27507     27506     27508
     27507     27506     27509     27508     27506     27509     27509     27512     27513
     27509     27512     27514     27510     27509     27511     27510     27509     27512
     27511     27509     27512     27512     27514     27515     27512     27514     27516
     27513     27512     27514     27514     27516     27517     27514     27516     27518
     27514     27516     27519     27515     27514     27516     27516     27519     27520
     27516     27519     27521     27516     27519     27522     27517     27516     27518
     27517     27516     27519     27518     27516     27519     27519     27522     27523
     27519     27522     27524     27519     27522     27525     27520     27519     27521
     27520     27519     27522     27521     27519     27522     27522     27525     27526
     27522     27525     27527     27522     27525     27528     27523     27522     27524
     27523     27522     27525     27524     27522     27525     27525     27528     27529
     27525     27528     27530     27525     27528     27531     27526     27525     27527
     27526     27525     27528     27527     27525     27528     27528     27531     27532
     27528     27531     27533     27528     27531     27534     27529     27528     27530
     27529     27528     27531     27530     27528     27531     27531     27534     27535
     27531     27534     27536     27531     27534     27537     27532     27531     27533
     27532     27531     27534     27533     27531     27534     27534     27537     27538
     27534     27537     27539     27534     27537     27540     27535     27534     27536
     27535     27534     27537     27536     27534     27537     27538     27537     27539
     27538     27537     27540     27539     27537     27540     27541     27544     27545
     27541     27544     27546     27541     27544     27547     27542     27541     27543
     27542     27541     27544     27543     27541     27544     27544     27547     27548
     27544     27547     27549     27544     27547     27550     27545     27544     27546
     27545     27544     27547     27546     27544     27547     27547     27550     27551
     27547     27550     27552     27547     27550     27553     27548     27547     27549
     27548     27547     27550     27549     27547     27550     27550     27553     27554
     27550     27553     27555     27550     27553     27556     27551     27550     27552
     27551     27550     27553     27552     27550     27553     27553     27556     27557
     27553     27556     27558     27553     27556     27559     27554     27553     27555
     27554     27553     27556     27555     27553     27556     27556     27559     27560
     27556     27559     27561     27556     27559     27562     27557     27556     27558
     27557     27556     27559     27558     27556     27559     27559     27562     27563
     27559     27562     27564     27559     27562     27565     27560     27559     27561
     27560     27559     27562     27561     27559     27562     27562     27565     27566
     27562     27565     27567     27562     27565     27568     27563     27562     27564
     27563     27562     27565     27564     27562     27565     27565     27568     27569
     27565     27568     27570     27565     27568     27571     27566     27565     27567
     27566     27565     27568     27567     27565     27568     27568     27571     27572
     27568     27571     27573     27568     27571     27574     27569     27568     27570
     27569     27568     27571     27570     27568     27571     27571     27574     27575
     27571     27574     27576     27571     27574     27577     27572     27571     27573
     27572     27571     27574     27573     27571     27574     27574     27577     27578
     27574     27577     27579     27574     27577     27580     27575     27574     27576
     27575     27574     27577     27576     27574     27577     27577     27580     27581
     27577     27580     27582     27577     27580     27583     27578     27577     27579
     27578     27577     27580     27579     27577     27580     27581     27580     27582
     27581     27580     27583     27582     27580     27583     27584     27588     27589
     27584     27588     27590     27584     27588     27591     27585     27584     27586
     27585     27584     27587     27585     27584     27588     27586     27584     27587
     27586     27584     27588     27587     27584     27588     27588     27591     27592
     27588     27591     27593     27588     27591     27598     27589     27588     27590
     27589     27588     27591     27590     27588     27591     27591     27598     27594
     27592     27591     27593     27592     27591     27598     27593     27591     27598
     27594     27597     27599     27595     27594     27596     27595     27594     27597
     27595     27594     27598     27596     27594     27597     27596     27594     27598
     27597     27594     27598     27597     27599     27600     27597     27599     27601
     27597     27599     27602     27599     27602     27603     27599     27602     27604
     27599     27602     27610     27600     27599     27601     27600     27599     27602
     27601     27599     27602     27602     27604     27605     27602     27610     27611
     27602     27610     27612     27602     27610     27613     27603     27602     27604
     27603     27602     27610     27604     27602     27610     27604     27605     27606
     27604     27605     27607     27605     27607     27608     27605     27607     27609
     27605     27607     27619     27606     27605     27607     27607     27619     27620
     27607     27619     27621     27607     27619     27622     27608     27607     27609
     27608     27607     27619     27609     27607     27619     27610     27613     27614
     27611     27610     27612     27611     27610     27613     27612     27610     27613
     27613     27614     27615     27613     27614     27616     27614     27616     27617
     27614     27616     27618     27614     27616     27666     27615     27614     27616
     27616     27666     27667     27616     27666     27668     27616     27666     27669
     27617     27616     27618     27617     27616     27666     27618     27616     27666
     27619     27622     27623     27619     27622     27624     27619     27622     27625
     27620     27619     27621     27620     27619     27622     27621     27619     27622
     27622     27625     27626     27622     27625     27627     27622     27625     27628
     27623     27622     27624     27623     27622     27625     27624     27622     27625
     27625     27628     27629     27625     27628     27630     27625     27628     27631
     27626     27625     27627     27626     27625     27628     27627     27625     27628
     27628     27631     27632     27628     27631     27633     27628     27631     27634
     27629     27628     27630     27629     27628     27631     27630     27628     27631
     27631     27634     27635     27631     27634     27636     27631     27634     27637
     27632     27631     27633     27632     27631     27634     27633     27631     27634
     27634     27637     27638     27634     27637     27639     27635     27634     27636
     27635     27634     27637     27636     27634     27637     27637     27639     27640
     27637     27639     27641     27638     27637     27639     27639     27641     27642
     27639     27641     27643     27639     27641     27644     27640     27639     27641
     27641     27644     27645     27641     27644     27646     27641     27644     27647
     27642     27641     27643     27642     27641     27644     27643     27641     27644
     27644     27647     27648     27644     27647     27649     27644     27647     27650
     27645     27644     27646     27645     27644     27647     27646     27644     27647
     27647     27650     27651     27647     27650     27652     27647     27650     27653
     27648     27647     27649     27648     27647     27650     27649     27647     27650
     27650     27653     27654     27650     27653     27655     27650     27653     27656
     27651     27650     27652     27651     27650     27653     27652     27650     27653
     27653     27656     27657     27653     27656     27658     27653     27656     27659
     27654     27653     27655     27654     27653     27656     27655     27653     27656
     27656     27659     27660     27656     27659     27661     27656     27659     27662
     27657     27656     27658     27657     27656     27659     27658     27656     27659
     27659     27662     27663     27659     27662     27664     27659     27662     27665
     27660     27659     27661     27660     27659     27662     27661     27659     27662
     27663     27662     27664     27663     27662     27665     27664     27662     27665
     27666     27669     27670     27666     27669     27671     27666     27669     27672
     27667     27666     27668     27667     27666     27669     27668     27666     27669
     27669     27672     27673     27669     27672     27674     27669     27672     27675
     27670     27669     27671     27670     27669     27672     27671     27669     27672
     27672     27675     27676     27672     27675     27677     27672     27675     27678
     27673     27672     27674     27673     27672     27675     27674     27672     27675
     27675     27678     27679     27675     27678     27680     27675     27678     27681
     27676     27675     27677     27676     27675     27678     27677     27675     27678
     27678     27681     27682     27678     27681     27683     27678     27681     27684
     27679     27678     27680     27679     27678     27681     27680     27678     27681
     27681     27684     27685     27681     27684     27686     27681     27684     27687
     27682     27681     27683     27682     27681     27684     27683     27681     27684
     27684     27687     27688     27684     27687     27689     27684     27687     27690
     27685     27684     27686     27685     27684     27687     27686     27684     27687
     27687     27690     27691     27687     27690     27692     27687     27690     27693
     27688     27687     27689     27688     27687     27690     27689     27687     27690
     27690     27693     27694     27690     27693     27695     27690     27693     27696
     27691     27690     27692     27691     27690     27693     27692     27690     27693
     27693     27696     27697     27693     27696     27698     27693     27696     27699
     27694     27693     27695     27694     27693     27696     27695     27693     27696
     27696     27699     27700     27696     27699     27701     27696     27699     27702
     27697     27696     27698     27697     27696     27699     27698     27696     27699
     27699     27702     27703     27699     27702     27704     27699     27702     27705
     27700     27699     27701     27700     27699     27702     27701     27699     27702
     27702     27705     27706     27702     27705     27707     27702     27705     27708
     27703     27702     27704     27703     27702     27705     27704     27702     27705
     27706     27705     27707     27706     27705     27708     27707     27705     27708
     27709     27713     27714     27709     27713     27715     27709     27713     27716
     27710     27709     27711     27710     27709     27712     27710     27709     27713
     27711     27709     27712     27711     27709     27713     27712     27709     27713
     27713     27716     27717     27713     27716     27718     27713     27716     27723
     27714     27713     27715     27714     27713     27716     27715     27713     27716
     27716     27723     27719     27717     27716     27718     27717     27716     27723
     27718     27716     27723     27719     27722     27724     27720     27719     27721
     27720     27719     27722     27720     27719     27723     27721     27719     27722
     27721     27719     27723     27722     27719     27723     27722     27724     27725
     27722     27724     27726     27722     27724     27727     27724     27727     27728
     27724     27727     27729     27724     27727     27735     27725     27724     27726
     27725     27724     27727     27726     27724     27727     27727     27729     27730
     27727     27735     27736     27727     27735     27737     27727     27735     27738
     27728     27727     27729     27728     27727     27735     27729     27727     27735
     27729     27730     27731     27729     27730     27732     27730     27732     27733
     27730     27732     27734     27730     27732     27744     27731     27730     27732
     27732     27744     27745     27732     27744     27746     27732     27744     27747
     27733     27732     27734     27733     27732     27744     27734     27732     27744
     27735     27738     27739     27736     27735     27737     27736     27735     27738
     27737     27735     27738     27738     27739     27740     27738     27739     27741
     27739     27741     27742     27739     27741     27743     27739     27741     27791
     27740     27739     27741     27741     27791     27792     27741     27791     27793
     27741     27791     27794     27742     27741     27743     27742     27741     27791
     27743     27741     27791     27744     27747     27748     27744     27747     27749
     27744     27747     27750     27745     27744     27746     27745     27744     27747
     27746     27744     27747     27747     27750     27751     27747     27750     27752
     27747     27750     27753     27748     27747     27749     27748     27747     27750
     27749     27747     27750     27750     27753     27754     27750     27753     27755
     27750     27753     27756     27751     27750     27752     27751     27750     27753
     27752     27750     27753     27753     27756     27757     27753     27756     27758
     27753     27756     27759     27754     27753     27755     27754     27753     27756
     27755     27753     27756     27756     27759     27760     27756     27759     27761
     27756     27759     27762     27757     27756     27758     27757     27756     27759
     27758     27756     27759     27759     27762     27763     27759     27762     27764
     27760     27759     27761     27760     27759     27762     27761     27759     27762
     27762     27764     27765     27762     27764     27766     27763     27762     27764
     27764     27766     27767     27764     27766     27768     27764     27766     27769
     27765     27764     27766     27766     27769     27770     27766     27769     27771
     27766     27769     27772     27767     27766     27768     27767     27766     27769
     27768     27766     27769     27769     27772     27773     27769     27772     27774
     27769     27772     27775     27770     27769     27771     27770     27769     27772
     27771     27769     27772     27772     27775     27776     27772     27775     27777
     27772     27775     27778     27773     27772     27774     27773     27772     27775
     27774     27772     27775     27775     27778     27779     27775     27778     27780
     27775     27778     27781     27776     27775     27777     27776     27775     27778
     27777     27775     27778     27778     27781     27782     27778     27781     27783
     27778     27781     27784     27779     27778     27780     27779     27778     27781
     27780     27778     27781     27781     27784     27785     27781     27784     27786
     27781     27784     27787     27782     27781     27783     27782     27781     27784
     27783     27781     27784     27784     27787     27788     27784     27787     27789
     27784     27787     27790     27785     27784     27786     27785     27784     27787
     27786     27784     27787     27788     27787     27789     27788     27787     27790
     27789     27787     27790     27791     27794     27795     27791     27794     27796
     27791     27794     27797     27792     27791     27793     27792     27791     27794
     27793     27791     27794     27794     27797     27798     27794     27797     27799
     27794     27797     27800     27795     27794     27796     27795     27794     27797
     27796     27794     27797     27797     27800     27801     27797     27800     27802
     27797     27800     27803     27798     27797     27799     27798     27797     27800
     27799     27797     27800     27800     27803     27804     27800     27803     27805
     27800     27803     27806     27801     27800     27802     27801     27800     27803
     27802     27800     27803     27803     27806     27807     27803     27806     27808
     27803     27806     27809     27804     27803     27805     27804     27803     27806
     27805     27803     27806     27806     27809     27810     27806     27809     27811
     27806     27809     27812     27807     27806     27808     27807     27806     27809
     27808     27806     27809     27809     27812     27813     27809     27812     27814
     27809     27812     27815     27810     27809     27811     27810     27809     27812
     27811     27809     27812     27812     27815     27816     27812     27815     27817
     27812     27815     27818     27813     27812     27814     27813     27812     27815
     27814     27812     27815     27815     27818     27819     27815     27818     27820
     27815     27818     27821     27816     27815     27817     27816     27815     27818
     27817     27815     27818     27818     27821     27822     27818     27821     27823
     27818     27821     27824     27819     27818     27820     27819     27818     27821
     27820     27818     27821     27821     27824     27825     27821     27824     27826
     27821     27824     27827     27822     27821     27823     27822     27821     27824
     27823     27821     27824     27824     27827     27828     27824     27827     27829
     27824     27827     27830     27825     27824     27826     27825     27824     27827
     27826     27824     27827     27827     27830     27831     27827     27830     27832
     27827     27830     27833     27828     27827     27829     27828     27827     27830
     27829     27827     27830     27831     27830     27832     27831     27830     27833
     27832     27830     27833     27834     27838     27839     27834     27838     27840
     27834     27838     27841     27835     27834     27836     27835     27834     27837
     27835     27834     27838     27836     27834     27837     27836     27834     27838
     27837     27834     27838     27838     27841     27842     27838     27841     27843
     27838     27841     27848     27839     27838     27840     27839     27838     27841
     27840     27838     27841     27841     27848     27844     27842     27841     27843
     27842     27841     27848     27843     27841     27848     27844     27847     27849
     27845     27844     27846     27845     27844     27847     27845     27844     27848
     27846     27844     27847     27846     27844     27848     27847     27844     27848
     27847     27849     27850     27847     27849     27851     27847     27849     27852
     27849     27852     27853     27849     27852     27854     27849     27852     27860
     27850     27849     27851     27850     27849     27852     27851     27849     27852
     27852     27854     27855     27852     27860     27861     27852     27860     27862
     27852     27860     27863     27853     27852     27854     27853     27852     27860
     27854     27852     27860     27854     27855     27856     27854     27855     27857
     27855     27857     27858     27855     27857     27859     27855     27857     27869
     27856     27855     27857     27857     27869     27870     27857     27869     27871
     27857     27869     27872     27858     27857     27859     27858     27857     27869
     27859     27857     27869     27860     27863     27864     27861     27860     27862
     27861     27860     27863     27862     27860     27863     27863     27864     27865
     27863     27864     27866     27864     27866     27867     27864     27866     27868
     27864     27866     27916     27865     27864     27866     27866     27916     27917
     27866     27916     27918     27866     27916     27919     27867     27866     27868
     27867     27866     27916     27868     27866     27916     27869     27872     27873
     27869     27872     27874     27869     27872     27875     27870     27869     27871
     27870     27869     27872     27871     27869     27872     27872     27875     27876
     27872     27875     27877     27872     27875     27878     27873     27872     27874
     27873     27872     27875     27874     27872     27875     27875     27878     27879
     27875     27878     27880     27875     27878     27881     27876     27875     27877
     27876     27875     27878     27877     27875     27878     27878     27881     27882
     27878     27881     27883     27878     27881     27884     27879     27878     27880
     27879     27878     27881     27880     27878     27881     27881     27884     27885
     27881     27884     27886     27881     27884     27887     27882     27881     27883
     27882     27881     27884     27883     27881     27884     27884     27887     27888
     27884     27887     27889     27885     27884     27886     27885     27884     27887
     27886     27884     27887     27887     27889     27890     27887     27889     27891
     27888     27887     27889     27889     27891     27892     27889     27891     27893
     27889     27891     27894     27890     27889     27891     27891     27894     27895
     27891     27894     27896     27891     27894     27897     27892     27891     27893
     27892     27891     27894     27893     27891     27894     27894     27897     27898
     27894     27897     27899     27894     27897     27900     27895     27894     27896
     27895     27894     27897     27896     27894     27897     27897     27900     27901
     27897     27900     27902     27897     27900     27903     27898     27897     27899
     27898     27897     27900     27899     27897     27900     27900     27903     27904
     27900     27903     27905     27900     27903     27906     27901     27900     27902
     27901     27900     27903     27902     27900     27903     27903     27906     27907
     27903     27906     27908     27903     27906     27909     27904     27903     27905
     27904     27903     27906     27905     27903     27906     27906     27909     27910
     27906     27909     27911     27906     27909     27912     27907     27906     27908
     27907     27906     27909     27908     27906     27909     27909     27912     27913
     27909     27912     27914     27909     27912     27915     27910     27909     27911
     27910     27909     27912     27911     27909     27912     27913     27912     27914
     27913     27912     27915     27914     27912     27915     27916     27919     27920
     27916     27919     27921     27916     27919     27922     27917     27916     27918
     27917     27916     27919     27918     27916     27919     27919     27922     27923
     27919     27922     27924     27919     27922     27925     27920     27919     27921
     27920     27919     27922     27921     27919     27922     27922     27925     27926
     27922     27925     27927     27922     27925     27928     27923     27922     27924
     27923     27922     27925     27924     27922     27925     27925     27928     27929
     27925     27928     27930     27925     27928     27931     27926     27925     27927
     27926     27925     27928     27927     27925     27928     27928     27931     27932
     27928     27931     27933     27928     27931     27934     27929     27928     27930
     27929     27928     27931     27930     27928     27931     27931     27934     27935
     27931     27934     27936     27931     27934     27937     27932     27931     27933
     27932     27931     27934     27933     27931     27934     27934     27937     27938
     27934     27937     27939     27934     27937     27940     27935     27934     27936
     27935     27934     27937     27936     27934     27937     27937     27940     27941
     27937     27940     27942     27937     27940     27943     27938     27937     27939
     27938     27937     27940     27939     27937     27940     27940     27943     27944
     27940     27943     27945     27940     27943     27946     27941     27940     27942
     27941     27940     27943     27942     27940     27943     27943     27946     27947
     27943     27946     27948     27943     27946     27949     27944     27943     27945
     27944     27943     27946     27945     27943     27946     27946     27949     27950
     27946     27949     27951     27946     27949     27952     27947     27946     27948
     27947     27946     27949     27948     27946     27949     27949     27952     27953
     27949     27952     27954     27949     27952     27955     27950     27949     27951
     27950     27949     27952     27951     27949     27952     27952     27955     27956
     27952     27955     27957     27952     27955     27958     27953     27952     27954
     27953     27952     27955     27954     27952     27955     27956     27955     27957
     27956     27955     27958     27957     27955     27958     27959     27960     27961
     27959     27960     27962     27959     27960     27975     27959     27963     27964
     27959     27963     27965     27959     27963     27966     27959     27967     27968
     27959     27967     27969     27959     27967     27970     27959     27971     27972
     27959     27971     27973     27959     27971     27974     27960     27959     27963
     27960     27959     27967     27960     27959     27971     27960     27975     27976
     27960     27975     27977     27960     27975     27981     27961     27960     27962
     27961     27960     27975     27962     27960     27975     27963     27959     27967
     27963     27959     27971     27964     27963     27965     27964     27963     27966
     27965     27963     27966     27967     27959     27971     27968     27967     27969
     27968     27967     27970     27969     27967     27970     27972     27971     27973
     27972     27971     27974     27973     27971     27974     27975     27981     27978
     27976     27975     27977     27976     27975     27981     27977     27975     27981
     27978     27982     27983     27979     27978     27980     27979     27978     27981
     27979     27978     27982     27980     27978     27981     27980     27978     27982
     27981     27978     27982     27982     27983     27984     27982     27983     27985
     27982     27983     27986     27983     27986     27987     27983     27986     27988
     27983     27986     27994     27984     27983     27985     27984     27983     27986
     27985     27983     27986     27986     27988     27989     27986     27994     27995
     27986     27994     27996     27986     27994     27997     27987     27986     27988
     27987     27986     27994     27988     27986     27994     27988     27989     27990
     27988     27989     27991     27989     27991     27992     27989     27991     27993
     27989     27991     28003     27990     27989     27991     27991     28003     28004
     27991     28003     28005     27991     28003     28006     27992     27991     27993
     27992     27991     28003     27993     27991     28003     27994     27997     27998
     27995     27994     27996     27995     27994     27997     27996     27994     27997
     27997     27998     27999     27997     27998     28000     27998     28000     28001
     27998     28000     28002     27998     28000     28050     27999     27998     28000
     28000     28050     28051     28000     28050     28052     28000     28050     28053
     28001     28000     28002     28001     28000     28050     28002     28000     28050
     28003     28006     28007     28003     28006     28008     28003     28006     28009
     28004     28003     28005     28004     28003     28006     28005     28003     28006
     28006     28009     28010     28006     28009     28011     28006     28009     28012
     28007     28006     28008     28007     28006     28009     28008     28006     28009
     28009     28012     28013     28009     28012     28014     28009     28012     28015
     28010     28009     28011     28010     28009     28012     28011     28009     28012
     28012     28015     28016     28012     28015     28017     28012     28015     28018
     28013     28012     28014     28013     28012     28015     28014     28012     28015
     28015     28018     28019     28015     28018     28020     28015     28018     28021
     28016     28015     28017     28016     28015     28018     28017     28015     28018
     28018     28021     28022     28018     28021     28023     28019     28018     28020
     28019     28018     28021     28020     28018     28021     28021     28023     28024
     28021     28023     28025     28022     28021     28023     28023     28025     28026
     28023     28025     28027     28023     28025     28028     28024     28023     28025
     28025     28028     28029     28025     28028     28030     28025     28028     28031
     28026     28025     28027     28026     28025     28028     28027     28025     28028
     28028     28031     28032     28028     28031     28033     28028     28031     28034
     28029     28028     28030     28029     28028     28031     28030     28028     28031
     28031     28034     28035     28031     28034     28036     28031     28034     28037
     28032     28031     28033     28032     28031     28034     28033     28031     28034
     28034     28037     28038     28034     28037     28039     28034     28037     28040
     28035     28034     28036     28035     28034     28037     28036     28034     28037
     28037     28040     28041     28037     28040     28042     28037     28040     28043
     28038     28037     28039     28038     28037     28040     28039     28037     28040
     28040     28043     28044     28040     28043     28045     28040     28043     28046
     28041     28040     28042     28041     28040     28043     28042     28040     28043
     28043     28046     28047     28043     28046     28048     28043     28046     28049
     28044     28043     28045     28044     28043     28046     28045     28043     28046
     28047     28046     28048     28047     28046     28049     28048     28046     28049
     28050     28053     28054     28050     28053     28055     28050     28053     28056
     28051     28050     28052     28051     28050     28053     28052     28050     28053
     28053     28056     28057     28053     28056     28058     28053     28056     28059
     28054     28053     28055     28054     28053     28056     28055     28053     28056
     28056     28059     28060     28056     28059     28061     28056     28059     28062
     28057     28056     28058     28057     28056     28059     28058     28056     28059
     28059     28062     28063     28059     28062     28064     28059     28062     28065
     28060     28059     28061     28060     28059     28062     28061     28059     28062
     28062     28065     28066     28062     28065     28067     28062     28065     28068
     28063     28062     28064     28063     28062     28065     28064     28062     28065
     28065     28068     28069     28065     28068     28070     28065     28068     28071
     28066     28065     28067     28066     28065     28068     28067     28065     28068
     28068     28071     28072     28068     28071     28073     28068     28071     28074
     28069     28068     28070     28069     28068     28071     28070     28068     28071
     28071     28074     28075     28071     28074     28076     28071     28074     28077
     28072     28071     28073     28072     28071     28074     28073     28071     28074
     28074     28077     28078     28074     28077     28079     28074     28077     28080
     28075     28074     28076     28075     28074     28077     28076     28074     28077
     28077     28080     28081     28077     28080     28082     28077     28080     28083
     28078     28077     28079     28078     28077     28080     28079     28077     28080
     28080     28083     28084     28080     28083     28085     28080     28083     28086
     28081     28080     28082     28081     28080     28083     28082     28080     28083
     28083     28086     28087     28083     28086     28088     28083     28086     28089
     28084     28083     28085     28084     28083     28086     28085     28083     28086
     28086     28089     28090     28086     28089     28091     28086     28089     28092
     28087     28086     28088     28087     28086     28089     28088     28086     28089
     28090     28089     28091     28090     28089     28092     28091     28089     28092
     28093     28094     28095     28093     28094     28096     28093     28094     28109
     28093     28097     28098     28093     28097     28099     28093     28097     28100
     28093     28101     28102     28093     28101     28103     28093     28101     28104
     28093     28105     28106     28093     28105     28107     28093     28105     28108
     28094     28093     28097     28094     28093     28101     28094     28093     28105
     28094     28109     28110     28094     28109     28111     28094     28109     28115
     28095     28094     28096     28095     28094     28109     28096     28094     28109
     28097     28093     28101     28097     28093     28105     28098     28097     28099
     28098     28097     28100     28099     28097     28100     28101     28093     28105
     28102     28101     28103     28102     28101     28104     28103     28101     28104
     28106     28105     28107     28106     28105     28108     28107     28105     28108
     28109     28115     28112     28110     28109     28111     28110     28109     28115
     28111     28109     28115     28112     28116     28117     28113     28112     28114
     28113     28112     28115     28113     28112     28116     28114     28112     28115
     28114     28112     28116     28115     28112     28116     28116     28117     28118
     28116     28117     28119     28116     28117     28120     28117     28120     28121
     28117     28120     28122     28117     28120     28128     28118     28117     28119
     28118     28117     28120     28119     28117     28120     28120     28122     28123
     28120     28128     28129     28120     28128     28130     28120     28128     28131
     28121     28120     28122     28121     28120     28128     28122     28120     28128
     28122     28123     28124     28122     28123     28125     28123     28125     28126
     28123     28125     28127     28123     28125     28137     28124     28123     28125
     28125     28137     28138     28125     28137     28139     28125     28137     28140
     28126     28125     28127     28126     28125     28137     28127     28125     28137
     28128     28131     28132     28129     28128     28130     28129     28128     28131
     28130     28128     28131     28131     28132     28133     28131     28132     28134
     28132     28134     28135     28132     28134     28136     28132     28134     28184
     28133     28132     28134     28134     28184     28185     28134     28184     28186
     28134     28184     28187     28135     28134     28136     28135     28134     28184
     28136     28134     28184     28137     28140     28141     28137     28140     28142
     28137     28140     28143     28138     28137     28139     28138     28137     28140
     28139     28137     28140     28140     28143     28144     28140     28143     28145
     28140     28143     28146     28141     28140     28142     28141     28140     28143
     28142     28140     28143     28143     28146     28147     28143     28146     28148
     28143     28146     28149     28144     28143     28145     28144     28143     28146
     28145     28143     28146     28146     28149     28150     28146     28149     28151
     28146     28149     28152     28147     28146     28148     28147     28146     28149
     28148     28146     28149     28149     28152     28153     28149     28152     28154
     28149     28152     28155     28150     28149     28151     28150     28149     28152
     28151     28149     28152     28152     28155     28156     28152     28155     28157
     28153     28152     28154     28153     28152     28155     28154     28152     28155
     28155     28157     28158     28155     28157     28159     28156     28155     28157
     28157     28159     28160     28157     28159     28161     28157     28159     28162
     28158     28157     28159     28159     28162     28163     28159     28162     28164
     28159     28162     28165     28160     28159     28161     28160     28159     28162
     28161     28159     28162     28162     28165     28166     28162     28165     28167
     28162     28165     28168     28163     28162     28164     28163     28162     28165
     28164     28162     28165     28165     28168     28169     28165     28168     28170
     28165     28168     28171     28166     28165     28167     28166     28165     28168
     28167     28165     28168     28168     28171     28172     28168     28171     28173
     28168     28171     28174     28169     28168     28170     28169     28168     28171
     28170     28168     28171     28171     28174     28175     28171     28174     28176
     28171     28174     28177     28172     28171     28173     28172     28171     28174
     28173     28171     28174     28174     28177     28178     28174     28177     28179
     28174     28177     28180     28175     28174     28176     28175     28174     28177
     28176     28174     28177     28177     28180     28181     28177     28180     28182
     28177     28180     28183     28178     28177     28179     28178     28177     28180
     28179     28177     28180     28181     28180     28182     28181     28180     28183
     28182     28180     28183     28184     28187     28188     28184     28187     28189
     28184     28187     28190     28185     28184     28186     28185     28184     28187
     28186     28184     28187     28187     28190     28191     28187     28190     28192
     28187     28190     28193     28188     28187     28189     28188     28187     28190
     28189     28187     28190     28190     28193     28194     28190     28193     28195
     28190     28193     28196     28191     28190     28192     28191     28190     28193
     28192     28190     28193     28193     28196     28197     28193     28196     28198
     28193     28196     28199     28194     28193     28195     28194     28193     28196
     28195     28193     28196     28196     28199     28200     28196     28199     28201
     28196     28199     28202     28197     28196     28198     28197     28196     28199
     28198     28196     28199     28199     28202     28203     28199     28202     28204
     28199     28202     28205     28200     28199     28201     28200     28199     28202
     28201     28199     28202     28202     28205     28206     28202     28205     28207
     28202     28205     28208     28203     28202     28204     28203     28202     28205
     28204     28202     28205     28205     28208     28209     28205     28208     28210
     28205     28208     28211     28206     28205     28207     28206     28205     28208
     28207     28205     28208     28208     28211     28212     28208     28211     28213
     28208     28211     28214     28209     28208     28210     28209     28208     28211
     28210     28208     28211     28211     28214     28215     28211     28214     28216
     28211     28214     28217     28212     28211     28213     28212     28211     28214
     28213     28211     28214     28214     28217     28218     28214     28217     28219
     28214     28217     28220     28215     28214     28216     28215     28214     28217
     28216     28214     28217     28217     28220     28221     28217     28220     28222
     28217     28220     28223     28218     28217     28219     28218     28217     28220
     28219     28217     28220     28220     28223     28224     28220     28223     28225
     28220     28223     28226     28221     28220     28222     28221     28220     28223
     28222     28220     28223     28224     28223     28225     28224     28223     28226
     28225     28223     28226     28227     28231     28232     28227     28231     28233
     28227     28231     28234     28228     28227     28229     28228     28227     28230
     28228     28227     28231     28229     28227     28230     28229     28227     28231
     28230     28227     28231     28231     28234     28235     28231     28234     28236
     28231     28234     28241     28232     28231     28233     28232     28231     28234
     28233     28231     28234     28234     28241     28237     28235     28234     28236
     28235     28234     28241     28236     28234     28241     28237     28240     28242
     28238     28237     28239     28238     28237     28240     28238     28237     28241
     28239     28237     28240     28239     28237     28241     28240     28237     28241
     28240     28242     28243     28240     28242     28244     28240     28242     28245
     28242     28245     28246     28242     28245     28247     28242     28245     28253
     28243     28242     28244     28243     28242     28245     28244     28242     28245
     28245     28247     28248     28245     28253     28254     28245     28253     28255
     28245     28253     28256     28246     28245     28247     28246     28245     28253
     28247     28245     28253     28247     28248     28249     28247     28248     28250
     28248     28250     28251     28248     28250     28252     28248     28250     28262
     28249     28248     28250     28250     28262     28263     28250     28262     28264
     28250     28262     28265     28251     28250     28252     28251     28250     28262
     28252     28250     28262     28253     28256     28257     28254     28253     28255
     28254     28253     28256     28255     28253     28256     28256     28257     28258
     28256     28257     28259     28257     28259     28260     28257     28259     28261
     28257     28259     28309     28258     28257     28259     28259     28309     28310
     28259     28309     28311     28259     28309     28312     28260     28259     28261
     28260     28259     28309     28261     28259     28309     28262     28265     28266
     28262     28265     28267     28262     28265     28268     28263     28262     28264
     28263     28262     28265     28264     28262     28265     28265     28268     28269
     28265     28268     28270     28265     28268     28271     28266     28265     28267
     28266     28265     28268     28267     28265     28268     28268     28271     28272
     28268     28271     28273     28268     28271     28274     28269     28268     28270
     28269     28268     28271     28270     28268     28271     28271     28274     28275
     28271     28274     28276     28271     28274     28277     28272     28271     28273
     28272     28271     28274     28273     28271     28274     28274     28277     28278
     28274     28277     28279     28274     28277     28280     28275     28274     28276
     28275     28274     28277     28276     28274     28277     28277     28280     28281
     28277     28280     28282     28278     28277     28279     28278     28277     28280
     28279     28277     28280     28280     28282     28283     28280     28282     28284
     28281     28280     28282     28282     28284     28285     28282     28284     28286
     28282     28284     28287     28283     28282     28284     28284     28287     28288
     28284     28287     28289     28284     28287     28290     28285     28284     28286
     28285     28284     28287     28286     28284     28287     28287     28290     28291
     28287     28290     28292     28287     28290     28293     28288     28287     28289
     28288     28287     28290     28289     28287     28290     28290     28293     28294
     28290     28293     28295     28290     28293     28296     28291     28290     28292
     28291     28290     28293     28292     28290     28293     28293     28296     28297
     28293     28296     28298     28293     28296     28299     28294     28293     28295
     28294     28293     28296     28295     28293     28296     28296     28299     28300
     28296     28299     28301     28296     28299     28302     28297     28296     28298
     28297     28296     28299     28298     28296     28299     28299     28302     28303
     28299     28302     28304     28299     28302     28305     28300     28299     28301
     28300     28299     28302     28301     28299     28302     28302     28305     28306
     28302     28305     28307     28302     28305     28308     28303     28302     28304
     28303     28302     28305     28304     28302     28305     28306     28305     28307
     28306     28305     28308     28307     28305     28308     28309     28312     28313
     28309     28312     28314     28309     28312     28315     28310     28309     28311
     28310     28309     28312     28311     28309     28312     28312     28315     28316
     28312     28315     28317     28312     28315     28318     28313     28312     28314
     28313     28312     28315     28314     28312     28315     28315     28318     28319
     28315     28318     28320     28315     28318     28321     28316     28315     28317
     28316     28315     28318     28317     28315     28318     28318     28321     28322
     28318     28321     28323     28318     28321     28324     28319     28318     28320
     28319     28318     28321     28320     28318     28321     28321     28324     28325
     28321     28324     28326     28321     28324     28327     28322     28321     28323
     28322     28321     28324     28323     28321     28324     28324     28327     28328
     28324     28327     28329     28324     28327     28330     28325     28324     28326
     28325     28324     28327     28326     28324     28327     28327     28330     28331
     28327     28330     28332     28327     28330     28333     28328     28327     28329
     28328     28327     28330     28329     28327     28330     28330     28333     28334
     28330     28333     28335     28330     28333     28336     28331     28330     28332
     28331     28330     28333     28332     28330     28333     28333     28336     28337
     28333     28336     28338     28333     28336     28339     28334     28333     28335
     28334     28333     28336     28335     28333     28336     28336     28339     28340
     28336     28339     28341     28336     28339     28342     28337     28336     28338
     28337     28336     28339     28338     28336     28339     28339     28342     28343
     28339     28342     28344     28339     28342     28345     28340     28339     28341
     28340     28339     28342     28341     28339     28342     28342     28345     28346
     28342     28345     28347     28342     28345     28348     28343     28342     28344
     28343     28342     28345     28344     28342     28345     28345     28348     28349
     28345     28348     28350     28345     28348     28351     28346     28345     28347
     28346     28345     28348     28347     28345     28348     28349     28348     28350
     28349     28348     28351     28350     28348     28351     28352     28356     28357
     28352     28356     28358     28352     28356     28359     28353     28352     28354
     28353     28352     28355     28353     28352     28356     28354     28352     28355
     28354     28352     28356     28355     28352     28356     28356     28359     28360
     28356     28359     28361     28356     28359     28366     28357     28356     28358
     28357     28356     28359     28358     28356     28359     28359     28366     28362
     28360     28359     28361     28360     28359     28366     28361     28359     28366
     28362     28365     28367     28363     28362     28364     28363     28362     28365
     28363     28362     28366     28364     28362     28365     28364     28362     28366
     28365     28362     28366     28365     28367     28368     28365     28367     28369
     28365     28367     28370     28367     28370     28371     28367     28370     28372
     28367     28370     28378     28368     28367     28369     28368     28367     28370
     28369     28367     28370     28370     28372     28373     28370     28378     28379
     28370     28378     28380     28370     28378     28381     28371     28370     28372
     28371     28370     28378     28372     28370     28378     28372     28373     28374
     28372     28373     28375     28373     28375     28376     28373     28375     28377
     28373     28375     28387     28374     28373     28375     28375     28387     28388
     28375     28387     28389     28375     28387     28390     28376     28375     28377
     28376     28375     28387     28377     28375     28387     28378     28381     28382
     28379     28378     28380     28379     28378     28381     28380     28378     28381
     28381     28382     28383     28381     28382     28384     28382     28384     28385
     28382     28384     28386     28382     28384     28434     28383     28382     28384
     28384     28434     28435     28384     28434     28436     28384     28434     28437
     28385     28384     28386     28385     28384     28434     28386     28384     28434
     28387     28390     28391     28387     28390     28392     28387     28390     28393
     28388     28387     28389     28388     28387     28390     28389     28387     28390
     28390     28393     28394     28390     28393     28395     28390     28393     28396
     28391     28390     28392     28391     28390     28393     28392     28390     28393
     28393     28396     28397     28393     28396     28398     28393     28396     28399
     28394     28393     28395     28394     28393     28396     28395     28393     28396
     28396     28399     28400     28396     28399     28401     28396     28399     28402
     28397     28396     28398     28397     28396     28399     28398     28396     28399
     28399     28402     28403     28399     28402     28404     28399     28402     28405
     28400     28399     28401     28400     28399     28402     28401     28399     28402
     28402     28405     28406     28402     28405     28407     28403     28402     28404
     28403     28402     28405     28404     28402     28405     28405     28407     28408
     28405     28407     28409     28406     28405     28407     28407     28409     28410
     28407     28409     28411     28407     28409     28412     28408     28407     28409
     28409     28412     28413     28409     28412     28414     28409     28412     28415
     28410     28409     28411     28410     28409     28412     28411     28409     28412
     28412     28415     28416     28412     28415     28417     28412     28415     28418
     28413     28412     28414     28413     28412     28415     28414     28412     28415
     28415     28418     28419     28415     28418     28420     28415     28418     28421
     28416     28415     28417     28416     28415     28418     28417     28415     28418
     28418     28421     28422     28418     28421     28423     28418     28421     28424
     28419     28418     28420     28419     28418     28421     28420     28418     28421
     28421     28424     28425     28421     28424     28426     28421     28424     28427
     28422     28421     28423     28422     28421     28424     28423     28421     28424
     28424     28427     28428     28424     28427     28429     28424     28427     28430
     28425     28424     28426     28425     28424     28427     28426     28424     28427
     28427     28430     28431     28427     28430     28432     28427     28430     28433
     28428     28427     28429     28428     28427     28430     28429     28427     28430
     28431     28430     28432     28431     28430     28433     28432     28430     28433
     28434     28437     28438     28434     28437     28439     28434     28437     28440
     28435     28434     28436     28435     28434     28437     28436     28434     28437
     28437     28440     28441     28437     28440     28442     28437     28440     28443
     28438     28437     28439     28438     28437     28440     28439     28437     28440
     28440     28443     28444     28440     28443     28445     28440     28443     28446
     28441     28440     28442     28441     28440     28443     28442     28440     28443
     28443     28446     28447     28443     28446     28448     28443     28446     28449
     28444     28443     28445     28444     28443     28446     28445     28443     28446
     28446     28449     28450     28446     28449     28451     28446     28449     28452
     28447     28446     28448     28447     28446     28449     28448     28446     28449
     28449     28452     28453     28449     28452     28454     28449     28452     28455
     28450     28449     28451     28450     28449     28452     28451     28449     28452
     28452     28455     28456     28452     28455     28457     28452     28455     28458
     28453     28452     28454     28453     28452     28455     28454     28452     28455
     28455     28458     28459     28455     28458     28460     28455     28458     28461
     28456     28455     28457     28456     28455     28458     28457     28455     28458
     28458     28461     28462     28458     28461     28463     28458     28461     28464
     28459     28458     28460     28459     28458     28461     28460     28458     28461
     28461     28464     28465     28461     28464     28466     28461     28464     28467
     28462     28461     28463     28462     28461     28464     28463     28461     28464
     28464     28467     28468     28464     28467     28469     28464     28467     28470
     28465     28464     28466     28465     28464     28467     28466     28464     28467
     28467     28470     28471     28467     28470     28472     28467     28470     28473
     28468     28467     28469     28468     28467     28470     28469     28467     28470
     28470     28473     28474     28470     28473     28475     28470     28473     28476
     28471     28470     28472     28471     28470     28473     28472     28470     28473
     28474     28473     28475     28474     28473     28476     28475     28473     28476
     28477     28481     28482     28477     28481     28483     28477     28481     28484
     28478     28477     28479     28478     28477     28480     28478     28477     28481
     28479     28477     28480     28479     28477     28481     28480     28477     28481
     28481     28484     28485     28481     28484     28486     28481     28484     28491
     28482     28481     28483     28482     28481     28484     28483     28481     28484
     28484     28491     28487     28485     28484     28486     28485     28484     28491
     28486     28484     28491     28487     28490     28492     28488     28487     28489
     28488     28487     28490     28488     28487     28491     28489     28487     28490
     28489     28487     28491     28490     28487     28491     28490     28492     28493
     28490     28492     28494     28490     28492     28495     28492     28495     28496
     28492     28495     28497     28492     28495     28503     28493     28492     28494
     28493     28492     28495     28494     28492     28495     28495     28497     28498
     28495     28503     28504     28495     28503     28505     28495     28503     28506
     28496     28495     28497     28496     28495     28503     28497     28495     28503
     28497     28498     28499     28497     28498     28500     28498     28500     28501
     28498     28500     28502     28498     28500     28512     28499     28498     28500
     28500     28512     28513     28500     28512     28514     28500     28512     28515
     28501     28500     28502     28501     28500     28512     28502     28500     28512
     28503     28506     28507     28504     28503     28505     28504     28503     28506
     28505     28503     28506     28506     28507     28508     28506     28507     28509
     28507     28509     28510     28507     28509     28511     28507     28509     28559
     28508     28507     28509     28509     28559     28560     28509     28559     28561
     28509     28559     28562     28510     28509     28511     28510     28509     28559
     28511     28509     28559     28512     28515     28516     28512     28515     28517
     28512     28515     28518     28513     28512     28514     28513     28512     28515
     28514     28512     28515     28515     28518     28519     28515     28518     28520
     28515     28518     28521     28516     28515     28517     28516     28515     28518
     28517     28515     28518     28518     28521     28522     28518     28521     28523
     28518     28521     28524     28519     28518     28520     28519     28518     28521
     28520     28518     28521     28521     28524     28525     28521     28524     28526
     28521     28524     28527     28522     28521     28523     28522     28521     28524
     28523     28521     28524     28524     28527     28528     28524     28527     28529
     28524     28527     28530     28525     28524     28526     28525     28524     28527
     28526     28524     28527     28527     28530     28531     28527     28530     28532
     28528     28527     28529     28528     28527     28530     28529     28527     28530
     28530     28532     28533     28530     28532     28534     28531     28530     28532
     28532     28534     28535     28532     28534     28536     28532     28534     28537
     28533     28532     28534     28534     28537     28538     28534     28537     28539
     28534     28537     28540     28535     28534     28536     28535     28534     28537
     28536     28534     28537     28537     28540     28541     28537     28540     28542
     28537     28540     28543     28538     28537     28539     28538     28537     28540
     28539     28537     28540     28540     28543     28544     28540     28543     28545
     28540     28543     28546     28541     28540     28542     28541     28540     28543
     28542     28540     28543     28543     28546     28547     28543     28546     28548
     28543     28546     28549     28544     28543     28545     28544     28543     28546
     28545     28543     28546     28546     28549     28550     28546     28549     28551
     28546     28549     28552     28547     28546     28548     28547     28546     28549
     28548     28546     28549     28549     28552     28553     28549     28552     28554
     28549     28552     28555     28550     28549     28551     28550     28549     28552
     28551     28549     28552     28552     28555     28556     28552     28555     28557
     28552     28555     28558     28553     28552     28554     28553     28552     28555
     28554     28552     28555     28556     28555     28557     28556     28555     28558
     28557     28555     28558     28559     28562     28563     28559     28562     28564
     28559     28562     28565     28560     28559     28561     28560     28559     28562
     28561     28559     28562     28562     28565     28566     28562     28565     28567
     28562     28565     28568     28563     28562     28564     28563     28562     28565
     28564     28562     28565     28565     28568     28569     28565     28568     28570
     28565     28568     28571     28566     28565     28567     28566     28565     28568
     28567     28565     28568     28568     28571     28572     28568     28571     28573
     28568     28571     28574     28569     28568     28570     28569     28568     28571
     28570     28568     28571     28571     28574     28575     28571     28574     28576
     28571     28574     28577     28572     28571     28573     28572     28571     28574
     28573     28571     28574     28574     28577     28578     28574     28577     28579
     28574     28577     28580     28575     28574     28576     28575     28574     28577
     28576     28574     28577     28577     28580     28581     28577     28580     28582
     28577     28580     28583     28578     28577     28579     28578     28577     28580
     28579     28577     28580     28580     28583     28584     28580     28583     28585
     28580     28583     28586     28581     28580     28582     28581     28580     28583
     28582     28580     28583     28583     28586     28587     28583     28586     28588
     28583     28586     28589     28584     28583     28585     28584     28583     28586
     28585     28583     28586     28586     28589     28590     28586     28589     28591
     28586     28589     28592     28587     28586     28588     28587     28586     28589
     28588     28586     28589     28589     28592     28593     28589     28592     28594
     28589     28592     28595     28590     28589     28591     28590     28589     28592
     28591     28589     28592     28592     28595     28596     28592     28595     28597
     28592     28595     28598     28593     28592     28594     28593     28592     28595
     28594     28592     28595     28595     28598     28599     28595     28598     28600
     28595     28598     28601     28596     28595     28597     28596     28595     28598
     28597     28595     28598     28599     28598     28600     28599     28598     28601
     28600     28598     28601     28602     28606     28607     28602     28606     28608
     28602     28606     28609     28603     28602     28604     28603     28602     28605
     28603     28602     28606     28604     28602     28605     28604     28602     28606
     28605     28602     28606     28606     28609     28610     28606     28609     28611
     28606     28609     28616     28607     28606     28608     28607     28606     28609
     28608     28606     28609     28609     28616     28612     28610     28609     28611
     28610     28609     28616     28611     28609     28616     28612     28615     28617
     28613     28612     28614     28613     28612     28615     28613     28612     28616
     28614     28612     28615     28614     28612     28616     28615     28612     28616
     28615     28617     28618     28615     28617     28619     28615     28617     28620
     28617     28620     28621     28617     28620     28622     28617     28620     28628
     28618     28617     28619     28618     28617     28620     28619     28617     28620
     28620     28622     28623     28620     28628     28629     28620     28628     28630
     28620     28628     28631     28621     28620     28622     28621     28620     28628
     28622     28620     28628     28622     28623     28624     28622     28623     28625
     28623     28625     28626     28623     28625     28627     28623     28625     28637
     28624     28623     28625     28625     28637     28638     28625     28637     28639
     28625     28637     28640     28626     28625     28627     28626     28625     28637
     28627     28625     28637     28628     28631     28632     28629     28628     28630
     28629     28628     28631     28630     28628     28631     28631     28632     28633
     28631     28632     28634     28632     28634     28635     28632     28634     28636
     28632     28634     28684     28633     28632     28634     28634     28684     28685
     28634     28684     28686     28634     28684     28687     28635     28634     28636
     28635     28634     28684     28636     28634     28684     28637     28640     28641
     28637     28640     28642     28637     28640     28643     28638     28637     28639
     28638     28637     28640     28639     28637     28640     28640     28643     28644
     28640     28643     28645     28640     28643     28646     28641     28640     28642
     28641     28640     28643     28642     28640     28643     28643     28646     28647
     28643     28646     28648     28643     28646     28649     28644     28643     28645
     28644     28643     28646     28645     28643     28646     28646     28649     28650
     28646     28649     28651     28646     28649     28652     28647     28646     28648
     28647     28646     28649     28648     28646     28649     28649     28652     28653
     28649     28652     28654     28649     28652     28655     28650     28649     28651
     28650     28649     28652     28651     28649     28652     28652     28655     28656
     28652     28655     28657     28653     28652     28654     28653     28652     28655
     28654     28652     28655     28655     28657     28658     28655     28657     28659
     28656     28655     28657     28657     28659     28660     28657     28659     28661
     28657     28659     28662     28658     28657     28659     28659     28662     28663
     28659     28662     28664     28659     28662     28665     28660     28659     28661
     28660     28659     28662     28661     28659     28662     28662     28665     28666
     28662     28665     28667     28662     28665     28668     28663     28662     28664
     28663     28662     28665     28664     28662     28665     28665     28668     28669
     28665     28668     28670     28665     28668     28671     28666     28665     28667
     28666     28665     28668     28667     28665     28668     28668     28671     28672
     28668     28671     28673     28668     28671     28674     28669     28668     28670
     28669     28668     28671     28670     28668     28671     28671     28674     28675
     28671     28674     28676     28671     28674     28677     28672     28671     28673
     28672     28671     28674     28673     28671     28674     28674     28677     28678
     28674     28677     28679     28674     28677     28680     28675     28674     28676
     28675     28674     28677     28676     28674     28677     28677     28680     28681
     28677     28680     28682     28677     28680     28683     28678     28677     28679
     28678     28677     28680     28679     28677     28680     28681     28680     28682
     28681     28680     28683     28682     28680     28683     28684     28687     28688
     28684     28687     28689     28684     28687     28690     28685     28684     28686
     28685     28684     28687     28686     28684     28687     28687     28690     28691
     28687     28690     28692     28687     28690     28693     28688     28687     28689
     28688     28687     28690     28689     28687     28690     28690     28693     28694
     28690     28693     28695     28690     28693     28696     28691     28690     28692
     28691     28690     28693     28692     28690     28693     28693     28696     28697
     28693     28696     28698     28693     28696     28699     28694     28693     28695
     28694     28693     28696     28695     28693     28696     28696     28699     28700
     28696     28699     28701     28696     28699     28702     28697     28696     28698
     28697     28696     28699     28698     28696     28699     28699     28702     28703
     28699     28702     28704     28699     28702     28705     28700     28699     28701
     28700     28699     28702     28701     28699     28702     28702     28705     28706
     28702     28705     28707     28702     28705     28708     28703     28702     28704
     28703     28702     28705     28704     28702     28705     28705     28708     28709
     28705     28708     28710     28705     28708     28711     28706     28705     28707
     28706     28705     28708     28707     28705     28708     28708     28711     28712
     28708     28711     28713     28708     28711     28714     28709     28708     28710
     28709     28708     28711     28710     28708     28711     28711     28714     28715
     28711     28714     28716     28711     28714     28717     28712     28711     28713
     28712     28711     28714     28713     28711     28714     28714     28717     28718
     28714     28717     28719     28714     28717     28720     28715     28714     28716
     28715     28714     28717     28716     28714     28717     28717     28720     28721
     28717     28720     28722     28717     28720     28723     28718     28717     28719
     28718     28717     28720     28719     28717     28720     28720     28723     28724
     28720     28723     28725     28720     28723     28726     28721     28720     28722
     28721     28720     28723     28722     28720     28723     28724     28723     28725
     28724     28723     28726     28725     28723     28726     28727     28731     28732
     28727     28731     28733     28727     28731     28734     28728     28727     28729
     28728     28727     28730     28728     28727     28731     28729     28727     28730
     28729     28727     28731     28730     28727     28731     28731     28734     28735
     28731     28734     28736     28731     28734     28741     28732     28731     28733
     28732     28731     28734     28733     28731     28734     28734     28741     28737
     28735     28734     28736     28735     28734     28741     28736     28734     28741
     28737     28740     28742     28738     28737     28739     28738     28737     28740
     28738     28737     28741     28739     28737     28740     28739     28737     28741
     28740     28737     28741     28740     28742     28743     28740     28742     28744
     28740     28742     28745     28742     28745     28746     28742     28745     28747
     28742     28745     28753     28743     28742     28744     28743     28742     28745
     28744     28742     28745     28745     28747     28748     28745     28753     28754
     28745     28753     28755     28745     28753     28756     28746     28745     28747
     28746     28745     28753     28747     28745     28753     28747     28748     28749
     28747     28748     28750     28748     28750     28751     28748     28750     28752
     28748     28750     28762     28749     28748     28750     28750     28762     28763
     28750     28762     28764     28750     28762     28765     28751     28750     28752
     28751     28750     28762     28752     28750     28762     28753     28756     28757
     28754     28753     28755     28754     28753     28756     28755     28753     28756
     28756     28757     28758     28756     28757     28759     28757     28759     28760
     28757     28759     28761     28757     28759     28809     28758     28757     28759
     28759     28809     28810     28759     28809     28811     28759     28809     28812
     28760     28759     28761     28760     28759     28809     28761     28759     28809
     28762     28765     28766     28762     28765     28767     28762     28765     28768
     28763     28762     28764     28763     28762     28765     28764     28762     28765
     28765     28768     28769     28765     28768     28770     28765     28768     28771
     28766     28765     28767     28766     28765     28768     28767     28765     28768
     28768     28771     28772     28768     28771     28773     28768     28771     28774
     28769     28768     28770     28769     28768     28771     28770     28768     28771
     28771     28774     28775     28771     28774     28776     28771     28774     28777
     28772     28771     28773     28772     28771     28774     28773     28771     28774
     28774     28777     28778     28774     28777     28779     28774     28777     28780
     28775     28774     28776     28775     28774     28777     28776     28774     28777
     28777     28780     28781     28777     28780     28782     28778     28777     28779
     28778     28777     28780     28779     28777     28780     28780     28782     28783
     28780     28782     28784     28781     28780     28782     28782     28784     28785
     28782     28784     28786     28782     28784     28787     28783     28782     28784
     28784     28787     28788     28784     28787     28789     28784     28787     28790
     28785     28784     28786     28785     28784     28787     28786     28784     28787
     28787     28790     28791     28787     28790     28792     28787     28790     28793
     28788     28787     28789     28788     28787     28790     28789     28787     28790
     28790     28793     28794     28790     28793     28795     28790     28793     28796
     28791     28790     28792     28791     28790     28793     28792     28790     28793
     28793     28796     28797     28793     28796     28798     28793     28796     28799
     28794     28793     28795     28794     28793     28796     28795     28793     28796
     28796     28799     28800     28796     28799     28801     28796     28799     28802
     28797     28796     28798     28797     28796     28799     28798     28796     28799
     28799     28802     28803     28799     28802     28804     28799     28802     28805
     28800     28799     28801     28800     28799     28802     28801     28799     28802
     28802     28805     28806     28802     28805     28807     28802     28805     28808
     28803     28802     28804     28803     28802     28805     28804     28802     28805
     28806     28805     28807     28806     28805     28808     28807     28805     28808
     28809     28812     28813     28809     28812     28814     28809     28812     28815
     28810     28809     28811     28810     28809     28812     28811     28809     28812
     28812     28815     28816     28812     28815     28817     28812     28815     28818
     28813     28812     28814     28813     28812     28815     28814     28812     28815
     28815     28818     28819     28815     28818     28820     28815     28818     28821
     28816     28815     28817     28816     28815     28818     28817     28815     28818
     28818     28821     28822     28818     28821     28823     28818     28821     28824
     28819     28818     28820     28819     28818     28821     28820     28818     28821
     28821     28824     28825     28821     28824     28826     28821     28824     28827
     28822     28821     28823     28822     28821     28824     28823     28821     28824
     28824     28827     28828     28824     28827     28829     28824     28827     28830
     28825     28824     28826     28825     28824     28827     28826     28824     28827
     28827     28830     28831     28827     28830     28832     28827     28830     28833
     28828     28827     28829     28828     28827     28830     28829     28827     28830
     28830     28833     28834     28830     28833     28835     28830     28833     28836
     28831     28830     28832     28831     28830     28833     28832     28830     28833
     28833     28836     28837     28833     28836     28838     28833     28836     28839
     28834     28833     28835     28834     28833     28836     28835     28833     28836
     28836     28839     28840     28836     28839     28841     28836     28839     28842
     28837     28836     28838     28837     28836     28839     28838     28836     28839
     28839     28842     28843     28839     28842     28844     28839     28842     28845
     28840     28839     28841     28840     28839     28842     28841     28839     28842
     28842     28845     28846     28842     28845     28847     28842     28845     28848
     28843     28842     28844     28843     28842     28845     28844     28842     28845
     28845     28848     28849     28845     28848     28850     28845     28848     28851
     28846     28845     28847     28846     28845     28848     28847     28845     28848
     28849     28848     28850     28849     28848     28851     28850     28848     28851
     28852     28853     28854     28852     28853     28855     28852     28853     28868
     28852     28856     28857     28852     28856     28858     28852     28856     28859
     28852     28860     28861     28852     28860     28862     28852     28860     28863
     28852     28864     28865     28852     28864     28866     28852     28864     28867
     28853     28852     28856     28853     28852     28860     28853     28852     28864
     28853     28868     28869     28853     28868     28870     28853     28868     28874
     28854     28853     28855     28854     28853     28868     28855     28853     28868
     28856     28852     28860     28856     28852     28864     28857     28856     28858
     28857     28856     28859     28858     28856     28859     28860     28852     28864
     28861     28860     28862     28861     28860     28863     28862     28860     28863
     28865     28864     28866     28865     28864     28867     28866     28864     28867
     28868     28874     28871     28869     28868     28870     28869     28868     28874
     28870     28868     28874     28871     28875     28876     28872     28871     28873
     28872     28871     28874     28872     28871     28875     28873     28871     28874
     28873     28871     28875     28874     28871     28875     28875     28876     28877
     28875     28876     28878     28875     28876     28879     28876     28879     28880
     28876     28879     28881     28876     28879     28887     28877     28876     28878
     28877     28876     28879     28878     28876     28879     28879     28881     28882
     28879     28887     28888     28879     28887     28889     28879     28887     28890
     28880     28879     28881     28880     28879     28887     28881     28879     28887
     28881     28882     28883     28881     28882     28884     28882     28884     28885
     28882     28884     28886     28882     28884     28896     28883     28882     28884
     28884     28896     28897     28884     28896     28898     28884     28896     28899
     28885     28884     28886     28885     28884     28896     28886     28884     28896
     28887     28890     28891     28888     28887     28889     28888     28887     28890
     28889     28887     28890     28890     28891     28892     28890     28891     28893
     28891     28893     28894     28891     28893     28895     28891     28893     28943
     28892     28891     28893     28893     28943     28944     28893     28943     28945
     28893     28943     28946     28894     28893     28895     28894     28893     28943
     28895     28893     28943     28896     28899     28900     28896     28899     28901
     28896     28899     28902     28897     28896     28898     28897     28896     28899
     28898     28896     28899     28899     28902     28903     28899     28902     28904
     28899     28902     28905     28900     28899     28901     28900     28899     28902
     28901     28899     28902     28902     28905     28906     28902     28905     28907
     28902     28905     28908     28903     28902     28904     28903     28902     28905
     28904     28902     28905     28905     28908     28909     28905     28908     28910
     28905     28908     28911     28906     28905     28907     28906     28905     28908
     28907     28905     28908     28908     28911     28912     28908     28911     28913
     28908     28911     28914     28909     28908     28910     28909     28908     28911
     28910     28908     28911     28911     28914     28915     28911     28914     28916
     28912     28911     28913     28912     28911     28914     28913     28911     28914
     28914     28916     28917     28914     28916     28918     28915     28914     28916
     28916     28918     28919     28916     28918     28920     28916     28918     28921
     28917     28916     28918     28918     28921     28922     28918     28921     28923
     28918     28921     28924     28919     28918     28920     28919     28918     28921
     28920     28918     28921     28921     28924     28925     28921     28924     28926
     28921     28924     28927     28922     28921     28923     28922     28921     28924
     28923     28921     28924     28924     28927     28928     28924     28927     28929
     28924     28927     28930     28925     28924     28926     28925     28924     28927
     28926     28924     28927     28927     28930     28931     28927     28930     28932
     28927     28930     28933     28928     28927     28929     28928     28927     28930
     28929     28927     28930     28930     28933     28934     28930     28933     28935
     28930     28933     28936     28931     28930     28932     28931     28930     28933
     28932     28930     28933     28933     28936     28937     28933     28936     28938
     28933     28936     28939     28934     28933     28935     28934     28933     28936
     28935     28933     28936     28936     28939     28940     28936     28939     28941
     28936     28939     28942     28937     28936     28938     28937     28936     28939
     28938     28936     28939     28940     28939     28941     28940     28939     28942
     28941     28939     28942     28943     28946     28947     28943     28946     28948
     28943     28946     28949     28944     28943     28945     28944     28943     28946
     28945     28943     28946     28946     28949     28950     28946     28949     28951
     28946     28949     28952     28947     28946     28948     28947     28946     28949
     28948     28946     28949     28949     28952     28953     28949     28952     28954
     28949     28952     28955     28950     28949     28951     28950     28949     28952
     28951     28949     28952     28952     28955     28956     28952     28955     28957
     28952     28955     28958     28953     28952     28954     28953     28952     28955
     28954     28952     28955     28955     28958     28959     28955     28958     28960
     28955     28958     28961     28956     28955     28957     28956     28955     28958
     28957     28955     28958     28958     28961     28962     28958     28961     28963
     28958     28961     28964     28959     28958     28960     28959     28958     28961
     28960     28958     28961     28961     28964     28965     28961     28964     28966
     28961     28964     28967     28962     28961     28963     28962     28961     28964
     28963     28961     28964     28964     28967     28968     28964     28967     28969
     28964     28967     28970     28965     28964     28966     28965     28964     28967
     28966     28964     28967     28967     28970     28971     28967     28970     28972
     28967     28970     28973     28968     28967     28969     28968     28967     28970
     28969     28967     28970     28970     28973     28974     28970     28973     28975
     28970     28973     28976     28971     28970     28972     28971     28970     28973
     28972     28970     28973     28973     28976     28977     28973     28976     28978
     28973     28976     28979     28974     28973     28975     28974     28973     28976
     28975     28973     28976     28976     28979     28980     28976     28979     28981
     28976     28979     28982     28977     28976     28978     28977     28976     28979
     28978     28976     28979     28979     28982     28983     28979     28982     28984
     28979     28982     28985     28980     28979     28981     28980     28979     28982
     28981     28979     28982     28983     28982     28984     28983     28982     28985
     28984     28982     28985     28986     28987     28988     28986     28987     28989
     28986     28987     29002     28986     28990     28991     28986     28990     28992
     28986     28990     28993     28986     28994     28995     28986     28994     28996
     28986     28994     28997     28986     28998     28999     28986     28998     29000
     28986     28998     29001     28987     28986     28990     28987     28986     28994
     28987     28986     28998     28987     29002     29003     28987     29002     29004
     28987     29002     29008     28988     28987     28989     28988     28987     29002
     28989     28987     29002     28990     28986     28994     28990     28986     28998
     28991     28990     28992     28991     28990     28993     28992     28990     28993
     28994     28986     28998     28995     28994     28996     28995     28994     28997
     28996     28994     28997     28999     28998     29000     28999     28998     29001
     29000     28998     29001     29002     29008     29005     29003     29002     29004
     29003     29002     29008     29004     29002     29008     29005     29009     29010
     29006     29005     29007     29006     29005     29008     29006     29005     29009
     29007     29005     29008     29007     29005     29009     29008     29005     29009
     29009     29010     29011     29009     29010     29012     29009     29010     29013
     29010     29013     29014     29010     29013     29015     29010     29013     29021
     29011     29010     29012     29011     29010     29013     29012     29010     29013
     29013     29015     29016     29013     29021     29022     29013     29021     29023
     29013     29021     29024     29014     29013     29015     29014     29013     29021
     29015     29013     29021     29015     29016     29017     29015     29016     29018
     29016     29018     29019     29016     29018     29020     29016     29018     29030
     29017     29016     29018     29018     29030     29031     29018     29030     29032
     29018     29030     29033     29019     29018     29020     29019     29018     29030
     29020     29018     29030     29021     29024     29025     29022     29021     29023
     29022     29021     29024     29023     29021     29024     29024     29025     29026
     29024     29025     29027     29025     29027     29028     29025     29027     29029
     29025     29027     29077     29026     29025     29027     29027     29077     29078
     29027     29077     29079     29027     29077     29080     29028     29027     29029
     29028     29027     29077     29029     29027     29077     29030     29033     29034
     29030     29033     29035     29030     29033     29036     29031     29030     29032
     29031     29030     29033     29032     29030     29033     29033     29036     29037
     29033     29036     29038     29033     29036     29039     29034     29033     29035
     29034     29033     29036     29035     29033     29036     29036     29039     29040
     29036     29039     29041     29036     29039     29042     29037     29036     29038
     29037     29036     29039     29038     29036     29039     29039     29042     29043
     29039     29042     29044     29039     29042     29045     29040     29039     29041
     29040     29039     29042     29041     29039     29042     29042     29045     29046
     29042     29045     29047     29042     29045     29048     29043     29042     29044
     29043     29042     29045     29044     29042     29045     29045     29048     29049
     29045     29048     29050     29046     29045     29047     29046     29045     29048
     29047     29045     29048     29048     29050     29051     29048     29050     29052
     29049     29048     29050     29050     29052     29053     29050     29052     29054
     29050     29052     29055     29051     29050     29052     29052     29055     29056
     29052     29055     29057     29052     29055     29058     29053     29052     29054
     29053     29052     29055     29054     29052     29055     29055     29058     29059
     29055     29058     29060     29055     29058     29061     29056     29055     29057
     29056     29055     29058     29057     29055     29058     29058     29061     29062
     29058     29061     29063     29058     29061     29064     29059     29058     29060
     29059     29058     29061     29060     29058     29061     29061     29064     29065
     29061     29064     29066     29061     29064     29067     29062     29061     29063
     29062     29061     29064     29063     29061     29064     29064     29067     29068
     29064     29067     29069     29064     29067     29070     29065     29064     29066
     29065     29064     29067     29066     29064     29067     29067     29070     29071
     29067     29070     29072     29067     29070     29073     29068     29067     29069
     29068     29067     29070     29069     29067     29070     29070     29073     29074
     29070     29073     29075     29070     29073     29076     29071     29070     29072
     29071     29070     29073     29072     29070     29073     29074     29073     29075
     29074     29073     29076     29075     29073     29076     29077     29080     29081
     29077     29080     29082     29077     29080     29083     29078     29077     29079
     29078     29077     29080     29079     29077     29080     29080     29083     29084
     29080     29083     29085     29080     29083     29086     29081     29080     29082
     29081     29080     29083     29082     29080     29083     29083     29086     29087
     29083     29086     29088     29083     29086     29089     29084     29083     29085
     29084     29083     29086     29085     29083     29086     29086     29089     29090
     29086     29089     29091     29086     29089     29092     29087     29086     29088
     29087     29086     29089     29088     29086     29089     29089     29092     29093
     29089     29092     29094     29089     29092     29095     29090     29089     29091
     29090     29089     29092     29091     29089     29092     29092     29095     29096
     29092     29095     29097     29092     29095     29098     29093     29092     29094
     29093     29092     29095     29094     29092     29095     29095     29098     29099
     29095     29098     29100     29095     29098     29101     29096     29095     29097
     29096     29095     29098     29097     29095     29098     29098     29101     29102
     29098     29101     29103     29098     29101     29104     29099     29098     29100
     29099     29098     29101     29100     29098     29101     29101     29104     29105
     29101     29104     29106     29101     29104     29107     29102     29101     29103
     29102     29101     29104     29103     29101     29104     29104     29107     29108
     29104     29107     29109     29104     29107     29110     29105     29104     29106
     29105     29104     29107     29106     29104     29107     29107     29110     29111
     29107     29110     29112     29107     29110     29113     29108     29107     29109
     29108     29107     29110     29109     29107     29110     29110     29113     29114
     29110     29113     29115     29110     29113     29116     29111     29110     29112
     29111     29110     29113     29112     29110     29113     29113     29116     29117
     29113     29116     29118     29113     29116     29119     29114     29113     29115
     29114     29113     29116     29115     29113     29116     29117     29116     29118
     29117     29116     29119     29118     29116     29119     29120     29124     29125
     29120     29124     29126     29120     29124     29127     29121     29120     29122
     29121     29120     29123     29121     29120     29124     29122     29120     29123
     29122     29120     29124     29123     29120     29124     29124     29127     29128
     29124     29127     29129     29124     29127     29134     29125     29124     29126
     29125     29124     29127     29126     29124     29127     29127     29134     29130
     29128     29127     29129     29128     29127     29134     29129     29127     29134
     29130     29133     29135     29131     29130     29132     29131     29130     29133
     29131     29130     29134     29132     29130     29133     29132     29130     29134
     29133     29130     29134     29133     29135     29136     29133     29135     29137
     29133     29135     29138     29135     29138     29139     29135     29138     29140
     29135     29138     29146     29136     29135     29137     29136     29135     29138
     29137     29135     29138     29138     29140     29141     29138     29146     29147
     29138     29146     29148     29138     29146     29149     29139     29138     29140
     29139     29138     29146     29140     29138     29146     29140     29141     29142
     29140     29141     29143     29141     29143     29144     29141     29143     29145
     29141     29143     29155     29142     29141     29143     29143     29155     29156
     29143     29155     29157     29143     29155     29158     29144     29143     29145
     29144     29143     29155     29145     29143     29155     29146     29149     29150
     29147     29146     29148     29147     29146     29149     29148     29146     29149
     29149     29150     29151     29149     29150     29152     29150     29152     29153
     29150     29152     29154     29150     29152     29202     29151     29150     29152
     29152     29202     29203     29152     29202     29204     29152     29202     29205
     29153     29152     29154     29153     29152     29202     29154     29152     29202
     29155     29158     29159     29155     29158     29160     29155     29158     29161
     29156     29155     29157     29156     29155     29158     29157     29155     29158
     29158     29161     29162     29158     29161     29163     29158     29161     29164
     29159     29158     29160     29159     29158     29161     29160     29158     29161
     29161     29164     29165     29161     29164     29166     29161     29164     29167
     29162     29161     29163     29162     29161     29164     29163     29161     29164
     29164     29167     29168     29164     29167     29169     29164     29167     29170
     29165     29164     29166     29165     29164     29167     29166     29164     29167
     29167     29170     29171     29167     29170     29172     29167     29170     29173
     29168     29167     29169     29168     29167     29170     29169     29167     29170
     29170     29173     29174     29170     29173     29175     29171     29170     29172
     29171     29170     29173     29172     29170     29173     29173     29175     29176
     29173     29175     29177     29174     29173     29175     29175     29177     29178
     29175     29177     29179     29175     29177     29180     29176     29175     29177
     29177     29180     29181     29177     29180     29182     29177     29180     29183
     29178     29177     29179     29178     29177     29180     29179     29177     29180
     29180     29183     29184     29180     29183     29185     29180     29183     29186
     29181     29180     29182     29181     29180     29183     29182     29180     29183
     29183     29186     29187     29183     29186     29188     29183     29186     29189
     29184     29183     29185     29184     29183     29186     29185     29183     29186
     29186     29189     29190     29186     29189     29191     29186     29189     29192
     29187     29186     29188     29187     29186     29189     29188     29186     29189
     29189     29192     29193     29189     29192     29194     29189     29192     29195
     29190     29189     29191     29190     29189     29192     29191     29189     29192
     29192     29195     29196     29192     29195     29197     29192     29195     29198
     29193     29192     29194     29193     29192     29195     29194     29192     29195
     29195     29198     29199     29195     29198     29200     29195     29198     29201
     29196     29195     29197     29196     29195     29198     29197     29195     29198
     29199     29198     29200     29199     29198     29201     29200     29198     29201
     29202     29205     29206     29202     29205     29207     29202     29205     29208
     29203     29202     29204     29203     29202     29205     29204     29202     29205
     29205     29208     29209     29205     29208     29210     29205     29208     29211
     29206     29205     29207     29206     29205     29208     29207     29205     29208
     29208     29211     29212     29208     29211     29213     29208     29211     29214
     29209     29208     29210     29209     29208     29211     29210     29208     29211
     29211     29214     29215     29211     29214     29216     29211     29214     29217
     29212     29211     29213     29212     29211     29214     29213     29211     29214
     29214     29217     29218     29214     29217     29219     29214     29217     29220
     29215     29214     29216     29215     29214     29217     29216     29214     29217
     29217     29220     29221     29217     29220     29222     29217     29220     29223
     29218     29217     29219     29218     29217     29220     29219     29217     29220
     29220     29223     29224     29220     29223     29225     29220     29223     29226
     29221     29220     29222     29221     29220     29223     29222     29220     29223
     29223     29226     29227     29223     29226     29228     29223     29226     29229
     29224     29223     29225     29224     29223     29226     29225     29223     29226
     29226     29229     29230     29226     29229     29231     29226     29229     29232
     29227     29226     29228     29227     29226     29229     29228     29226     29229
     29229     29232     29233     29229     29232     29234     29229     29232     29235
     29230     29229     29231     29230     29229     29232     29231     29229     29232
     29232     29235     29236     29232     29235     29237     29232     29235     29238
     29233     29232     29234     29233     29232     29235     29234     29232     29235
     29235     29238     29239     29235     29238     29240     29235     29238     29241
     29236     29235     29237     29236     29235     29238     29237     29235     29238
     29238     29241     29242     29238     29241     29243     29238     29241     29244
     29239     29238     29240     29239     29238     29241     29240     29238     29241
     29242     29241     29243     29242     29241     29244     29243     29241     29244
     29245     29246     29247     29245     29246     29248     29245     29246     29261
     29245     29249     29250     29245     29249     29251     29245     29249     29252
     29245     29253     29254     29245     29253     29255     29245     29253     29256
     29245     29257     29258     29245     29257     29259     29245     29257     29260
     29246     29245     29249     29246     29245     29253     29246     29245     29257
     29246     29261     29262     29246     29261     29263     29246     29261     29267
     29247     29246     29248     29247     29246     29261     29248     29246     29261
     29249     29245     29253     29249     29245     29257     29250     29249     29251
     29250     29249     29252     29251     29249     29252     29253     29245     29257
     29254     29253     29255     29254     29253     29256     29255     29253     29256
     29258     29257     29259     29258     29257     29260     29259     29257     29260
     29261     29267     29264     29262     29261     29263     29262     29261     29267
     29263     29261     29267     29264     29268     29269     29265     29264     29266
     29265     29264     29267     29265     29264     29268     29266     29264     29267
     29266     29264     29268     29267     29264     29268     29268     29269     29270
     29268     29269     29271     29268     29269     29272     29269     29272     29273
     29269     29272     29274     29269     29272     29280     29270     29269     29271
     29270     29269     29272     29271     29269     29272     29272     29274     29275
     29272     29280     29281     29272     29280     29282     29272     29280     29283
     29273     29272     29274     29273     29272     29280     29274     29272     29280
     29274     29275     29276     29274     29275     29277     29275     29277     29278
     29275     29277     29279     29275     29277     29289     29276     29275     29277
     29277     29289     29290     29277     29289     29291     29277     29289     29292
     29278     29277     29279     29278     29277     29289     29279     29277     29289
     29280     29283     29284     29281     29280     29282     29281     29280     29283
     29282     29280     29283     29283     29284     29285     29283     29284     29286
     29284     29286     29287     29284     29286     29288     29284     29286     29336
     29285     29284     29286     29286     29336     29337     29286     29336     29338
     29286     29336     29339     29287     29286     29288     29287     29286     29336
     29288     29286     29336     29289     29292     29293     29289     29292     29294
     29289     29292     29295     29290     29289     29291     29290     29289     29292
     29291     29289     29292     29292     29295     29296     29292     29295     29297
     29292     29295     29298     29293     29292     29294     29293     29292     29295
     29294     29292     29295     29295     29298     29299     29295     29298     29300
     29295     29298     29301     29296     29295     29297     29296     29295     29298
     29297     29295     29298     29298     29301     29302     29298     29301     29303
     29298     29301     29304     29299     29298     29300     29299     29298     29301
     29300     29298     29301     29301     29304     29305     29301     29304     29306
     29301     29304     29307     29302     29301     29303     29302     29301     29304
     29303     29301     29304     29304     29307     29308     29304     29307     29309
     29305     29304     29306     29305     29304     29307     29306     29304     29307
     29307     29309     29310     29307     29309     29311     29308     29307     29309
     29309     29311     29312     29309     29311     29313     29309     29311     29314
     29310     29309     29311     29311     29314     29315     29311     29314     29316
     29311     29314     29317     29312     29311     29313     29312     29311     29314
     29313     29311     29314     29314     29317     29318     29314     29317     29319
     29314     29317     29320     29315     29314     29316     29315     29314     29317
     29316     29314     29317     29317     29320     29321     29317     29320     29322
     29317     29320     29323     29318     29317     29319     29318     29317     29320
     29319     29317     29320     29320     29323     29324     29320     29323     29325
     29320     29323     29326     29321     29320     29322     29321     29320     29323
     29322     29320     29323     29323     29326     29327     29323     29326     29328
     29323     29326     29329     29324     29323     29325     29324     29323     29326
     29325     29323     29326     29326     29329     29330     29326     29329     29331
     29326     29329     29332     29327     29326     29328     29327     29326     29329
     29328     29326     29329     29329     29332     29333     29329     29332     29334
     29329     29332     29335     29330     29329     29331     29330     29329     29332
     29331     29329     29332     29333     29332     29334     29333     29332     29335
     29334     29332     29335     29336     29339     29340     29336     29339     29341
     29336     29339     29342     29337     29336     29338     29337     29336     29339
     29338     29336     29339     29339     29342     29343     29339     29342     29344
     29339     29342     29345     29340     29339     29341     29340     29339     29342
     29341     29339     29342     29342     29345     29346     29342     29345     29347
     29342     29345     29348     29343     29342     29344     29343     29342     29345
     29344     29342     29345     29345     29348     29349     29345     29348     29350
     29345     29348     29351     29346     29345     29347     29346     29345     29348
     29347     29345     29348     29348     29351     29352     29348     29351     29353
     29348     29351     29354     29349     29348     29350     29349     29348     29351
     29350     29348     29351     29351     29354     29355     29351     29354     29356
     29351     29354     29357     29352     29351     29353     29352     29351     29354
     29353     29351     29354     29354     29357     29358     29354     29357     29359
     29354     29357     29360     29355     29354     29356     29355     29354     29357
     29356     29354     29357     29357     29360     29361     29357     29360     29362
     29357     29360     29363     29358     29357     29359     29358     29357     29360
     29359     29357     29360     29360     29363     29364     29360     29363     29365
     29360     29363     29366     29361     29360     29362     29361     29360     29363
     29362     29360     29363     29363     29366     29367     29363     29366     29368
     29363     29366     29369     29364     29363     29365     29364     29363     29366
     29365     29363     29366     29366     29369     29370     29366     29369     29371
     29366     29369     29372     29367     29366     29368     29367     29366     29369
     29368     29366     29369     29369     29372     29373     29369     29372     29374
     29369     29372     29375     29370     29369     29371     29370     29369     29372
     29371     29369     29372     29372     29375     29376     29372     29375     29377
     29372     29375     29378     29373     29372     29374     29373     29372     29375
     29374     29372     29375     29376     29375     29377     29376     29375     29378
     29377     29375     29378     29379     29380     29381     29379     29380     29382
     29379     29380     29395     29379     29383     29384     29379     29383     29385
     29379     29383     29386     29379     29387     29388     29379     29387     29389
     29379     29387     29390     29379     29391     29392     29379     29391     29393
     29379     29391     29394     29380     29379     29383     29380     29379     29387
     29380     29379     29391     29380     29395     29396     29380     29395     29397
     29380     29395     29401     29381     29380     29382     29381     29380     29395
     29382     29380     29395     29383     29379     29387     29383     29379     29391
     29384     29383     29385     29384     29383     29386     29385     29383     29386
     29387     29379     29391     29388     29387     29389     29388     29387     29390
     29389     29387     29390     29392     29391     29393     29392     29391     29394
     29393     29391     29394     29395     29401     29398     29396     29395     29397
     29396     29395     29401     29397     29395     29401     29398     29402     29403
     29399     29398     29400     29399     29398     29401     29399     29398     29402
     29400     29398     29401     29400     29398     29402     29401     29398     29402
     29402     29403     29404     29402     29403     29405     29402     29403     29406
     29403     29406     29407     29403     29406     29408     29403     29406     29414
     29404     29403     29405     29404     29403     29406     29405     29403     29406
     29406     29408     29409     29406     29414     29415     29406     29414     29416
     29406     29414     29417     29407     29406     29408     29407     29406     29414
     29408     29406     29414     29408     29409     29410     29408     29409     29411
     29409     29411     29412     29409     29411     29413     29409     29411     29423
     29410     29409     29411     29411     29423     29424     29411     29423     29425
     29411     29423     29426     29412     29411     29413     29412     29411     29423
     29413     29411     29423     29414     29417     29418     29415     29414     29416
     29415     29414     29417     29416     29414     29417     29417     29418     29419
     29417     29418     29420     29418     29420     29421     29418     29420     29422
     29418     29420     29470     29419     29418     29420     29420     29470     29471
     29420     29470     29472     29420     29470     29473     29421     29420     29422
     29421     29420     29470     29422     29420     29470     29423     29426     29427
     29423     29426     29428     29423     29426     29429     29424     29423     29425
     29424     29423     29426     29425     29423     29426     29426     29429     29430
     29426     29429     29431     29426     29429     29432     29427     29426     29428
     29427     29426     29429     29428     29426     29429     29429     29432     29433
     29429     29432     29434     29429     29432     29435     29430     29429     29431
     29430     29429     29432     29431     29429     29432     29432     29435     29436
     29432     29435     29437     29432     29435     29438     29433     29432     29434
     29433     29432     29435     29434     29432     29435     29435     29438     29439
     29435     29438     29440     29435     29438     29441     29436     29435     29437
     29436     29435     29438     29437     29435     29438     29438     29441     29442
     29438     29441     29443     29439     29438     29440     29439     29438     29441
     29440     29438     29441     29441     29443     29444     29441     29443     29445
     29442     29441     29443     29443     29445     29446     29443     29445     29447
     29443     29445     29448     29444     29443     29445     29445     29448     29449
     29445     29448     29450     29445     29448     29451     29446     29445     29447
     29446     29445     29448     29447     29445     29448     29448     29451     29452
     29448     29451     29453     29448     29451     29454     29449     29448     29450
     29449     29448     29451     29450     29448     29451     29451     29454     29455
     29451     29454     29456     29451     29454     29457     29452     29451     29453
     29452     29451     29454     29453     29451     29454     29454     29457     29458
     29454     29457     29459     29454     29457     29460     29455     29454     29456
     29455     29454     29457     29456     29454     29457     29457     29460     29461
     29457     29460     29462     29457     29460     29463     29458     29457     29459
     29458     29457     29460     29459     29457     29460     29460     29463     29464
     29460     29463     29465     29460     29463     29466     29461     29460     29462
     29461     29460     29463     29462     29460     29463     29463     29466     29467
     29463     29466     29468     29463     29466     29469     29464     29463     29465
     29464     29463     29466     29465     29463     29466     29467     29466     29468
     29467     29466     29469     29468     29466     29469     29470     29473     29474
     29470     29473     29475     29470     29473     29476     29471     29470     29472
     29471     29470     29473     29472     29470     29473     29473     29476     29477
     29473     29476     29478     29473     29476     29479     29474     29473     29475
     29474     29473     29476     29475     29473     29476     29476     29479     29480
     29476     29479     29481     29476     29479     29482     29477     29476     29478
     29477     29476     29479     29478     29476     29479     29479     29482     29483
     29479     29482     29484     29479     29482     29485     29480     29479     29481
     29480     29479     29482     29481     29479     29482     29482     29485     29486
     29482     29485     29487     29482     29485     29488     29483     29482     29484
     29483     29482     29485     29484     29482     29485     29485     29488     29489
     29485     29488     29490     29485     29488     29491     29486     29485     29487
     29486     29485     29488     29487     29485     29488     29488     29491     29492
     29488     29491     29493     29488     29491     29494     29489     29488     29490
     29489     29488     29491     29490     29488     29491     29491     29494     29495
     29491     29494     29496     29491     29494     29497     29492     29491     29493
     29492     29491     29494     29493     29491     29494     29494     29497     29498
     29494     29497     29499     29494     29497     29500     29495     29494     29496
     29495     29494     29497     29496     29494     29497     29497     29500     29501
     29497     29500     29502     29497     29500     29503     29498     29497     29499
     29498     29497     29500     29499     29497     29500     29500     29503     29504
     29500     29503     29505     29500     29503     29506     29501     29500     29502
     29501     29500     29503     29502     29500     29503     29503     29506     29507
     29503     29506     29508     29503     29506     29509     29504     29503     29505
     29504     29503     29506     29505     29503     29506     29506     29509     29510
     29506     29509     29511     29506     29509     29512     29507     29506     29508
     29507     29506     29509     29508     29506     29509     29510     29509     29511
     29510     29509     29512     29511     29509     29512     29513     29514     29515
     29513     29514     29516     29513     29514     29529     29513     29517     29518
     29513     29517     29519     29513     29517     29520     29513     29521     29522
     29513     29521     29523     29513     29521     29524     29513     29525     29526
     29513     29525     29527     29513     29525     29528     29514     29513     29517
     29514     29513     29521     29514     29513     29525     29514     29529     29530
     29514     29529     29531     29514     29529     29535     29515     29514     29516
     29515     29514     29529     29516     29514     29529     29517     29513     29521
     29517     29513     29525     29518     29517     29519     29518     29517     29520
     29519     29517     29520     29521     29513     29525     29522     29521     29523
     29522     29521     29524     29523     29521     29524     29526     29525     29527
     29526     29525     29528     29527     29525     29528     29529     29535     29532
     29530     29529     29531     29530     29529     29535     29531     29529     29535
     29532     29536     29537     29533     29532     29534     29533     29532     29535
     29533     29532     29536     29534     29532     29535     29534     29532     29536
     29535     29532     29536     29536     29537     29538     29536     29537     29539
     29536     29537     29540     29537     29540     29541     29537     29540     29542
     29537     29540     29548     29538     29537     29539     29538     29537     29540
     29539     29537     29540     29540     29542     29543     29540     29548     29549
     29540     29548     29550     29540     29548     29551     29541     29540     29542
     29541     29540     29548     29542     29540     29548     29542     29543     29544
     29542     29543     29545     29543     29545     29546     29543     29545     29547
     29543     29545     29557     29544     29543     29545     29545     29557     29558
     29545     29557     29559     29545     29557     29560     29546     29545     29547
     29546     29545     29557     29547     29545     29557     29548     29551     29552
     29549     29548     29550     29549     29548     29551     29550     29548     29551
     29551     29552     29553     29551     29552     29554     29552     29554     29555
     29552     29554     29556     29552     29554     29604     29553     29552     29554
     29554     29604     29605     29554     29604     29606     29554     29604     29607
     29555     29554     29556     29555     29554     29604     29556     29554     29604
     29557     29560     29561     29557     29560     29562     29557     29560     29563
     29558     29557     29559     29558     29557     29560     29559     29557     29560
     29560     29563     29564     29560     29563     29565     29560     29563     29566
     29561     29560     29562     29561     29560     29563     29562     29560     29563
     29563     29566     29567     29563     29566     29568     29563     29566     29569
     29564     29563     29565     29564     29563     29566     29565     29563     29566
     29566     29569     29570     29566     29569     29571     29566     29569     29572
     29567     29566     29568     29567     29566     29569     29568     29566     29569
     29569     29572     29573     29569     29572     29574     29569     29572     29575
     29570     29569     29571     29570     29569     29572     29571     29569     29572
     29572     29575     29576     29572     29575     29577     29573     29572     29574
     29573     29572     29575     29574     29572     29575     29575     29577     29578
     29575     29577     29579     29576     29575     29577     29577     29579     29580
     29577     29579     29581     29577     29579     29582     29578     29577     29579
     29579     29582     29583     29579     29582     29584     29579     29582     29585
     29580     29579     29581     29580     29579     29582     29581     29579     29582
     29582     29585     29586     29582     29585     29587     29582     29585     29588
     29583     29582     29584     29583     29582     29585     29584     29582     29585
     29585     29588     29589     29585     29588     29590     29585     29588     29591
     29586     29585     29587     29586     29585     29588     29587     29585     29588
     29588     29591     29592     29588     29591     29593     29588     29591     29594
     29589     29588     29590     29589     29588     29591     29590     29588     29591
     29591     29594     29595     29591     29594     29596     29591     29594     29597
     29592     29591     29593     29592     29591     29594     29593     29591     29594
     29594     29597     29598     29594     29597     29599     29594     29597     29600
     29595     29594     29596     29595     29594     29597     29596     29594     29597
     29597     29600     29601     29597     29600     29602     29597     29600     29603
     29598     29597     29599     29598     29597     29600     29599     29597     29600
     29601     29600     29602     29601     29600     29603     29602     29600     29603
     29604     29607     29608     29604     29607     29609     29604     29607     29610
     29605     29604     29606     29605     29604     29607     29606     29604     29607
     29607     29610     29611     29607     29610     29612     29607     29610     29613
     29608     29607     29609     29608     29607     29610     29609     29607     29610
     29610     29613     29614     29610     29613     29615     29610     29613     29616
     29611     29610     29612     29611     29610     29613     29612     29610     29613
     29613     29616     29617     29613     29616     29618     29613     29616     29619
     29614     29613     29615     29614     29613     29616     29615     29613     29616
     29616     29619     29620     29616     29619     29621     29616     29619     29622
     29617     29616     29618     29617     29616     29619     29618     29616     29619
     29619     29622     29623     29619     29622     29624     29619     29622     29625
     29620     29619     29621     29620     29619     29622     29621     29619     29622
     29622     29625     29626     29622     29625     29627     29622     29625     29628
     29623     29622     29624     29623     29622     29625     29624     29622     29625
     29625     29628     29629     29625     29628     29630     29625     29628     29631
     29626     29625     29627     29626     29625     29628     29627     29625     29628
     29628     29631     29632     29628     29631     29633     29628     29631     29634
     29629     29628     29630     29629     29628     29631     29630     29628     29631
     29631     29634     29635     29631     29634     29636     29631     29634     29637
     29632     29631     29633     29632     29631     29634     29633     29631     29634
     29634     29637     29638     29634     29637     29639     29634     29637     29640
     29635     29634     29636     29635     29634     29637     29636     29634     29637
     29637     29640     29641     29637     29640     29642     29637     29640     29643
     29638     29637     29639     29638     29637     29640     29639     29637     29640
     29640     29643     29644     29640     29643     29645     29640     29643     29646
     29641     29640     29642     29641     29640     29643     29642     29640     29643
     29644     29643     29645     29644     29643     29646     29645     29643     29646
     29647     29648     29649     29647     29648     29650     29647     29648     29663
     29647     29651     29652     29647     29651     29653     29647     29651     29654
     29647     29655     29656     29647     29655     29657     29647     29655     29658
     29647     29659     29660     29647     29659     29661     29647     29659     29662
     29648     29647     29651     29648     29647     29655     29648     29647     29659
     29648     29663     29664     29648     29663     29665     29648     29663     29669
     29649     29648     29650     29649     29648     29663     29650     29648     29663
     29651     29647     29655     29651     29647     29659     29652     29651     29653
     29652     29651     29654     29653     29651     29654     29655     29647     29659
     29656     29655     29657     29656     29655     29658     29657     29655     29658
     29660     29659     29661     29660     29659     29662     29661     29659     29662
     29663     29669     29666     29664     29663     29665     29664     29663     29669
     29665     29663     29669     29666     29670     29671     29667     29666     29668
     29667     29666     29669     29667     29666     29670     29668     29666     29669
     29668     29666     29670     29669     29666     29670     29670     29671     29672
     29670     29671     29673     29670     29671     29674     29671     29674     29675
     29671     29674     29676     29671     29674     29682     29672     29671     29673
     29672     29671     29674     29673     29671     29674     29674     29676     29677
     29674     29682     29683     29674     29682     29684     29674     29682     29685
     29675     29674     29676     29675     29674     29682     29676     29674     29682
     29676     29677     29678     29676     29677     29679     29677     29679     29680
     29677     29679     29681     29677     29679     29691     29678     29677     29679
     29679     29691     29692     29679     29691     29693     29679     29691     29694
     29680     29679     29681     29680     29679     29691     29681     29679     29691
     29682     29685     29686     29683     29682     29684     29683     29682     29685
     29684     29682     29685     29685     29686     29687     29685     29686     29688
     29686     29688     29689     29686     29688     29690     29686     29688     29738
     29687     29686     29688     29688     29738     29739     29688     29738     29740
     29688     29738     29741     29689     29688     29690     29689     29688     29738
     29690     29688     29738     29691     29694     29695     29691     29694     29696
     29691     29694     29697     29692     29691     29693     29692     29691     29694
     29693     29691     29694     29694     29697     29698     29694     29697     29699
     29694     29697     29700     29695     29694     29696     29695     29694     29697
     29696     29694     29697     29697     29700     29701     29697     29700     29702
     29697     29700     29703     29698     29697     29699     29698     29697     29700
     29699     29697     29700     29700     29703     29704     29700     29703     29705
     29700     29703     29706     29701     29700     29702     29701     29700     29703
     29702     29700     29703     29703     29706     29707     29703     29706     29708
     29703     29706     29709     29704     29703     29705     29704     29703     29706
     29705     29703     29706     29706     29709     29710     29706     29709     29711
     29707     29706     29708     29707     29706     29709     29708     29706     29709
     29709     29711     29712     29709     29711     29713     29710     29709     29711
     29711     29713     29714     29711     29713     29715     29711     29713     29716
     29712     29711     29713     29713     29716     29717     29713     29716     29718
     29713     29716     29719     29714     29713     29715     29714     29713     29716
     29715     29713     29716     29716     29719     29720     29716     29719     29721
     29716     29719     29722     29717     29716     29718     29717     29716     29719
     29718     29716     29719     29719     29722     29723     29719     29722     29724
     29719     29722     29725     29720     29719     29721     29720     29719     29722
     29721     29719     29722     29722     29725     29726     29722     29725     29727
     29722     29725     29728     29723     29722     29724     29723     29722     29725
     29724     29722     29725     29725     29728     29729     29725     29728     29730
     29725     29728     29731     29726     29725     29727     29726     29725     29728
     29727     29725     29728     29728     29731     29732     29728     29731     29733
     29728     29731     29734     29729     29728     29730     29729     29728     29731
     29730     29728     29731     29731     29734     29735     29731     29734     29736
     29731     29734     29737     29732     29731     29733     29732     29731     29734
     29733     29731     29734     29735     29734     29736     29735     29734     29737
     29736     29734     29737     29738     29741     29742     29738     29741     29743
     29738     29741     29744     29739     29738     29740     29739     29738     29741
     29740     29738     29741     29741     29744     29745     29741     29744     29746
     29741     29744     29747     29742     29741     29743     29742     29741     29744
     29743     29741     29744     29744     29747     29748     29744     29747     29749
     29744     29747     29750     29745     29744     29746     29745     29744     29747
     29746     29744     29747     29747     29750     29751     29747     29750     29752
     29747     29750     29753     29748     29747     29749     29748     29747     29750
     29749     29747     29750     29750     29753     29754     29750     29753     29755
     29750     29753     29756     29751     29750     29752     29751     29750     29753
     29752     29750     29753     29753     29756     29757     29753     29756     29758
     29753     29756     29759     29754     29753     29755     29754     29753     29756
     29755     29753     29756     29756     29759     29760     29756     29759     29761
     29756     29759     29762     29757     29756     29758     29757     29756     29759
     29758     29756     29759     29759     29762     29763     29759     29762     29764
     29759     29762     29765     29760     29759     29761     29760     29759     29762
     29761     29759     29762     29762     29765     29766     29762     29765     29767
     29762     29765     29768     29763     29762     29764     29763     29762     29765
     29764     29762     29765     29765     29768     29769     29765     29768     29770
     29765     29768     29771     29766     29765     29767     29766     29765     29768
     29767     29765     29768     29768     29771     29772     29768     29771     29773
     29768     29771     29774     29769     29768     29770     29769     29768     29771
     29770     29768     29771     29771     29774     29775     29771     29774     29776
     29771     29774     29777     29772     29771     29773     29772     29771     29774
     29773     29771     29774     29774     29777     29778     29774     29777     29779
     29774     29777     29780     29775     29774     29776     29775     29774     29777
     29776     29774     29777     29778     29777     29779     29778     29777     29780
     29779     29777     29780     29781     29782     29783     29781     29782     29784
     29781     29782     29797     29781     29785     29786     29781     29785     29787
     29781     29785     29788     29781     29789     29790     29781     29789     29791
     29781     29789     29792     29781     29793     29794     29781     29793     29795
     29781     29793     29796     29782     29781     29785     29782     29781     29789
     29782     29781     29793     29782     29797     29798     29782     29797     29799
     29782     29797     29803     29783     29782     29784     29783     29782     29797
     29784     29782     29797     29785     29781     29789     29785     29781     29793
     29786     29785     29787     29786     29785     29788     29787     29785     29788
     29789     29781     29793     29790     29789     29791     29790     29789     29792
     29791     29789     29792     29794     29793     29795     29794     29793     29796
     29795     29793     29796     29797     29803     29800     29798     29797     29799
     29798     29797     29803     29799     29797     29803     29800     29804     29805
     29801     29800     29802     29801     29800     29803     29801     29800     29804
     29802     29800     29803     29802     29800     29804     29803     29800     29804
     29804     29805     29806     29804     29805     29807     29804     29805     29808
     29805     29808     29809     29805     29808     29810     29805     29808     29816
     29806     29805     29807     29806     29805     29808     29807     29805     29808
     29808     29810     29811     29808     29816     29817     29808     29816     29818
     29808     29816     29819     29809     29808     29810     29809     29808     29816
     29810     29808     29816     29810     29811     29812     29810     29811     29813
     29811     29813     29814     29811     29813     29815     29811     29813     29825
     29812     29811     29813     29813     29825     29826     29813     29825     29827
     29813     29825     29828     29814     29813     29815     29814     29813     29825
     29815     29813     29825     29816     29819     29820     29817     29816     29818
     29817     29816     29819     29818     29816     29819     29819     29820     29821
     29819     29820     29822     29820     29822     29823     29820     29822     29824
     29820     29822     29872     29821     29820     29822     29822     29872     29873
     29822     29872     29874     29822     29872     29875     29823     29822     29824
     29823     29822     29872     29824     29822     29872     29825     29828     29829
     29825     29828     29830     29825     29828     29831     29826     29825     29827
     29826     29825     29828     29827     29825     29828     29828     29831     29832
     29828     29831     29833     29828     29831     29834     29829     29828     29830
     29829     29828     29831     29830     29828     29831     29831     29834     29835
     29831     29834     29836     29831     29834     29837     29832     29831     29833
     29832     29831     29834     29833     29831     29834     29834     29837     29838
     29834     29837     29839     29834     29837     29840     29835     29834     29836
     29835     29834     29837     29836     29834     29837     29837     29840     29841
     29837     29840     29842     29837     29840     29843     29838     29837     29839
     29838     29837     29840     29839     29837     29840     29840     29843     29844
     29840     29843     29845     29841     29840     29842     29841     29840     29843
     29842     29840     29843     29843     29845     29846     29843     29845     29847
     29844     29843     29845     29845     29847     29848     29845     29847     29849
     29845     29847     29850     29846     29845     29847     29847     29850     29851
     29847     29850     29852     29847     29850     29853     29848     29847     29849
     29848     29847     29850     29849     29847     29850     29850     29853     29854
     29850     29853     29855     29850     29853     29856     29851     29850     29852
     29851     29850     29853     29852     29850     29853     29853     29856     29857
     29853     29856     29858     29853     29856     29859     29854     29853     29855
     29854     29853     29856     29855     29853     29856     29856     29859     29860
     29856     29859     29861     29856     29859     29862     29857     29856     29858
     29857     29856     29859     29858     29856     29859     29859     29862     29863
     29859     29862     29864     29859     29862     29865     29860     29859     29861
     29860     29859     29862     29861     29859     29862     29862     29865     29866
     29862     29865     29867     29862     29865     29868     29863     29862     29864
     29863     29862     29865     29864     29862     29865     29865     29868     29869
     29865     29868     29870     29865     29868     29871     29866     29865     29867
     29866     29865     29868     29867     29865     29868     29869     29868     29870
     29869     29868     29871     29870     29868     29871     29872     29875     29876
     29872     29875     29877     29872     29875     29878     29873     29872     29874
     29873     29872     29875     29874     29872     29875     29875     29878     29879
     29875     29878     29880     29875     29878     29881     29876     29875     29877
     29876     29875     29878     29877     29875     29878     29878     29881     29882
     29878     29881     29883     29878     29881     29884     29879     29878     29880
     29879     29878     29881     29880     29878     29881     29881     29884     29885
     29881     29884     29886     29881     29884     29887     29882     29881     29883
     29882     29881     29884     29883     29881     29884     29884     29887     29888
     29884     29887     29889     29884     29887     29890     29885     29884     29886
     29885     29884     29887     29886     29884     29887     29887     29890     29891
     29887     29890     29892     29887     29890     29893     29888     29887     29889
     29888     29887     29890     29889     29887     29890     29890     29893     29894
     29890     29893     29895     29890     29893     29896     29891     29890     29892
     29891     29890     29893     29892     29890     29893     29893     29896     29897
     29893     29896     29898     29893     29896     29899     29894     29893     29895
     29894     29893     29896     29895     29893     29896     29896     29899     29900
     29896     29899     29901     29896     29899     29902     29897     29896     29898
     29897     29896     29899     29898     29896     29899     29899     29902     29903
     29899     29902     29904     29899     29902     29905     29900     29899     29901
     29900     29899     29902     29901     29899     29902     29902     29905     29906
     29902     29905     29907     29902     29905     29908     29903     29902     29904
     29903     29902     29905     29904     29902     29905     29905     29908     29909
     29905     29908     29910     29905     29908     29911     29906     29905     29907
     29906     29905     29908     29907     29905     29908     29908     29911     29912
     29908     29911     29913     29908     29911     29914     29909     29908     29910
     29909     29908     29911     29910     29908     29911     29912     29911     29913
     29912     29911     29914     29913     29911     29914     29915     29916     29917
     29915     29916     29918     29915     29916     29931     29915     29919     29920
     29915     29919     29921     29915     29919     29922     29915     29923     29924
     29915     29923     29925     29915     29923     29926     29915     29927     29928
     29915     29927     29929     29915     29927     29930     29916     29915     29919
     29916     29915     29923     29916     29915     29927     29916     29931     29932
     29916     29931     29933     29916     29931     29937     29917     29916     29918
     29917     29916     29931     29918     29916     29931     29919     29915     29923
     29919     29915     29927     29920     29919     29921     29920     29919     29922
     29921     29919     29922     29923     29915     29927     29924     29923     29925
     29924     29923     29926     29925     29923     29926     29928     29927     29929
     29928     29927     29930     29929     29927     29930     29931     29937     29934
     29932     29931     29933     29932     29931     29937     29933     29931     29937
     29934     29938     29939     29935     29934     29936     29935     29934     29937
     29935     29934     29938     29936     29934     29937     29936     29934     29938
     29937     29934     29938     29938     29939     29940     29938     29939     29941
     29938     29939     29942     29939     29942     29943     29939     29942     29944
     29939     29942     29950     29940     29939     29941     29940     29939     29942
     29941     29939     29942     29942     29944     29945     29942     29950     29951
     29942     29950     29952     29942     29950     29953     29943     29942     29944
     29943     29942     29950     29944     29942     29950     29944     29945     29946
     29944     29945     29947     29945     29947     29948     29945     29947     29949
     29945     29947     29959     29946     29945     29947     29947     29959     29960
     29947     29959     29961     29947     29959     29962     29948     29947     29949
     29948     29947     29959     29949     29947     29959     29950     29953     29954
     29951     29950     29952     29951     29950     29953     29952     29950     29953
     29953     29954     29955     29953     29954     29956     29954     29956     29957
     29954     29956     29958     29954     29956     30006     29955     29954     29956
     29956     30006     30007     29956     30006     30008     29956     30006     30009
     29957     29956     29958     29957     29956     30006     29958     29956     30006
     29959     29962     29963     29959     29962     29964     29959     29962     29965
     29960     29959     29961     29960     29959     29962     29961     29959     29962
     29962     29965     29966     29962     29965     29967     29962     29965     29968
     29963     29962     29964     29963     29962     29965     29964     29962     29965
     29965     29968     29969     29965     29968     29970     29965     29968     29971
     29966     29965     29967     29966     29965     29968     29967     29965     29968
     29968     29971     29972     29968     29971     29973     29968     29971     29974
     29969     29968     29970     29969     29968     29971     29970     29968     29971
     29971     29974     29975     29971     29974     29976     29971     29974     29977
     29972     29971     29973     29972     29971     29974     29973     29971     29974
     29974     29977     29978     29974     29977     29979     29975     29974     29976
     29975     29974     29977     29976     29974     29977     29977     29979     29980
     29977     29979     29981     29978     29977     29979     29979     29981     29982
     29979     29981     29983     29979     29981     29984     29980     29979     29981
     29981     29984     29985     29981     29984     29986     29981     29984     29987
     29982     29981     29983     29982     29981     29984     29983     29981     29984
     29984     29987     29988     29984     29987     29989     29984     29987     29990
     29985     29984     29986     29985     29984     29987     29986     29984     29987
     29987     29990     29991     29987     29990     29992     29987     29990     29993
     29988     29987     29989     29988     29987     29990     29989     29987     29990
     29990     29993     29994     29990     29993     29995     29990     29993     29996
     29991     29990     29992     29991     29990     29993     29992     29990     29993
     29993     29996     29997     29993     29996     29998     29993     29996     29999
     29994     29993     29995     29994     29993     29996     29995     29993     29996
     29996     29999     30000     29996     29999     30001     29996     29999     30002
     29997     29996     29998     29997     29996     29999     29998     29996     29999
     29999     30002     30003     29999     30002     30004     29999     30002     30005
     30000     29999     30001     30000     29999     30002     30001     29999     30002
     30003     30002     30004     30003     30002     30005     30004     30002     30005
     30006     30009     30010     30006     30009     30011     30006     30009     30012
     30007     30006     30008     30007     30006     30009     30008     30006     30009
     30009     30012     30013     30009     30012     30014     30009     30012     30015
     30010     30009     30011     30010     30009     30012     30011     30009     30012
     30012     30015     30016     30012     30015     30017     30012     30015     30018
     30013     30012     30014     30013     30012     30015     30014     30012     30015
     30015     30018     30019     30015     30018     30020     30015     30018     30021
     30016     30015     30017     30016     30015     30018     30017     30015     30018
     30018     30021     30022     30018     30021     30023     30018     30021     30024
     30019     30018     30020     30019     30018     30021     30020     30018     30021
     30021     30024     30025     30021     30024     30026     30021     30024     30027
     30022     30021     30023     30022     30021     30024     30023     30021     30024
     30024     30027     30028     30024     30027     30029     30024     30027     30030
     30025     30024     30026     30025     30024     30027     30026     30024     30027
     30027     30030     30031     30027     30030     30032     30027     30030     30033
     30028     30027     30029     30028     30027     30030     30029     30027     30030
     30030     30033     30034     30030     30033     30035     30030     30033     30036
     30031     30030     30032     30031     30030     30033     30032     30030     30033
     30033     30036     30037     30033     30036     30038     30033     30036     30039
     30034     30033     30035     30034     30033     30036     30035     30033     30036
     30036     30039     30040     30036     30039     30041     30036     30039     30042
     30037     30036     30038     30037     30036     30039     30038     30036     30039
     30039     30042     30043     30039     30042     30044     30039     30042     30045
     30040     30039     30041     30040     30039     30042     30041     30039     30042
     30042     30045     30046     30042     30045     30047     30042     30045     30048
     30043     30042     30044     30043     30042     30045     30044     30042     30045
     30046     30045     30047     30046     30045     30048     30047     30045     30048
     30049     30050     30051     30049     30050     30052     30049     30050     30065
     30049     30053     30054     30049     30053     30055     30049     30053     30056
     30049     30057     30058     30049     30057     30059     30049     30057     30060
     30049     30061     30062     30049     30061     30063     30049     30061     30064
     30050     30049     30053     30050     30049     30057     30050     30049     30061
     30050     30065     30066     30050     30065     30067     30050     30065     30071
     30051     30050     30052     30051     30050     30065     30052     30050     30065
     30053     30049     30057     30053     30049     30061     30054     30053     30055
     30054     30053     30056     30055     30053     30056     30057     30049     30061
     30058     30057     30059     30058     30057     30060     30059     30057     30060
     30062     30061     30063     30062     30061     30064     30063     30061     30064
     30065     30071     30068     30066     30065     30067     30066     30065     30071
     30067     30065     30071     30068     30072     30073     30069     30068     30070
     30069     30068     30071     30069     30068     30072     30070     30068     30071
     30070     30068     30072     30071     30068     30072     30072     30073     30074
     30072     30073     30075     30072     30073     30076     30073     30076     30077
     30073     30076     30078     30073     30076     30084     30074     30073     30075
     30074     30073     30076     30075     30073     30076     30076     30078     30079
     30076     30084     30085     30076     30084     30086     30076     30084     30087
     30077     30076     30078     30077     30076     30084     30078     30076     30084
     30078     30079     30080     30078     30079     30081     30079     30081     30082
     30079     30081     30083     30079     30081     30093     30080     30079     30081
     30081     30093     30094     30081     30093     30095     30081     30093     30096
     30082     30081     30083     30082     30081     30093     30083     30081     30093
     30084     30087     30088     30085     30084     30086     30085     30084     30087
     30086     30084     30087     30087     30088     30089     30087     30088     30090
     30088     30090     30091     30088     30090     30092     30088     30090     30140
     30089     30088     30090     30090     30140     30141     30090     30140     30142
     30090     30140     30143     30091     30090     30092     30091     30090     30140
     30092     30090     30140     30093     30096     30097     30093     30096     30098
     30093     30096     30099     30094     30093     30095     30094     30093     30096
     30095     30093     30096     30096     30099     30100     30096     30099     30101
     30096     30099     30102     30097     30096     30098     30097     30096     30099
     30098     30096     30099     30099     30102     30103     30099     30102     30104
     30099     30102     30105     30100     30099     30101     30100     30099     30102
     30101     30099     30102     30102     30105     30106     30102     30105     30107
     30102     30105     30108     30103     30102     30104     30103     30102     30105
     30104     30102     30105     30105     30108     30109     30105     30108     30110
     30105     30108     30111     30106     30105     30107     30106     30105     30108
     30107     30105     30108     30108     30111     30112     30108     30111     30113
     30109     30108     30110     30109     30108     30111     30110     30108     30111
     30111     30113     30114     30111     30113     30115     30112     30111     30113
     30113     30115     30116     30113     30115     30117     30113     30115     30118
     30114     30113     30115     30115     30118     30119     30115     30118     30120
     30115     30118     30121     30116     30115     30117     30116     30115     30118
     30117     30115     30118     30118     30121     30122     30118     30121     30123
     30118     30121     30124     30119     30118     30120     30119     30118     30121
     30120     30118     30121     30121     30124     30125     30121     30124     30126
     30121     30124     30127     30122     30121     30123     30122     30121     30124
     30123     30121     30124     30124     30127     30128     30124     30127     30129
     30124     30127     30130     30125     30124     30126     30125     30124     30127
     30126     30124     30127     30127     30130     30131     30127     30130     30132
     30127     30130     30133     30128     30127     30129     30128     30127     30130
     30129     30127     30130     30130     30133     30134     30130     30133     30135
     30130     30133     30136     30131     30130     30132     30131     30130     30133
     30132     30130     30133     30133     30136     30137     30133     30136     30138
     30133     30136     30139     30134     30133     30135     30134     30133     30136
     30135     30133     30136     30137     30136     30138     30137     30136     30139
     30138     30136     30139     30140     30143     30144     30140     30143     30145
     30140     30143     30146     30141     30140     30142     30141     30140     30143
     30142     30140     30143     30143     30146     30147     30143     30146     30148
     30143     30146     30149     30144     30143     30145     30144     30143     30146
     30145     30143     30146     30146     30149     30150     30146     30149     30151
     30146     30149     30152     30147     30146     30148     30147     30146     30149
     30148     30146     30149     30149     30152     30153     30149     30152     30154
     30149     30152     30155     30150     30149     30151     30150     30149     30152
     30151     30149     30152     30152     30155     30156     30152     30155     30157
     30152     30155     30158     30153     30152     30154     30153     30152     30155
     30154     30152     30155     30155     30158     30159     30155     30158     30160
     30155     30158     30161     30156     30155     30157     30156     30155     30158
     30157     30155     30158     30158     30161     30162     30158     30161     30163
     30158     30161     30164     30159     30158     30160     30159     30158     30161
     30160     30158     30161     30161     30164     30165     30161     30164     30166
     30161     30164     30167     30162     30161     30163     30162     30161     30164
     30163     30161     30164     30164     30167     30168     30164     30167     30169
     30164     30167     30170     30165     30164     30166     30165     30164     30167
     30166     30164     30167     30167     30170     30171     30167     30170     30172
     30167     30170     30173     30168     30167     30169     30168     30167     30170
     30169     30167     30170     30170     30173     30174     30170     30173     30175
     30170     30173     30176     30171     30170     30172     30171     30170     30173
     30172     30170     30173     30173     30176     30177     30173     30176     30178
     30173     30176     30179     30174     30173     30175     30174     30173     30176
     30175     30173     30176     30176     30179     30180     30176     30179     30181
     30176     30179     30182     30177     30176     30178     30177     30176     30179
     30178     30176     30179     30180     30179     30181     30180     30179     30182
     30181     30179     30182     30183     30184     30185     30183     30184     30186
     30183     30184     30199     30183     30187     30188     30183     30187     30189
     30183     30187     30190     30183     30191     30192     30183     30191     30193
     30183     30191     30194     30183     30195     30196     30183     30195     30197
     30183     30195     30198     30184     30183     30187     30184     30183     30191
     30184     30183     30195     30184     30199     30200     30184     30199     30201
     30184     30199     30205     30185     30184     30186     30185     30184     30199
     30186     30184     30199     30187     30183     30191     30187     30183     30195
     30188     30187     30189     30188     30187     30190     30189     30187     30190
     30191     30183     30195     30192     30191     30193     30192     30191     30194
     30193     30191     30194     30196     30195     30197     30196     30195     30198
     30197     30195     30198     30199     30205     30202     30200     30199     30201
     30200     30199     30205     30201     30199     30205     30202     30206     30207
     30203     30202     30204     30203     30202     30205     30203     30202     30206
     30204     30202     30205     30204     30202     30206     30205     30202     30206
     30206     30207     30208     30206     30207     30209     30206     30207     30210
     30207     30210     30211     30207     30210     30212     30207     30210     30218
     30208     30207     30209     30208     30207     30210     30209     30207     30210
     30210     30212     30213     30210     30218     30219     30210     30218     30220
     30210     30218     30221     30211     30210     30212     30211     30210     30218
     30212     30210     30218     30212     30213     30214     30212     30213     30215
     30213     30215     30216     30213     30215     30217     30213     30215     30227
     30214     30213     30215     30215     30227     30228     30215     30227     30229
     30215     30227     30230     30216     30215     30217     30216     30215     30227
     30217     30215     30227     30218     30221     30222     30219     30218     30220
     30219     30218     30221     30220     30218     30221     30221     30222     30223
     30221     30222     30224     30222     30224     30225     30222     30224     30226
     30222     30224     30274     30223     30222     30224     30224     30274     30275
     30224     30274     30276     30224     30274     30277     30225     30224     30226
     30225     30224     30274     30226     30224     30274     30227     30230     30231
     30227     30230     30232     30227     30230     30233     30228     30227     30229
     30228     30227     30230     30229     30227     30230     30230     30233     30234
     30230     30233     30235     30230     30233     30236     30231     30230     30232
     30231     30230     30233     30232     30230     30233     30233     30236     30237
     30233     30236     30238     30233     30236     30239     30234     30233     30235
     30234     30233     30236     30235     30233     30236     30236     30239     30240
     30236     30239     30241     30236     30239     30242     30237     30236     30238
     30237     30236     30239     30238     30236     30239     30239     30242     30243
     30239     30242     30244     30239     30242     30245     30240     30239     30241
     30240     30239     30242     30241     30239     30242     30242     30245     30246
     30242     30245     30247     30243     30242     30244     30243     30242     30245
     30244     30242     30245     30245     30247     30248     30245     30247     30249
     30246     30245     30247     30247     30249     30250     30247     30249     30251
     30247     30249     30252     30248     30247     30249     30249     30252     30253
     30249     30252     30254     30249     30252     30255     30250     30249     30251
     30250     30249     30252     30251     30249     30252     30252     30255     30256
     30252     30255     30257     30252     30255     30258     30253     30252     30254
     30253     30252     30255     30254     30252     30255     30255     30258     30259
     30255     30258     30260     30255     30258     30261     30256     30255     30257
     30256     30255     30258     30257     30255     30258     30258     30261     30262
     30258     30261     30263     30258     30261     30264     30259     30258     30260
     30259     30258     30261     30260     30258     30261     30261     30264     30265
     30261     30264     30266     30261     30264     30267     30262     30261     30263
     30262     30261     30264     30263     30261     30264     30264     30267     30268
     30264     30267     30269     30264     30267     30270     30265     30264     30266
     30265     30264     30267     30266     30264     30267     30267     30270     30271
     30267     30270     30272     30267     30270     30273     30268     30267     30269
     30268     30267     30270     30269     30267     30270     30271     30270     30272
     30271     30270     30273     30272     30270     30273     30274     30277     30278
     30274     30277     30279     30274     30277     30280     30275     30274     30276
     30275     30274     30277     30276     30274     30277     30277     30280     30281
     30277     30280     30282     30277     30280     30283     30278     30277     30279
     30278     30277     30280     30279     30277     30280     30280     30283     30284
     30280     30283     30285     30280     30283     30286     30281     30280     30282
     30281     30280     30283     30282     30280     30283     30283     30286     30287
     30283     30286     30288     30283     30286     30289     30284     30283     30285
     30284     30283     30286     30285     30283     30286     30286     30289     30290
     30286     30289     30291     30286     30289     30292     30287     30286     30288
     30287     30286     30289     30288     30286     30289     30289     30292     30293
     30289     30292     30294     30289     30292     30295     30290     30289     30291
     30290     30289     30292     30291     30289     30292     30292     30295     30296
     30292     30295     30297     30292     30295     30298     30293     30292     30294
     30293     30292     30295     30294     30292     30295     30295     30298     30299
     30295     30298     30300     30295     30298     30301     30296     30295     30297
     30296     30295     30298     30297     30295     30298     30298     30301     30302
     30298     30301     30303     30298     30301     30304     30299     30298     30300
     30299     30298     30301     30300     30298     30301     30301     30304     30305
     30301     30304     30306     30301     30304     30307     30302     30301     30303
     30302     30301     30304     30303     30301     30304     30304     30307     30308
     30304     30307     30309     30304     30307     30310     30305     30304     30306
     30305     30304     30307     30306     30304     30307     30307     30310     30311
     30307     30310     30312     30307     30310     30313     30308     30307     30309
     30308     30307     30310     30309     30307     30310     30310     30313     30314
     30310     30313     30315     30310     30313     30316     30311     30310     30312
     30311     30310     30313     30312     30310     30313     30314     30313     30315
     30314     30313     30316     30315     30313     30316     30317     30318     30319
     30317     30318     30320     30317     30318     30333     30317     30321     30322
     30317     30321     30323     30317     30321     30324     30317     30325     30326
     30317     30325     30327     30317     30325     30328     30317     30329     30330
     30317     30329     30331     30317     30329     30332     30318     30317     30321
     30318     30317     30325     30318     30317     30329     30318     30333     30334
     30318     30333     30335     30318     30333     30339     30319     30318     30320
     30319     30318     30333     30320     30318     30333     30321     30317     30325
     30321     30317     30329     30322     30321     30323     30322     30321     30324
     30323     30321     30324     30325     30317     30329     30326     30325     30327
     30326     30325     30328     30327     30325     30328     30330     30329     30331
     30330     30329     30332     30331     30329     30332     30333     30339     30336
     30334     30333     30335     30334     30333     30339     30335     30333     30339
     30336     30340     30341     30337     30336     30338     30337     30336     30339
     30337     30336     30340     30338     30336     30339     30338     30336     30340
     30339     30336     30340     30340     30341     30342     30340     30341     30343
     30340     30341     30344     30341     30344     30345     30341     30344     30346
     30341     30344     30352     30342     30341     30343     30342     30341     30344
     30343     30341     30344     30344     30346     30347     30344     30352     30353
     30344     30352     30354     30344     30352     30355     30345     30344     30346
     30345     30344     30352     30346     30344     30352     30346     30347     30348
     30346     30347     30349     30347     30349     30350     30347     30349     30351
     30347     30349     30361     30348     30347     30349     30349     30361     30362
     30349     30361     30363     30349     30361     30364     30350     30349     30351
     30350     30349     30361     30351     30349     30361     30352     30355     30356
     30353     30352     30354     30353     30352     30355     30354     30352     30355
     30355     30356     30357     30355     30356     30358     30356     30358     30359
     30356     30358     30360     30356     30358     30408     30357     30356     30358
     30358     30408     30409     30358     30408     30410     30358     30408     30411
     30359     30358     30360     30359     30358     30408     30360     30358     30408
     30361     30364     30365     30361     30364     30366     30361     30364     30367
     30362     30361     30363     30362     30361     30364     30363     30361     30364
     30364     30367     30368     30364     30367     30369     30364     30367     30370
     30365     30364     30366     30365     30364     30367     30366     30364     30367
     30367     30370     30371     30367     30370     30372     30367     30370     30373
     30368     30367     30369     30368     30367     30370     30369     30367     30370
     30370     30373     30374     30370     30373     30375     30370     30373     30376
     30371     30370     30372     30371     30370     30373     30372     30370     30373
     30373     30376     30377     30373     30376     30378     30373     30376     30379
     30374     30373     30375     30374     30373     30376     30375     30373     30376
     30376     30379     30380     30376     30379     30381     30377     30376     30378
     30377     30376     30379     30378     30376     30379     30379     30381     30382
     30379     30381     30383     30380     30379     30381     30381     30383     30384
     30381     30383     30385     30381     30383     30386     30382     30381     30383
     30383     30386     30387     30383     30386     30388     30383     30386     30389
     30384     30383     30385     30384     30383     30386     30385     30383     30386
     30386     30389     30390     30386     30389     30391     30386     30389     30392
     30387     30386     30388     30387     30386     30389     30388     30386     30389
     30389     30392     30393     30389     30392     30394     30389     30392     30395
     30390     30389     30391     30390     30389     30392     30391     30389     30392
     30392     30395     30396     30392     30395     30397     30392     30395     30398
     30393     30392     30394     30393     30392     30395     30394     30392     30395
     30395     30398     30399     30395     30398     30400     30395     30398     30401
     30396     30395     30397     30396     30395     30398     30397     30395     30398
     30398     30401     30402     30398     30401     30403     30398     30401     30404
     30399     30398     30400     30399     30398     30401     30400     30398     30401
     30401     30404     30405     30401     30404     30406     30401     30404     30407
     30402     30401     30403     30402     30401     30404     30403     30401     30404
     30405     30404     30406     30405     30404     30407     30406     30404     30407
     30408     30411     30412     30408     30411     30413     30408     30411     30414
     30409     30408     30410     30409     30408     30411     30410     30408     30411
     30411     30414     30415     30411     30414     30416     30411     30414     30417
     30412     30411     30413     30412     30411     30414     30413     30411     30414
     30414     30417     30418     30414     30417     30419     30414     30417     30420
     30415     30414     30416     30415     30414     30417     30416     30414     30417
     30417     30420     30421     30417     30420     30422     30417     30420     30423
     30418     30417     30419     30418     30417     30420     30419     30417     30420
     30420     30423     30424     30420     30423     30425     30420     30423     30426
     30421     30420     30422     30421     30420     30423     30422     30420     30423
     30423     30426     30427     30423     30426     30428     30423     30426     30429
     30424     30423     30425     30424     30423     30426     30425     30423     30426
     30426     30429     30430     30426     30429     30431     30426     30429     30432
     30427     30426     30428     30427     30426     30429     30428     30426     30429
     30429     30432     30433     30429     30432     30434     30429     30432     30435
     30430     30429     30431     30430     30429     30432     30431     30429     30432
     30432     30435     30436     30432     30435     30437     30432     30435     30438
     30433     30432     30434     30433     30432     30435     30434     30432     30435
     30435     30438     30439     30435     30438     30440     30435     30438     30441
     30436     30435     30437     30436     30435     30438     30437     30435     30438
     30438     30441     30442     30438     30441     30443     30438     30441     30444
     30439     30438     30440     30439     30438     30441     30440     30438     30441
     30441     30444     30445     30441     30444     30446     30441     30444     30447
     30442     30441     30443     30442     30441     30444     30443     30441     30444
     30444     30447     30448     30444     30447     30449     30444     30447     30450
     30445     30444     30446     30445     30444     30447     30446     30444     30447
     30448     30447     30449     30448     30447     30450     30449     30447     30450
     30451     30452     30453     30451     30452     30454     30451     30452     30467
     30451     30455     30456     30451     30455     30457     30451     30455     30458
     30451     30459     30460     30451     30459     30461     30451     30459     30462
     30451     30463     30464     30451     30463     30465     30451     30463     30466
     30452     30451     30455     30452     30451     30459     30452     30451     30463
     30452     30467     30468     30452     30467     30469     30452     30467     30473
     30453     30452     30454     30453     30452     30467     30454     30452     30467
     30455     30451     30459     30455     30451     30463     30456     30455     30457
     30456     30455     30458     30457     30455     30458     30459     30451     30463
     30460     30459     30461     30460     30459     30462     30461     30459     30462
     30464     30463     30465     30464     30463     30466     30465     30463     30466
     30467     30473     30470     30468     30467     30469     30468     30467     30473
     30469     30467     30473     30470     30474     30475     30471     30470     30472
     30471     30470     30473     30471     30470     30474     30472     30470     30473
     30472     30470     30474     30473     30470     30474     30474     30475     30476
     30474     30475     30477     30474     30475     30478     30475     30478     30479
     30475     30478     30480     30475     30478     30486     30476     30475     30477
     30476     30475     30478     30477     30475     30478     30478     30480     30481
     30478     30486     30487     30478     30486     30488     30478     30486     30489
     30479     30478     30480     30479     30478     30486     30480     30478     30486
     30480     30481     30482     30480     30481     30483     30481     30483     30484
     30481     30483     30485     30481     30483     30495     30482     30481     30483
     30483     30495     30496     30483     30495     30497     30483     30495     30498
     30484     30483     30485     30484     30483     30495     30485     30483     30495
     30486     30489     30490     30487     30486     30488     30487     30486     30489
     30488     30486     30489     30489     30490     30491     30489     30490     30492
     30490     30492     30493     30490     30492     30494     30490     30492     30542
     30491     30490     30492     30492     30542     30543     30492     30542     30544
     30492     30542     30545     30493     30492     30494     30493     30492     30542
     30494     30492     30542     30495     30498     30499     30495     30498     30500
     30495     30498     30501     30496     30495     30497     30496     30495     30498
     30497     30495     30498     30498     30501     30502     30498     30501     30503
     30498     30501     30504     30499     30498     30500     30499     30498     30501
     30500     30498     30501     30501     30504     30505     30501     30504     30506
     30501     30504     30507     30502     30501     30503     30502     30501     30504
     30503     30501     30504     30504     30507     30508     30504     30507     30509
     30504     30507     30510     30505     30504     30506     30505     30504     30507
     30506     30504     30507     30507     30510     30511     30507     30510     30512
     30507     30510     30513     30508     30507     30509     30508     30507     30510
     30509     30507     30510     30510     30513     30514     30510     30513     30515
     30511     30510     30512     30511     30510     30513     30512     30510     30513
     30513     30515     30516     30513     30515     30517     30514     30513     30515
     30515     30517     30518     30515     30517     30519     30515     30517     30520
     30516     30515     30517     30517     30520     30521     30517     30520     30522
     30517     30520     30523     30518     30517     30519     30518     30517     30520
     30519     30517     30520     30520     30523     30524     30520     30523     30525
     30520     30523     30526     30521     30520     30522     30521     30520     30523
     30522     30520     30523     30523     30526     30527     30523     30526     30528
     30523     30526     30529     30524     30523     30525     30524     30523     30526
     30525     30523     30526     30526     30529     30530     30526     30529     30531
     30526     30529     30532     30527     30526     30528     30527     30526     30529
     30528     30526     30529     30529     30532     30533     30529     30532     30534
     30529     30532     30535     30530     30529     30531     30530     30529     30532
     30531     30529     30532     30532     30535     30536     30532     30535     30537
     30532     30535     30538     30533     30532     30534     30533     30532     30535
     30534     30532     30535     30535     30538     30539     30535     30538     30540
     30535     30538     30541     30536     30535     30537     30536     30535     30538
     30537     30535     30538     30539     30538     30540     30539     30538     30541
     30540     30538     30541     30542     30545     30546     30542     30545     30547
     30542     30545     30548     30543     30542     30544     30543     30542     30545
     30544     30542     30545     30545     30548     30549     30545     30548     30550
     30545     30548     30551     30546     30545     30547     30546     30545     30548
     30547     30545     30548     30548     30551     30552     30548     30551     30553
     30548     30551     30554     30549     30548     30550     30549     30548     30551
     30550     30548     30551     30551     30554     30555     30551     30554     30556
     30551     30554     30557     30552     30551     30553     30552     30551     30554
     30553     30551     30554     30554     30557     30558     30554     30557     30559
     30554     30557     30560     30555     30554     30556     30555     30554     30557
     30556     30554     30557     30557     30560     30561     30557     30560     30562
     30557     30560     30563     30558     30557     30559     30558     30557     30560
     30559     30557     30560     30560     30563     30564     30560     30563     30565
     30560     30563     30566     30561     30560     30562     30561     30560     30563
     30562     30560     30563     30563     30566     30567     30563     30566     30568
     30563     30566     30569     30564     30563     30565     30564     30563     30566
     30565     30563     30566     30566     30569     30570     30566     30569     30571
     30566     30569     30572     30567     30566     30568     30567     30566     30569
     30568     30566     30569     30569     30572     30573     30569     30572     30574
     30569     30572     30575     30570     30569     30571     30570     30569     30572
     30571     30569     30572     30572     30575     30576     30572     30575     30577
     30572     30575     30578     30573     30572     30574     30573     30572     30575
     30574     30572     30575     30575     30578     30579     30575     30578     30580
     30575     30578     30581     30576     30575     30577     30576     30575     30578
     30577     30575     30578     30578     30581     30582     30578     30581     30583
     30578     30581     30584     30579     30578     30580     30579     30578     30581
     30580     30578     30581     30582     30581     30583     30582     30581     30584
     30583     30581     30584     30585     30586     30587     30585     30586     30588
     30585     30586     30601     30585     30589     30590     30585     30589     30591
     30585     30589     30592     30585     30593     30594     30585     30593     30595
     30585     30593     30596     30585     30597     30598     30585     30597     30599
     30585     30597     30600     30586     30585     30589     30586     30585     30593
     30586     30585     30597     30586     30601     30602     30586     30601     30603
     30586     30601     30607     30587     30586     30588     30587     30586     30601
     30588     30586     30601     30589     30585     30593     30589     30585     30597
     30590     30589     30591     30590     30589     30592     30591     30589     30592
     30593     30585     30597     30594     30593     30595     30594     30593     30596
     30595     30593     30596     30598     30597     30599     30598     30597     30600
     30599     30597     30600     30601     30607     30604     30602     30601     30603
     30602     30601     30607     30603     30601     30607     30604     30608     30609
     30605     30604     30606     30605     30604     30607     30605     30604     30608
     30606     30604     30607     30606     30604     30608     30607     30604     30608
     30608     30609     30610     30608     30609     30611     30608     30609     30612
     30609     30612     30613     30609     30612     30614     30609     30612     30620
     30610     30609     30611     30610     30609     30612     30611     30609     30612
     30612     30614     30615     30612     30620     30621     30612     30620     30622
     30612     30620     30623     30613     30612     30614     30613     30612     30620
     30614     30612     30620     30614     30615     30616     30614     30615     30617
     30615     30617     30618     30615     30617     30619     30615     30617     30629
     30616     30615     30617     30617     30629     30630     30617     30629     30631
     30617     30629     30632     30618     30617     30619     30618     30617     30629
     30619     30617     30629     30620     30623     30624     30621     30620     30622
     30621     30620     30623     30622     30620     30623     30623     30624     30625
     30623     30624     30626     30624     30626     30627     30624     30626     30628
     30624     30626     30676     30625     30624     30626     30626     30676     30677
     30626     30676     30678     30626     30676     30679     30627     30626     30628
     30627     30626     30676     30628     30626     30676     30629     30632     30633
     30629     30632     30634     30629     30632     30635     30630     30629     30631
     30630     30629     30632     30631     30629     30632     30632     30635     30636
     30632     30635     30637     30632     30635     30638     30633     30632     30634
     30633     30632     30635     30634     30632     30635     30635     30638     30639
     30635     30638     30640     30635     30638     30641     30636     30635     30637
     30636     30635     30638     30637     30635     30638     30638     30641     30642
     30638     30641     30643     30638     30641     30644     30639     30638     30640
     30639     30638     30641     30640     30638     30641     30641     30644     30645
     30641     30644     30646     30641     30644     30647     30642     30641     30643
     30642     30641     30644     30643     30641     30644     30644     30647     30648
     30644     30647     30649     30645     30644     30646     30645     30644     30647
     30646     30644     30647     30647     30649     30650     30647     30649     30651
     30648     30647     30649     30649     30651     30652     30649     30651     30653
     30649     30651     30654     30650     30649     30651     30651     30654     30655
     30651     30654     30656     30651     30654     30657     30652     30651     30653
     30652     30651     30654     30653     30651     30654     30654     30657     30658
     30654     30657     30659     30654     30657     30660     30655     30654     30656
     30655     30654     30657     30656     30654     30657     30657     30660     30661
     30657     30660     30662     30657     30660     30663     30658     30657     30659
     30658     30657     30660     30659     30657     30660     30660     30663     30664
     30660     30663     30665     30660     30663     30666     30661     30660     30662
     30661     30660     30663     30662     30660     30663     30663     30666     30667
     30663     30666     30668     30663     30666     30669     30664     30663     30665
     30664     30663     30666     30665     30663     30666     30666     30669     30670
     30666     30669     30671     30666     30669     30672     30667     30666     30668
     30667     30666     30669     30668     30666     30669     30669     30672     30673
     30669     30672     30674     30669     30672     30675     30670     30669     30671
     30670     30669     30672     30671     30669     30672     30673     30672     30674
     30673     30672     30675     30674     30672     30675     30676     30679     30680
     30676     30679     30681     30676     30679     30682     30677     30676     30678
     30677     30676     30679     30678     30676     30679     30679     30682     30683
     30679     30682     30684     30679     30682     30685     30680     30679     30681
     30680     30679     30682     30681     30679     30682     30682     30685     30686
     30682     30685     30687     30682     30685     30688     30683     30682     30684
     30683     30682     30685     30684     30682     30685     30685     30688     30689
     30685     30688     30690     30685     30688     30691     30686     30685     30687
     30686     30685     30688     30687     30685     30688     30688     30691     30692
     30688     30691     30693     30688     30691     30694     30689     30688     30690
     30689     30688     30691     30690     30688     30691     30691     30694     30695
     30691     30694     30696     30691     30694     30697     30692     30691     30693
     30692     30691     30694     30693     30691     30694     30694     30697     30698
     30694     30697     30699     30694     30697     30700     30695     30694     30696
     30695     30694     30697     30696     30694     30697     30697     30700     30701
     30697     30700     30702     30697     30700     30703     30698     30697     30699
     30698     30697     30700     30699     30697     30700     30700     30703     30704
     30700     30703     30705     30700     30703     30706     30701     30700     30702
     30701     30700     30703     30702     30700     30703     30703     30706     30707
     30703     30706     30708     30703     30706     30709     30704     30703     30705
     30704     30703     30706     30705     30703     30706     30706     30709     30710
     30706     30709     30711     30706     30709     30712     30707     30706     30708
     30707     30706     30709     30708     30706     30709     30709     30712     30713
     30709     30712     30714     30709     30712     30715     30710     30709     30711
     30710     30709     30712     30711     30709     30712     30712     30715     30716
     30712     30715     30717     30712     30715     30718     30713     30712     30714
     30713     30712     30715     30714     30712     30715     30716     30715     30717
     30716     30715     30718     30717     30715     30718     30719     30720     30721
     30719     30720     30722     30719     30720     30735     30719     30723     30724
     30719     30723     30725     30719     30723     30726     30719     30727     30728
     30719     30727     30729     30719     30727     30730     30719     30731     30732
     30719     30731     30733     30719     30731     30734     30720     30719     30723
     30720     30719     30727     30720     30719     30731     30720     30735     30736
     30720     30735     30737     30720     30735     30741     30721     30720     30722
     30721     30720     30735     30722     30720     30735     30723     30719     30727
     30723     30719     30731     30724     30723     30725     30724     30723     30726
     30725     30723     30726     30727     30719     30731     30728     30727     30729
     30728     30727     30730     30729     30727     30730     30732     30731     30733
     30732     30731     30734     30733     30731     30734     30735     30741     30738
     30736     30735     30737     30736     30735     30741     30737     30735     30741
     30738     30742     30743     30739     30738     30740     30739     30738     30741
     30739     30738     30742     30740     30738     30741     30740     30738     30742
     30741     30738     30742     30742     30743     30744     30742     30743     30745
     30742     30743     30746     30743     30746     30747     30743     30746     30748
     30743     30746     30754     30744     30743     30745     30744     30743     30746
     30745     30743     30746     30746     30748     30749     30746     30754     30755
     30746     30754     30756     30746     30754     30757     30747     30746     30748
     30747     30746     30754     30748     30746     30754     30748     30749     30750
     30748     30749     30751     30749     30751     30752     30749     30751     30753
     30749     30751     30763     30750     30749     30751     30751     30763     30764
     30751     30763     30765     30751     30763     30766     30752     30751     30753
     30752     30751     30763     30753     30751     30763     30754     30757     30758
     30755     30754     30756     30755     30754     30757     30756     30754     30757
     30757     30758     30759     30757     30758     30760     30758     30760     30761
     30758     30760     30762     30758     30760     30810     30759     30758     30760
     30760     30810     30811     30760     30810     30812     30760     30810     30813
     30761     30760     30762     30761     30760     30810     30762     30760     30810
     30763     30766     30767     30763     30766     30768     30763     30766     30769
     30764     30763     30765     30764     30763     30766     30765     30763     30766
     30766     30769     30770     30766     30769     30771     30766     30769     30772
     30767     30766     30768     30767     30766     30769     30768     30766     30769
     30769     30772     30773     30769     30772     30774     30769     30772     30775
     30770     30769     30771     30770     30769     30772     30771     30769     30772
     30772     30775     30776     30772     30775     30777     30772     30775     30778
     30773     30772     30774     30773     30772     30775     30774     30772     30775
     30775     30778     30779     30775     30778     30780     30775     30778     30781
     30776     30775     30777     30776     30775     30778     30777     30775     30778
     30778     30781     30782     30778     30781     30783     30779     30778     30780
     30779     30778     30781     30780     30778     30781     30781     30783     30784
     30781     30783     30785     30782     30781     30783     30783     30785     30786
     30783     30785     30787     30783     30785     30788     30784     30783     30785
     30785     30788     30789     30785     30788     30790     30785     30788     30791
     30786     30785     30787     30786     30785     30788     30787     30785     30788
     30788     30791     30792     30788     30791     30793     30788     30791     30794
     30789     30788     30790     30789     30788     30791     30790     30788     30791
     30791     30794     30795     30791     30794     30796     30791     30794     30797
     30792     30791     30793     30792     30791     30794     30793     30791     30794
     30794     30797     30798     30794     30797     30799     30794     30797     30800
     30795     30794     30796     30795     30794     30797     30796     30794     30797
     30797     30800     30801     30797     30800     30802     30797     30800     30803
     30798     30797     30799     30798     30797     30800     30799     30797     30800
     30800     30803     30804     30800     30803     30805     30800     30803     30806
     30801     30800     30802     30801     30800     30803     30802     30800     30803
     30803     30806     30807     30803     30806     30808     30803     30806     30809
     30804     30803     30805     30804     30803     30806     30805     30803     30806
     30807     30806     30808     30807     30806     30809     30808     30806     30809
     30810     30813     30814     30810     30813     30815     30810     30813     30816
     30811     30810     30812     30811     30810     30813     30812     30810     30813
     30813     30816     30817     30813     30816     30818     30813     30816     30819
     30814     30813     30815     30814     30813     30816     30815     30813     30816
     30816     30819     30820     30816     30819     30821     30816     30819     30822
     30817     30816     30818     30817     30816     30819     30818     30816     30819
     30819     30822     30823     30819     30822     30824     30819     30822     30825
     30820     30819     30821     30820     30819     30822     30821     30819     30822
     30822     30825     30826     30822     30825     30827     30822     30825     30828
     30823     30822     30824     30823     30822     30825     30824     30822     30825
     30825     30828     30829     30825     30828     30830     30825     30828     30831
     30826     30825     30827     30826     30825     30828     30827     30825     30828
     30828     30831     30832     30828     30831     30833     30828     30831     30834
     30829     30828     30830     30829     30828     30831     30830     30828     30831
     30831     30834     30835     30831     30834     30836     30831     30834     30837
     30832     30831     30833     30832     30831     30834     30833     30831     30834
     30834     30837     30838     30834     30837     30839     30834     30837     30840
     30835     30834     30836     30835     30834     30837     30836     30834     30837
     30837     30840     30841     30837     30840     30842     30837     30840     30843
     30838     30837     30839     30838     30837     30840     30839     30837     30840
     30840     30843     30844     30840     30843     30845     30840     30843     30846
     30841     30840     30842     30841     30840     30843     30842     30840     30843
     30843     30846     30847     30843     30846     30848     30843     30846     30849
     30844     30843     30845     30844     30843     30846     30845     30843     30846
     30846     30849     30850     30846     30849     30851     30846     30849     30852
     30847     30846     30848     30847     30846     30849     30848     30846     30849
     30850     30849     30851     30850     30849     30852     30851     30849     30852
     30853     30854     30855     30853     30854     30856     30853     30854     30869
     30853     30857     30858     30853     30857     30859     30853     30857     30860
     30853     30861     30862     30853     30861     30863     30853     30861     30864
     30853     30865     30866     30853     30865     30867     30853     30865     30868
     30854     30853     30857     30854     30853     30861     30854     30853     30865
     30854     30869     30870     30854     30869     30871     30854     30869     30875
     30855     30854     30856     30855     30854     30869     30856     30854     30869
     30857     30853     30861     30857     30853     30865     30858     30857     30859
     30858     30857     30860     30859     30857     30860     30861     30853     30865
     30862     30861     30863     30862     30861     30864     30863     30861     30864
     30866     30865     30867     30866     30865     30868     30867     30865     30868
     30869     30875     30872     30870     30869     30871     30870     30869     30875
     30871     30869     30875     30872     30876     30877     30873     30872     30874
     30873     30872     30875     30873     30872     30876     30874     30872     30875
     30874     30872     30876     30875     30872     30876     30876     30877     30878
     30876     30877     30879     30876     30877     30880     30877     30880     30881
     30877     30880     30882     30877     30880     30888     30878     30877     30879
     30878     30877     30880     30879     30877     30880     30880     30882     30883
     30880     30888     30889     30880     30888     30890     30880     30888     30891
     30881     30880     30882     30881     30880     30888     30882     30880     30888
     30882     30883     30884     30882     30883     30885     30883     30885     30886
     30883     30885     30887     30883     30885     30897     30884     30883     30885
     30885     30897     30898     30885     30897     30899     30885     30897     30900
     30886     30885     30887     30886     30885     30897     30887     30885     30897
     30888     30891     30892     30889     30888     30890     30889     30888     30891
     30890     30888     30891     30891     30892     30893     30891     30892     30894
     30892     30894     30895     30892     30894     30896     30892     30894     30944
     30893     30892     30894     30894     30944     30945     30894     30944     30946
     30894     30944     30947     30895     30894     30896     30895     30894     30944
     30896     30894     30944     30897     30900     30901     30897     30900     30902
     30897     30900     30903     30898     30897     30899     30898     30897     30900
     30899     30897     30900     30900     30903     30904     30900     30903     30905
     30900     30903     30906     30901     30900     30902     30901     30900     30903
     30902     30900     30903     30903     30906     30907     30903     30906     30908
     30903     30906     30909     30904     30903     30905     30904     30903     30906
     30905     30903     30906     30906     30909     30910     30906     30909     30911
     30906     30909     30912     30907     30906     30908     30907     30906     30909
     30908     30906     30909     30909     30912     30913     30909     30912     30914
     30909     30912     30915     30910     30909     30911     30910     30909     30912
     30911     30909     30912     30912     30915     30916     30912     30915     30917
     30913     30912     30914     30913     30912     30915     30914     30912     30915
     30915     30917     30918     30915     30917     30919     30916     30915     30917
     30917     30919     30920     30917     30919     30921     30917     30919     30922
     30918     30917     30919     30919     30922     30923     30919     30922     30924
     30919     30922     30925     30920     30919     30921     30920     30919     30922
     30921     30919     30922     30922     30925     30926     30922     30925     30927
     30922     30925     30928     30923     30922     30924     30923     30922     30925
     30924     30922     30925     30925     30928     30929     30925     30928     30930
     30925     30928     30931     30926     30925     30927     30926     30925     30928
     30927     30925     30928     30928     30931     30932     30928     30931     30933
     30928     30931     30934     30929     30928     30930     30929     30928     30931
     30930     30928     30931     30931     30934     30935     30931     30934     30936
     30931     30934     30937     30932     30931     30933     30932     30931     30934
     30933     30931     30934     30934     30937     30938     30934     30937     30939
     30934     30937     30940     30935     30934     30936     30935     30934     30937
     30936     30934     30937     30937     30940     30941     30937     30940     30942
     30937     30940     30943     30938     30937     30939     30938     30937     30940
     30939     30937     30940     30941     30940     30942     30941     30940     30943
     30942     30940     30943     30944     30947     30948     30944     30947     30949
     30944     30947     30950     30945     30944     30946     30945     30944     30947
     30946     30944     30947     30947     30950     30951     30947     30950     30952
     30947     30950     30953     30948     30947     30949     30948     30947     30950
     30949     30947     30950     30950     30953     30954     30950     30953     30955
     30950     30953     30956     30951     30950     30952     30951     30950     30953
     30952     30950     30953     30953     30956     30957     30953     30956     30958
     30953     30956     30959     30954     30953     30955     30954     30953     30956
     30955     30953     30956     30956     30959     30960     30956     30959     30961
     30956     30959     30962     30957     30956     30958     30957     30956     30959
     30958     30956     30959     30959     30962     30963     30959     30962     30964
     30959     30962     30965     30960     30959     30961     30960     30959     30962
     30961     30959     30962     30962     30965     30966     30962     30965     30967
     30962     30965     30968     30963     30962     30964     30963     30962     30965
     30964     30962     30965     30965     30968     30969     30965     30968     30970
     30965     30968     30971     30966     30965     30967     30966     30965     30968
     30967     30965     30968     30968     30971     30972     30968     30971     30973
     30968     30971     30974     30969     30968     30970     30969     30968     30971
     30970     30968     30971     30971     30974     30975     30971     30974     30976
     30971     30974     30977     30972     30971     30973     30972     30971     30974
     30973     30971     30974     30974     30977     30978     30974     30977     30979
     30974     30977     30980     30975     30974     30976     30975     30974     30977
     30976     30974     30977     30977     30980     30981     30977     30980     30982
     30977     30980     30983     30978     30977     30979     30978     30977     30980
     30979     30977     30980     30980     30983     30984     30980     30983     30985
     30980     30983     30986     30981     30980     30982     30981     30980     30983
     30982     30980     30983     30984     30983     30985     30984     30983     30986
     30985     30983     30986     30987     30991     30992     30987     30991     30993
     30987     30991     30994     30988     30987     30989     30988     30987     30990
     30988     30987     30991     30989     30987     30990     30989     30987     30991
     30990     30987     30991     30991     30994     30995     30991     30994     30996
     30991     30994     31001     30992     30991     30993     30992     30991     30994
     30993     30991     30994     30994     31001     30997     30995     30994     30996
     30995     30994     31001     30996     30994     31001     30997     31000     31002
     30998     30997     30999     30998     30997     31000     30998     30997     31001
     30999     30997     31000     30999     30997     31001     31000     30997     31001
     31000     31002     31003     31000     31002     31004     31000     31002     31005
     31002     31005     31006     31002     31005     31007     31002     31005     31013
     31003     31002     31004     31003     31002     31005     31004     31002     31005
     31005     31007     31008     31005     31013     31014     31005     31013     31015
     31005     31013     31016     31006     31005     31007     31006     31005     31013
     31007     31005     31013     31007     31008     31009     31007     31008     31010
     31008     31010     31011     31008     31010     31012     31008     31010     31022
     31009     31008     31010     31010     31022     31023     31010     31022     31024
     31010     31022     31025     31011     31010     31012     31011     31010     31022
     31012     31010     31022     31013     31016     31017     31014     31013     31015
     31014     31013     31016     31015     31013     31016     31016     31017     31018
     31016     31017     31019     31017     31019     31020     31017     31019     31021
     31017     31019     31069     31018     31017     31019     31019     31069     31070
     31019     31069     31071     31019     31069     31072     31020     31019     31021
     31020     31019     31069     31021     31019     31069     31022     31025     31026
     31022     31025     31027     31022     31025     31028     31023     31022     31024
     31023     31022     31025     31024     31022     31025     31025     31028     31029
     31025     31028     31030     31025     31028     31031     31026     31025     31027
     31026     31025     31028     31027     31025     31028     31028     31031     31032
     31028     31031     31033     31028     31031     31034     31029     31028     31030
     31029     31028     31031     31030     31028     31031     31031     31034     31035
     31031     31034     31036     31031     31034     31037     31032     31031     31033
     31032     31031     31034     31033     31031     31034     31034     31037     31038
     31034     31037     31039     31034     31037     31040     31035     31034     31036
     31035     31034     31037     31036     31034     31037     31037     31040     31041
     31037     31040     31042     31038     31037     31039     31038     31037     31040
     31039     31037     31040     31040     31042     31043     31040     31042     31044
     31041     31040     31042     31042     31044     31045     31042     31044     31046
     31042     31044     31047     31043     31042     31044     31044     31047     31048
     31044     31047     31049     31044     31047     31050     31045     31044     31046
     31045     31044     31047     31046     31044     31047     31047     31050     31051
     31047     31050     31052     31047     31050     31053     31048     31047     31049
     31048     31047     31050     31049     31047     31050     31050     31053     31054
     31050     31053     31055     31050     31053     31056     31051     31050     31052
     31051     31050     31053     31052     31050     31053     31053     31056     31057
     31053     31056     31058     31053     31056     31059     31054     31053     31055
     31054     31053     31056     31055     31053     31056     31056     31059     31060
     31056     31059     31061     31056     31059     31062     31057     31056     31058
     31057     31056     31059     31058     31056     31059     31059     31062     31063
     31059     31062     31064     31059     31062     31065     31060     31059     31061
     31060     31059     31062     31061     31059     31062     31062     31065     31066
     31062     31065     31067     31062     31065     31068     31063     31062     31064
     31063     31062     31065     31064     31062     31065     31066     31065     31067
     31066     31065     31068     31067     31065     31068     31069     31072     31073
     31069     31072     31074     31069     31072     31075     31070     31069     31071
     31070     31069     31072     31071     31069     31072     31072     31075     31076
     31072     31075     31077     31072     31075     31078     31073     31072     31074
     31073     31072     31075     31074     31072     31075     31075     31078     31079
     31075     31078     31080     31075     31078     31081     31076     31075     31077
     31076     31075     31078     31077     31075     31078     31078     31081     31082
     31078     31081     31083     31078     31081     31084     31079     31078     31080
     31079     31078     31081     31080     31078     31081     31081     31084     31085
     31081     31084     31086     31081     31084     31087     31082     31081     31083
     31082     31081     31084     31083     31081     31084     31084     31087     31088
     31084     31087     31089     31084     31087     31090     31085     31084     31086
     31085     31084     31087     31086     31084     31087     31087     31090     31091
     31087     31090     31092     31087     31090     31093     31088     31087     31089
     31088     31087     31090     31089     31087     31090     31090     31093     31094
     31090     31093     31095     31090     31093     31096     31091     31090     31092
     31091     31090     31093     31092     31090     31093     31093     31096     31097
     31093     31096     31098     31093     31096     31099     31094     31093     31095
     31094     31093     31096     31095     31093     31096     31096     31099     31100
     31096     31099     31101     31096     31099     31102     31097     31096     31098
     31097     31096     31099     31098     31096     31099     31099     31102     31103
     31099     31102     31104     31099     31102     31105     31100     31099     31101
     31100     31099     31102     31101     31099     31102     31102     31105     31106
     31102     31105     31107     31102     31105     31108     31103     31102     31104
     31103     31102     31105     31104     31102     31105     31105     31108     31109
     31105     31108     31110     31105     31108     31111     31106     31105     31107
     31106     31105     31108     31107     31105     31108     31109     31108     31110
     31109     31108     31111     31110     31108     31111     31112     31116     31117
     31112     31116     31118     31112     31116     31119     31113     31112     31114
     31113     31112     31115     31113     31112     31116     31114     31112     31115
     31114     31112     31116     31115     31112     31116     31116     31119     31120
     31116     31119     31121     31116     31119     31126     31117     31116     31118
     31117     31116     31119     31118     31116     31119     31119     31126     31122
     31120     31119     31121     31120     31119     31126     31121     31119     31126
     31122     31125     31127     31123     31122     31124     31123     31122     31125
     31123     31122     31126     31124     31122     31125     31124     31122     31126
     31125     31122     31126     31125     31127     31128     31125     31127     31129
     31125     31127     31130     31127     31130     31131     31127     31130     31132
     31127     31130     31138     31128     31127     31129     31128     31127     31130
     31129     31127     31130     31130     31132     31133     31130     31138     31139
     31130     31138     31140     31130     31138     31141     31131     31130     31132
     31131     31130     31138     31132     31130     31138     31132     31133     31134
     31132     31133     31135     31133     31135     31136     31133     31135     31137
     31133     31135     31147     31134     31133     31135     31135     31147     31148
     31135     31147     31149     31135     31147     31150     31136     31135     31137
     31136     31135     31147     31137     31135     31147     31138     31141     31142
     31139     31138     31140     31139     31138     31141     31140     31138     31141
     31141     31142     31143     31141     31142     31144     31142     31144     31145
     31142     31144     31146     31142     31144     31194     31143     31142     31144
     31144     31194     31195     31144     31194     31196     31144     31194     31197
     31145     31144     31146     31145     31144     31194     31146     31144     31194
     31147     31150     31151     31147     31150     31152     31147     31150     31153
     31148     31147     31149     31148     31147     31150     31149     31147     31150
     31150     31153     31154     31150     31153     31155     31150     31153     31156
     31151     31150     31152     31151     31150     31153     31152     31150     31153
     31153     31156     31157     31153     31156     31158     31153     31156     31159
     31154     31153     31155     31154     31153     31156     31155     31153     31156
     31156     31159     31160     31156     31159     31161     31156     31159     31162
     31157     31156     31158     31157     31156     31159     31158     31156     31159
     31159     31162     31163     31159     31162     31164     31159     31162     31165
     31160     31159     31161     31160     31159     31162     31161     31159     31162
     31162     31165     31166     31162     31165     31167     31163     31162     31164
     31163     31162     31165     31164     31162     31165     31165     31167     31168
     31165     31167     31169     31166     31165     31167     31167     31169     31170
     31167     31169     31171     31167     31169     31172     31168     31167     31169
     31169     31172     31173     31169     31172     31174     31169     31172     31175
     31170     31169     31171     31170     31169     31172     31171     31169     31172
     31172     31175     31176     31172     31175     31177     31172     31175     31178
     31173     31172     31174     31173     31172     31175     31174     31172     31175
     31175     31178     31179     31175     31178     31180     31175     31178     31181
     31176     31175     31177     31176     31175     31178     31177     31175     31178
     31178     31181     31182     31178     31181     31183     31178     31181     31184
     31179     31178     31180     31179     31178     31181     31180     31178     31181
     31181     31184     31185     31181     31184     31186     31181     31184     31187
     31182     31181     31183     31182     31181     31184     31183     31181     31184
     31184     31187     31188     31184     31187     31189     31184     31187     31190
     31185     31184     31186     31185     31184     31187     31186     31184     31187
     31187     31190     31191     31187     31190     31192     31187     31190     31193
     31188     31187     31189     31188     31187     31190     31189     31187     31190
     31191     31190     31192     31191     31190     31193     31192     31190     31193
     31194     31197     31198     31194     31197     31199     31194     31197     31200
     31195     31194     31196     31195     31194     31197     31196     31194     31197
     31197     31200     31201     31197     31200     31202     31197     31200     31203
     31198     31197     31199     31198     31197     31200     31199     31197     31200
     31200     31203     31204     31200     31203     31205     31200     31203     31206
     31201     31200     31202     31201     31200     31203     31202     31200     31203
     31203     31206     31207     31203     31206     31208     31203     31206     31209
     31204     31203     31205     31204     31203     31206     31205     31203     31206
     31206     31209     31210     31206     31209     31211     31206     31209     31212
     31207     31206     31208     31207     31206     31209     31208     31206     31209
     31209     31212     31213     31209     31212     31214     31209     31212     31215
     31210     31209     31211     31210     31209     31212     31211     31209     31212
     31212     31215     31216     31212     31215     31217     31212     31215     31218
     31213     31212     31214     31213     31212     31215     31214     31212     31215
     31215     31218     31219     31215     31218     31220     31215     31218     31221
     31216     31215     31217     31216     31215     31218     31217     31215     31218
     31218     31221     31222     31218     31221     31223     31218     31221     31224
     31219     31218     31220     31219     31218     31221     31220     31218     31221
     31221     31224     31225     31221     31224     31226     31221     31224     31227
     31222     31221     31223     31222     31221     31224     31223     31221     31224
     31224     31227     31228     31224     31227     31229     31224     31227     31230
     31225     31224     31226     31225     31224     31227     31226     31224     31227
     31227     31230     31231     31227     31230     31232     31227     31230     31233
     31228     31227     31229     31228     31227     31230     31229     31227     31230
     31230     31233     31234     31230     31233     31235     31230     31233     31236
     31231     31230     31232     31231     31230     31233     31232     31230     31233
     31234     31233     31235     31234     31233     31236     31235     31233     31236
     31237     31241     31242     31237     31241     31243     31237     31241     31244
     31238     31237     31239     31238     31237     31240     31238     31237     31241
     31239     31237     31240     31239     31237     31241     31240     31237     31241
     31241     31244     31245     31241     31244     31246     31241     31244     31251
     31242     31241     31243     31242     31241     31244     31243     31241     31244
     31244     31251     31247     31245     31244     31246     31245     31244     31251
     31246     31244     31251     31247     31250     31252     31248     31247     31249
     31248     31247     31250     31248     31247     31251     31249     31247     31250
     31249     31247     31251     31250     31247     31251     31250     31252     31253
     31250     31252     31254     31250     31252     31255     31252     31255     31256
     31252     31255     31257     31252     31255     31263     31253     31252     31254
     31253     31252     31255     31254     31252     31255     31255     31257     31258
     31255     31263     31264     31255     31263     31265     31255     31263     31266
     31256     31255     31257     31256     31255     31263     31257     31255     31263
     31257     31258     31259     31257     31258     31260     31258     31260     31261
     31258     31260     31262     31258     31260     31272     31259     31258     31260
     31260     31272     31273     31260     31272     31274     31260     31272     31275
     31261     31260     31262     31261     31260     31272     31262     31260     31272
     31263     31266     31267     31264     31263     31265     31264     31263     31266
     31265     31263     31266     31266     31267     31268     31266     31267     31269
     31267     31269     31270     31267     31269     31271     31267     31269     31319
     31268     31267     31269     31269     31319     31320     31269     31319     31321
     31269     31319     31322     31270     31269     31271     31270     31269     31319
     31271     31269     31319     31272     31275     31276     31272     31275     31277
     31272     31275     31278     31273     31272     31274     31273     31272     31275
     31274     31272     31275     31275     31278     31279     31275     31278     31280
     31275     31278     31281     31276     31275     31277     31276     31275     31278
     31277     31275     31278     31278     31281     31282     31278     31281     31283
     31278     31281     31284     31279     31278     31280     31279     31278     31281
     31280     31278     31281     31281     31284     31285     31281     31284     31286
     31281     31284     31287     31282     31281     31283     31282     31281     31284
     31283     31281     31284     31284     31287     31288     31284     31287     31289
     31284     31287     31290     31285     31284     31286     31285     31284     31287
     31286     31284     31287     31287     31290     31291     31287     31290     31292
     31288     31287     31289     31288     31287     31290     31289     31287     31290
     31290     31292     31293     31290     31292     31294     31291     31290     31292
     31292     31294     31295     31292     31294     31296     31292     31294     31297
     31293     31292     31294     31294     31297     31298     31294     31297     31299
     31294     31297     31300     31295     31294     31296     31295     31294     31297
     31296     31294     31297     31297     31300     31301     31297     31300     31302
     31297     31300     31303     31298     31297     31299     31298     31297     31300
     31299     31297     31300     31300     31303     31304     31300     31303     31305
     31300     31303     31306     31301     31300     31302     31301     31300     31303
     31302     31300     31303     31303     31306     31307     31303     31306     31308
     31303     31306     31309     31304     31303     31305     31304     31303     31306
     31305     31303     31306     31306     31309     31310     31306     31309     31311
     31306     31309     31312     31307     31306     31308     31307     31306     31309
     31308     31306     31309     31309     31312     31313     31309     31312     31314
     31309     31312     31315     31310     31309     31311     31310     31309     31312
     31311     31309     31312     31312     31315     31316     31312     31315     31317
     31312     31315     31318     31313     31312     31314     31313     31312     31315
     31314     31312     31315     31316     31315     31317     31316     31315     31318
     31317     31315     31318     31319     31322     31323     31319     31322     31324
     31319     31322     31325     31320     31319     31321     31320     31319     31322
     31321     31319     31322     31322     31325     31326     31322     31325     31327
     31322     31325     31328     31323     31322     31324     31323     31322     31325
     31324     31322     31325     31325     31328     31329     31325     31328     31330
     31325     31328     31331     31326     31325     31327     31326     31325     31328
     31327     31325     31328     31328     31331     31332     31328     31331     31333
     31328     31331     31334     31329     31328     31330     31329     31328     31331
     31330     31328     31331     31331     31334     31335     31331     31334     31336
     31331     31334     31337     31332     31331     31333     31332     31331     31334
     31333     31331     31334     31334     31337     31338     31334     31337     31339
     31334     31337     31340     31335     31334     31336     31335     31334     31337
     31336     31334     31337     31337     31340     31341     31337     31340     31342
     31337     31340     31343     31338     31337     31339     31338     31337     31340
     31339     31337     31340     31340     31343     31344     31340     31343     31345
     31340     31343     31346     31341     31340     31342     31341     31340     31343
     31342     31340     31343     31343     31346     31347     31343     31346     31348
     31343     31346     31349     31344     31343     31345     31344     31343     31346
     31345     31343     31346     31346     31349     31350     31346     31349     31351
     31346     31349     31352     31347     31346     31348     31347     31346     31349
     31348     31346     31349     31349     31352     31353     31349     31352     31354
     31349     31352     31355     31350     31349     31351     31350     31349     31352
     31351     31349     31352     31352     31355     31356     31352     31355     31357
     31352     31355     31358     31353     31352     31354     31353     31352     31355
     31354     31352     31355     31355     31358     31359     31355     31358     31360
     31355     31358     31361     31356     31355     31357     31356     31355     31358
     31357     31355     31358     31359     31358     31360     31359     31358     31361
     31360     31358     31361     31362     31363     31364     31362     31363     31365
     31362     31363     31378     31362     31366     31367     31362     31366     31368
     31362     31366     31369     31362     31370     31371     31362     31370     31372
     31362     31370     31373     31362     31374     31375     31362     31374     31376
     31362     31374     31377     31363     31362     31366     31363     31362     31370
     31363     31362     31374     31363     31378     31379     31363     31378     31380
     31363     31378     31384     31364     31363     31365     31364     31363     31378
     31365     31363     31378     31366     31362     31370     31366     31362     31374
     31367     31366     31368     31367     31366     31369     31368     31366     31369
     31370     31362     31374     31371     31370     31372     31371     31370     31373
     31372     31370     31373     31375     31374     31376     31375     31374     31377
     31376     31374     31377     31378     31384     31381     31379     31378     31380
     31379     31378     31384     31380     31378     31384     31381     31385     31386
     31382     31381     31383     31382     31381     31384     31382     31381     31385
     31383     31381     31384     31383     31381     31385     31384     31381     31385
     31385     31386     31387     31385     31386     31388     31385     31386     31389
     31386     31389     31390     31386     31389     31391     31386     31389     31397
     31387     31386     31388     31387     31386     31389     31388     31386     31389
     31389     31391     31392     31389     31397     31398     31389     31397     31399
     31389     31397     31400     31390     31389     31391     31390     31389     31397
     31391     31389     31397     31391     31392     31393     31391     31392     31394
     31392     31394     31395     31392     31394     31396     31392     31394     31406
     31393     31392     31394     31394     31406     31407     31394     31406     31408
     31394     31406     31409     31395     31394     31396     31395     31394     31406
     31396     31394     31406     31397     31400     31401     31398     31397     31399
     31398     31397     31400     31399     31397     31400     31400     31401     31402
     31400     31401     31403     31401     31403     31404     31401     31403     31405
     31401     31403     31453     31402     31401     31403     31403     31453     31454
     31403     31453     31455     31403     31453     31456     31404     31403     31405
     31404     31403     31453     31405     31403     31453     31406     31409     31410
     31406     31409     31411     31406     31409     31412     31407     31406     31408
     31407     31406     31409     31408     31406     31409     31409     31412     31413
     31409     31412     31414     31409     31412     31415     31410     31409     31411
     31410     31409     31412     31411     31409     31412     31412     31415     31416
     31412     31415     31417     31412     31415     31418     31413     31412     31414
     31413     31412     31415     31414     31412     31415     31415     31418     31419
     31415     31418     31420     31415     31418     31421     31416     31415     31417
     31416     31415     31418     31417     31415     31418     31418     31421     31422
     31418     31421     31423     31418     31421     31424     31419     31418     31420
     31419     31418     31421     31420     31418     31421     31421     31424     31425
     31421     31424     31426     31422     31421     31423     31422     31421     31424
     31423     31421     31424     31424     31426     31427     31424     31426     31428
     31425     31424     31426     31426     31428     31429     31426     31428     31430
     31426     31428     31431     31427     31426     31428     31428     31431     31432
     31428     31431     31433     31428     31431     31434     31429     31428     31430
     31429     31428     31431     31430     31428     31431     31431     31434     31435
     31431     31434     31436     31431     31434     31437     31432     31431     31433
     31432     31431     31434     31433     31431     31434     31434     31437     31438
     31434     31437     31439     31434     31437     31440     31435     31434     31436
     31435     31434     31437     31436     31434     31437     31437     31440     31441
     31437     31440     31442     31437     31440     31443     31438     31437     31439
     31438     31437     31440     31439     31437     31440     31440     31443     31444
     31440     31443     31445     31440     31443     31446     31441     31440     31442
     31441     31440     31443     31442     31440     31443     31443     31446     31447
     31443     31446     31448     31443     31446     31449     31444     31443     31445
     31444     31443     31446     31445     31443     31446     31446     31449     31450
     31446     31449     31451     31446     31449     31452     31447     31446     31448
     31447     31446     31449     31448     31446     31449     31450     31449     31451
     31450     31449     31452     31451     31449     31452     31453     31456     31457
     31453     31456     31458     31453     31456     31459     31454     31453     31455
     31454     31453     31456     31455     31453     31456     31456     31459     31460
     31456     31459     31461     31456     31459     31462     31457     31456     31458
     31457     31456     31459     31458     31456     31459     31459     31462     31463
     31459     31462     31464     31459     31462     31465     31460     31459     31461
     31460     31459     31462     31461     31459     31462     31462     31465     31466
     31462     31465     31467     31462     31465     31468     31463     31462     31464
     31463     31462     31465     31464     31462     31465     31465     31468     31469
     31465     31468     31470     31465     31468     31471     31466     31465     31467
     31466     31465     31468     31467     31465     31468     31468     31471     31472
     31468     31471     31473     31468     31471     31474     31469     31468     31470
     31469     31468     31471     31470     31468     31471     31471     31474     31475
     31471     31474     31476     31471     31474     31477     31472     31471     31473
     31472     31471     31474     31473     31471     31474     31474     31477     31478
     31474     31477     31479     31474     31477     31480     31475     31474     31476
     31475     31474     31477     31476     31474     31477     31477     31480     31481
     31477     31480     31482     31477     31480     31483     31478     31477     31479
     31478     31477     31480     31479     31477     31480     31480     31483     31484
     31480     31483     31485     31480     31483     31486     31481     31480     31482
     31481     31480     31483     31482     31480     31483     31483     31486     31487
     31483     31486     31488     31483     31486     31489     31484     31483     31485
     31484     31483     31486     31485     31483     31486     31486     31489     31490
     31486     31489     31491     31486     31489     31492     31487     31486     31488
     31487     31486     31489     31488     31486     31489     31489     31492     31493
     31489     31492     31494     31489     31492     31495     31490     31489     31491
     31490     31489     31492     31491     31489     31492     31493     31492     31494
     31493     31492     31495     31494     31492     31495     31496     31497     31498
     31496     31497     31499     31496     31497     31512     31496     31500     31501
     31496     31500     31502     31496     31500     31503     31496     31504     31505
     31496     31504     31506     31496     31504     31507     31496     31508     31509
     31496     31508     31510     31496     31508     31511     31497     31496     31500
     31497     31496     31504     31497     31496     31508     31497     31512     31513
     31497     31512     31514     31497     31512     31518     31498     31497     31499
     31498     31497     31512     31499     31497     31512     31500     31496     31504
     31500     31496     31508     31501     31500     31502     31501     31500     31503
     31502     31500     31503     31504     31496     31508     31505     31504     31506
     31505     31504     31507     31506     31504     31507     31509     31508     31510
     31509     31508     31511     31510     31508     31511     31512     31518     31515
     31513     31512     31514     31513     31512     31518     31514     31512     31518
     31515     31519     31520     31516     31515     31517     31516     31515     31518
     31516     31515     31519     31517     31515     31518     31517     31515     31519
     31518     31515     31519     31519     31520     31521     31519     31520     31522
     31519     31520     31523     31520     31523     31524     31520     31523     31525
     31520     31523     31531     31521     31520     31522     31521     31520     31523
     31522     31520     31523     31523     31525     31526     31523     31531     31532
     31523     31531     31533     31523     31531     31534     31524     31523     31525
     31524     31523     31531     31525     31523     31531     31525     31526     31527
     31525     31526     31528     31526     31528     31529     31526     31528     31530
     31526     31528     31540     31527     31526     31528     31528     31540     31541
     31528     31540     31542     31528     31540     31543     31529     31528     31530
     31529     31528     31540     31530     31528     31540     31531     31534     31535
     31532     31531     31533     31532     31531     31534     31533     31531     31534
     31534     31535     31536     31534     31535     31537     31535     31537     31538
     31535     31537     31539     31535     31537     31587     31536     31535     31537
     31537     31587     31588     31537     31587     31589     31537     31587     31590
     31538     31537     31539     31538     31537     31587     31539     31537     31587
     31540     31543     31544     31540     31543     31545     31540     31543     31546
     31541     31540     31542     31541     31540     31543     31542     31540     31543
     31543     31546     31547     31543     31546     31548     31543     31546     31549
     31544     31543     31545     31544     31543     31546     31545     31543     31546
     31546     31549     31550     31546     31549     31551     31546     31549     31552
     31547     31546     31548     31547     31546     31549     31548     31546     31549
     31549     31552     31553     31549     31552     31554     31549     31552     31555
     31550     31549     31551     31550     31549     31552     31551     31549     31552
     31552     31555     31556     31552     31555     31557     31552     31555     31558
     31553     31552     31554     31553     31552     31555     31554     31552     31555
     31555     31558     31559     31555     31558     31560     31556     31555     31557
     31556     31555     31558     31557     31555     31558     31558     31560     31561
     31558     31560     31562     31559     31558     31560     31560     31562     31563
     31560     31562     31564     31560     31562     31565     31561     31560     31562
     31562     31565     31566     31562     31565     31567     31562     31565     31568
     31563     31562     31564     31563     31562     31565     31564     31562     31565
     31565     31568     31569     31565     31568     31570     31565     31568     31571
     31566     31565     31567     31566     31565     31568     31567     31565     31568
     31568     31571     31572     31568     31571     31573     31568     31571     31574
     31569     31568     31570     31569     31568     31571     31570     31568     31571
     31571     31574     31575     31571     31574     31576     31571     31574     31577
     31572     31571     31573     31572     31571     31574     31573     31571     31574
     31574     31577     31578     31574     31577     31579     31574     31577     31580
     31575     31574     31576     31575     31574     31577     31576     31574     31577
     31577     31580     31581     31577     31580     31582     31577     31580     31583
     31578     31577     31579     31578     31577     31580     31579     31577     31580
     31580     31583     31584     31580     31583     31585     31580     31583     31586
     31581     31580     31582     31581     31580     31583     31582     31580     31583
     31584     31583     31585     31584     31583     31586     31585     31583     31586
     31587     31590     31591     31587     31590     31592     31587     31590     31593
     31588     31587     31589     31588     31587     31590     31589     31587     31590
     31590     31593     31594     31590     31593     31595     31590     31593     31596
     31591     31590     31592     31591     31590     31593     31592     31590     31593
     31593     31596     31597     31593     31596     31598     31593     31596     31599
     31594     31593     31595     31594     31593     31596     31595     31593     31596
     31596     31599     31600     31596     31599     31601     31596     31599     31602
     31597     31596     31598     31597     31596     31599     31598     31596     31599
     31599     31602     31603     31599     31602     31604     31599     31602     31605
     31600     31599     31601     31600     31599     31602     31601     31599     31602
     31602     31605     31606     31602     31605     31607     31602     31605     31608
     31603     31602     31604     31603     31602     31605     31604     31602     31605
     31605     31608     31609     31605     31608     31610     31605     31608     31611
     31606     31605     31607     31606     31605     31608     31607     31605     31608
     31608     31611     31612     31608     31611     31613     31608     31611     31614
     31609     31608     31610     31609     31608     31611     31610     31608     31611
     31611     31614     31615     31611     31614     31616     31611     31614     31617
     31612     31611     31613     31612     31611     31614     31613     31611     31614
     31614     31617     31618     31614     31617     31619     31614     31617     31620
     31615     31614     31616     31615     31614     31617     31616     31614     31617
     31617     31620     31621     31617     31620     31622     31617     31620     31623
     31618     31617     31619     31618     31617     31620     31619     31617     31620
     31620     31623     31624     31620     31623     31625     31620     31623     31626
     31621     31620     31622     31621     31620     31623     31622     31620     31623
     31623     31626     31627     31623     31626     31628     31623     31626     31629
     31624     31623     31625     31624     31623     31626     31625     31623     31626
     31627     31626     31628     31627     31626     31629     31628     31626     31629
     31630     31634     31635     31630     31634     31636     31630     31634     31637
     31631     31630     31632     31631     31630     31633     31631     31630     31634
     31632     31630     31633     31632     31630     31634     31633     31630     31634
     31634     31637     31638     31634     31637     31639     31634     31637     31644
     31635     31634     31636     31635     31634     31637     31636     31634     31637
     31637     31644     31640     31638     31637     31639     31638     31637     31644
     31639     31637     31644     31640     31643     31645     31641     31640     31642
     31641     31640     31643     31641     31640     31644     31642     31640     31643
     31642     31640     31644     31643     31640     31644     31643     31645     31646
     31643     31645     31647     31643     31645     31648     31645     31648     31649
     31645     31648     31650     31645     31648     31656     31646     31645     31647
     31646     31645     31648     31647     31645     31648     31648     31650     31651
     31648     31656     31657     31648     31656     31658     31648     31656     31659
     31649     31648     31650     31649     31648     31656     31650     31648     31656
     31650     31651     31652     31650     31651     31653     31651     31653     31654
     31651     31653     31655     31651     31653     31665     31652     31651     31653
     31653     31665     31666     31653     31665     31667     31653     31665     31668
     31654     31653     31655     31654     31653     31665     31655     31653     31665
     31656     31659     31660     31657     31656     31658     31657     31656     31659
     31658     31656     31659     31659     31660     31661     31659     31660     31662
     31660     31662     31663     31660     31662     31664     31660     31662     31712
     31661     31660     31662     31662     31712     31713     31662     31712     31714
     31662     31712     31715     31663     31662     31664     31663     31662     31712
     31664     31662     31712     31665     31668     31669     31665     31668     31670
     31665     31668     31671     31666     31665     31667     31666     31665     31668
     31667     31665     31668     31668     31671     31672     31668     31671     31673
     31668     31671     31674     31669     31668     31670     31669     31668     31671
     31670     31668     31671     31671     31674     31675     31671     31674     31676
     31671     31674     31677     31672     31671     31673     31672     31671     31674
     31673     31671     31674     31674     31677     31678     31674     31677     31679
     31674     31677     31680     31675     31674     31676     31675     31674     31677
     31676     31674     31677     31677     31680     31681     31677     31680     31682
     31677     31680     31683     31678     31677     31679     31678     31677     31680
     31679     31677     31680     31680     31683     31684     31680     31683     31685
     31681     31680     31682     31681     31680     31683     31682     31680     31683
     31683     31685     31686     31683     31685     31687     31684     31683     31685
     31685     31687     31688     31685     31687     31689     31685     31687     31690
     31686     31685     31687     31687     31690     31691     31687     31690     31692
     31687     31690     31693     31688     31687     31689     31688     31687     31690
     31689     31687     31690     31690     31693     31694     31690     31693     31695
     31690     31693     31696     31691     31690     31692     31691     31690     31693
     31692     31690     31693     31693     31696     31697     31693     31696     31698
     31693     31696     31699     31694     31693     31695     31694     31693     31696
     31695     31693     31696     31696     31699     31700     31696     31699     31701
     31696     31699     31702     31697     31696     31698     31697     31696     31699
     31698     31696     31699     31699     31702     31703     31699     31702     31704
     31699     31702     31705     31700     31699     31701     31700     31699     31702
     31701     31699     31702     31702     31705     31706     31702     31705     31707
     31702     31705     31708     31703     31702     31704     31703     31702     31705
     31704     31702     31705     31705     31708     31709     31705     31708     31710
     31705     31708     31711     31706     31705     31707     31706     31705     31708
     31707     31705     31708     31709     31708     31710     31709     31708     31711
     31710     31708     31711     31712     31715     31716     31712     31715     31717
     31712     31715     31718     31713     31712     31714     31713     31712     31715
     31714     31712     31715     31715     31718     31719     31715     31718     31720
     31715     31718     31721     31716     31715     31717     31716     31715     31718
     31717     31715     31718     31718     31721     31722     31718     31721     31723
     31718     31721     31724     31719     31718     31720     31719     31718     31721
     31720     31718     31721     31721     31724     31725     31721     31724     31726
     31721     31724     31727     31722     31721     31723     31722     31721     31724
     31723     31721     31724     31724     31727     31728     31724     31727     31729
     31724     31727     31730     31725     31724     31726     31725     31724     31727
     31726     31724     31727     31727     31730     31731     31727     31730     31732
     31727     31730     31733     31728     31727     31729     31728     31727     31730
     31729     31727     31730     31730     31733     31734     31730     31733     31735
     31730     31733     31736     31731     31730     31732     31731     31730     31733
     31732     31730     31733     31733     31736     31737     31733     31736     31738
     31733     31736     31739     31734     31733     31735     31734     31733     31736
     31735     31733     31736     31736     31739     31740     31736     31739     31741
     31736     31739     31742     31737     31736     31738     31737     31736     31739
     31738     31736     31739     31739     31742     31743     31739     31742     31744
     31739     31742     31745     31740     31739     31741     31740     31739     31742
     31741     31739     31742     31742     31745     31746     31742     31745     31747
     31742     31745     31748     31743     31742     31744     31743     31742     31745
     31744     31742     31745     31745     31748     31749     31745     31748     31750
     31745     31748     31751     31746     31745     31747     31746     31745     31748
     31747     31745     31748     31748     31751     31752     31748     31751     31753
     31748     31751     31754     31749     31748     31750     31749     31748     31751
     31750     31748     31751     31752     31751     31753     31752     31751     31754
     31753     31751     31754     31755     31756     31757     31755     31756     31758
     31755     31756     31771     31755     31759     31760     31755     31759     31761
     31755     31759     31762     31755     31763     31764     31755     31763     31765
     31755     31763     31766     31755     31767     31768     31755     31767     31769
     31755     31767     31770     31756     31755     31759     31756     31755     31763
     31756     31755     31767     31756     31771     31772     31756     31771     31773
     31756     31771     31777     31757     31756     31758     31757     31756     31771
     31758     31756     31771     31759     31755     31763     31759     31755     31767
     31760     31759     31761     31760     31759     31762     31761     31759     31762
     31763     31755     31767     31764     31763     31765     31764     31763     31766
     31765     31763     31766     31768     31767     31769     31768     31767     31770
     31769     31767     31770     31771     31777     31774     31772     31771     31773
     31772     31771     31777     31773     31771     31777     31774     31778     31779
     31775     31774     31776     31775     31774     31777     31775     31774     31778
     31776     31774     31777     31776     31774     31778     31777     31774     31778
     31778     31779     31780     31778     31779     31781     31778     31779     31782
     31779     31782     31783     31779     31782     31784     31779     31782     31790
     31780     31779     31781     31780     31779     31782     31781     31779     31782
     31782     31784     31785     31782     31790     31791     31782     31790     31792
     31782     31790     31793     31783     31782     31784     31783     31782     31790
     31784     31782     31790     31784     31785     31786     31784     31785     31787
     31785     31787     31788     31785     31787     31789     31785     31787     31799
     31786     31785     31787     31787     31799     31800     31787     31799     31801
     31787     31799     31802     31788     31787     31789     31788     31787     31799
     31789     31787     31799     31790     31793     31794     31791     31790     31792
     31791     31790     31793     31792     31790     31793     31793     31794     31795
     31793     31794     31796     31794     31796     31797     31794     31796     31798
     31794     31796     31846     31795     31794     31796     31796     31846     31847
     31796     31846     31848     31796     31846     31849     31797     31796     31798
     31797     31796     31846     31798     31796     31846     31799     31802     31803
     31799     31802     31804     31799     31802     31805     31800     31799     31801
     31800     31799     31802     31801     31799     31802     31802     31805     31806
     31802     31805     31807     31802     31805     31808     31803     31802     31804
     31803     31802     31805     31804     31802     31805     31805     31808     31809
     31805     31808     31810     31805     31808     31811     31806     31805     31807
     31806     31805     31808     31807     31805     31808     31808     31811     31812
     31808     31811     31813     31808     31811     31814     31809     31808     31810
     31809     31808     31811     31810     31808     31811     31811     31814     31815
     31811     31814     31816     31811     31814     31817     31812     31811     31813
     31812     31811     31814     31813     31811     31814     31814     31817     31818
     31814     31817     31819     31815     31814     31816     31815     31814     31817
     31816     31814     31817     31817     31819     31820     31817     31819     31821
     31818     31817     31819     31819     31821     31822     31819     31821     31823
     31819     31821     31824     31820     31819     31821     31821     31824     31825
     31821     31824     31826     31821     31824     31827     31822     31821     31823
     31822     31821     31824     31823     31821     31824     31824     31827     31828
     31824     31827     31829     31824     31827     31830     31825     31824     31826
     31825     31824     31827     31826     31824     31827     31827     31830     31831
     31827     31830     31832     31827     31830     31833     31828     31827     31829
     31828     31827     31830     31829     31827     31830     31830     31833     31834
     31830     31833     31835     31830     31833     31836     31831     31830     31832
     31831     31830     31833     31832     31830     31833     31833     31836     31837
     31833     31836     31838     31833     31836     31839     31834     31833     31835
     31834     31833     31836     31835     31833     31836     31836     31839     31840
     31836     31839     31841     31836     31839     31842     31837     31836     31838
     31837     31836     31839     31838     31836     31839     31839     31842     31843
     31839     31842     31844     31839     31842     31845     31840     31839     31841
     31840     31839     31842     31841     31839     31842     31843     31842     31844
     31843     31842     31845     31844     31842     31845     31846     31849     31850
     31846     31849     31851     31846     31849     31852     31847     31846     31848
     31847     31846     31849     31848     31846     31849     31849     31852     31853
     31849     31852     31854     31849     31852     31855     31850     31849     31851
     31850     31849     31852     31851     31849     31852     31852     31855     31856
     31852     31855     31857     31852     31855     31858     31853     31852     31854
     31853     31852     31855     31854     31852     31855     31855     31858     31859
     31855     31858     31860     31855     31858     31861     31856     31855     31857
     31856     31855     31858     31857     31855     31858     31858     31861     31862
     31858     31861     31863     31858     31861     31864     31859     31858     31860
     31859     31858     31861     31860     31858     31861     31861     31864     31865
     31861     31864     31866     31861     31864     31867     31862     31861     31863
     31862     31861     31864     31863     31861     31864     31864     31867     31868
     31864     31867     31869     31864     31867     31870     31865     31864     31866
     31865     31864     31867     31866     31864     31867     31867     31870     31871
     31867     31870     31872     31867     31870     31873     31868     31867     31869
     31868     31867     31870     31869     31867     31870     31870     31873     31874
     31870     31873     31875     31870     31873     31876     31871     31870     31872
     31871     31870     31873     31872     31870     31873     31873     31876     31877
     31873     31876     31878     31873     31876     31879     31874     31873     31875
     31874     31873     31876     31875     31873     31876     31876     31879     31880
     31876     31879     31881     31876     31879     31882     31877     31876     31878
     31877     31876     31879     31878     31876     31879     31879     31882     31883
     31879     31882     31884     31879     31882     31885     31880     31879     31881
     31880     31879     31882     31881     31879     31882     31882     31885     31886
     31882     31885     31887     31882     31885     31888     31883     31882     31884
     31883     31882     31885     31884     31882     31885     31886     31885     31887
     31886     31885     31888     31887     31885     31888     31889     31890     31891
     31889     31890     31892     31889     31890     31905     31889     31893     31894
     31889     31893     31895     31889     31893     31896     31889     31897     31898
     31889     31897     31899     31889     31897     31900     31889     31901     31902
     31889     31901     31903     31889     31901     31904     31890     31889     31893
     31890     31889     31897     31890     31889     31901     31890     31905     31906
     31890     31905     31907     31890     31905     31911     31891     31890     31892
     31891     31890     31905     31892     31890     31905     31893     31889     31897
     31893     31889     31901     31894     31893     31895     31894     31893     31896
     31895     31893     31896     31897     31889     31901     31898     31897     31899
     31898     31897     31900     31899     31897     31900     31902     31901     31903
     31902     31901     31904     31903     31901     31904     31905     31911     31908
     31906     31905     31907     31906     31905     31911     31907     31905     31911
     31908     31912     31913     31909     31908     31910     31909     31908     31911
     31909     31908     31912     31910     31908     31911     31910     31908     31912
     31911     31908     31912     31912     31913     31914     31912     31913     31915
     31912     31913     31916     31913     31916     31917     31913     31916     31918
     31913     31916     31924     31914     31913     31915     31914     31913     31916
     31915     31913     31916     31916     31918     31919     31916     31924     31925
     31916     31924     31926     31916     31924     31927     31917     31916     31918
     31917     31916     31924     31918     31916     31924     31918     31919     31920
     31918     31919     31921     31919     31921     31922     31919     31921     31923
     31919     31921     31933     31920     31919     31921     31921     31933     31934
     31921     31933     31935     31921     31933     31936     31922     31921     31923
     31922     31921     31933     31923     31921     31933     31924     31927     31928
     31925     31924     31926     31925     31924     31927     31926     31924     31927
     31927     31928     31929     31927     31928     31930     31928     31930     31931
     31928     31930     31932     31928     31930     31980     31929     31928     31930
     31930     31980     31981     31930     31980     31982     31930     31980     31983
     31931     31930     31932     31931     31930     31980     31932     31930     31980
     31933     31936     31937     31933     31936     31938     31933     31936     31939
     31934     31933     31935     31934     31933     31936     31935     31933     31936
     31936     31939     31940     31936     31939     31941     31936     31939     31942
     31937     31936     31938     31937     31936     31939     31938     31936     31939
     31939     31942     31943     31939     31942     31944     31939     31942     31945
     31940     31939     31941     31940     31939     31942     31941     31939     31942
     31942     31945     31946     31942     31945     31947     31942     31945     31948
     31943     31942     31944     31943     31942     31945     31944     31942     31945
     31945     31948     31949     31945     31948     31950     31945     31948     31951
     31946     31945     31947     31946     31945     31948     31947     31945     31948
     31948     31951     31952     31948     31951     31953     31949     31948     31950
     31949     31948     31951     31950     31948     31951     31951     31953     31954
     31951     31953     31955     31952     31951     31953     31953     31955     31956
     31953     31955     31957     31953     31955     31958     31954     31953     31955
     31955     31958     31959     31955     31958     31960     31955     31958     31961
     31956     31955     31957     31956     31955     31958     31957     31955     31958
     31958     31961     31962     31958     31961     31963     31958     31961     31964
     31959     31958     31960     31959     31958     31961     31960     31958     31961
     31961     31964     31965     31961     31964     31966     31961     31964     31967
     31962     31961     31963     31962     31961     31964     31963     31961     31964
     31964     31967     31968     31964     31967     31969     31964     31967     31970
     31965     31964     31966     31965     31964     31967     31966     31964     31967
     31967     31970     31971     31967     31970     31972     31967     31970     31973
     31968     31967     31969     31968     31967     31970     31969     31967     31970
     31970     31973     31974     31970     31973     31975     31970     31973     31976
     31971     31970     31972     31971     31970     31973     31972     31970     31973
     31973     31976     31977     31973     31976     31978     31973     31976     31979
     31974     31973     31975     31974     31973     31976     31975     31973     31976
     31977     31976     31978     31977     31976     31979     31978     31976     31979
     31980     31983     31984     31980     31983     31985     31980     31983     31986
     31981     31980     31982     31981     31980     31983     31982     31980     31983
     31983     31986     31987     31983     31986     31988     31983     31986     31989
     31984     31983     31985     31984     31983     31986     31985     31983     31986
     31986     31989     31990     31986     31989     31991     31986     31989     31992
     31987     31986     31988     31987     31986     31989     31988     31986     31989
     31989     31992     31993     31989     31992     31994     31989     31992     31995
     31990     31989     31991     31990     31989     31992     31991     31989     31992
     31992     31995     31996     31992     31995     31997     31992     31995     31998
     31993     31992     31994     31993     31992     31995     31994     31992     31995
     31995     31998     31999     31995     31998     32000     31995     31998     32001
     31996     31995     31997     31996     31995     31998     31997     31995     31998
     31998     32001     32002     31998     32001     32003     31998     32001     32004
     31999     31998     32000     31999     31998     32001     32000     31998     32001
     32001     32004     32005     32001     32004     32006     32001     32004     32007
     32002     32001     32003     32002     32001     32004     32003     32001     32004
     32004     32007     32008     32004     32007     32009     32004     32007     32010
     32005     32004     32006     32005     32004     32007     32006     32004     32007
     32007     32010     32011     32007     32010     32012     32007     32010     32013
     32008     32007     32009     32008     32007     32010     32009     32007     32010
     32010     32013     32014     32010     32013     32015     32010     32013     32016
     32011     32010     32012     32011     32010     32013     32012     32010     32013
     32013     32016     32017     32013     32016     32018     32013     32016     32019
     32014     32013     32015     32014     32013     32016     32015     32013     32016
     32016     32019     32020     32016     32019     32021     32016     32019     32022
     32017     32016     32018     32017     32016     32019     32018     32016     32019
     32020     32019     32021     32020     32019     32022     32021     32019     32022
     32023     32027     32028     32023     32027     32029     32023     32027     32030
     32024     32023     32025     32024     32023     32026     32024     32023     32027
     32025     32023     32026     32025     32023     32027     32026     32023     32027
     32027     32030     32031     32027     32030     32032     32027     32030     32037
     32028     32027     32029     32028     32027     32030     32029     32027     32030
     32030     32037     32033     32031     32030     32032     32031     32030     32037
     32032     32030     32037     32033     32036     32038     32034     32033     32035
     32034     32033     32036     32034     32033     32037     32035     32033     32036
     32035     32033     32037     32036     32033     32037     32036     32038     32039
     32036     32038     32040     32036     32038     32041     32038     32041     32042
     32038     32041     32043     32038     32041     32049     32039     32038     32040
     32039     32038     32041     32040     32038     32041     32041     32043     32044
     32041     32049     32050     32041     32049     32051     32041     32049     32052
     32042     32041     32043     32042     32041     32049     32043     32041     32049
     32043     32044     32045     32043     32044     32046     32044     32046     32047
     32044     32046     32048     32044     32046     32058     32045     32044     32046
     32046     32058     32059     32046     32058     32060     32046     32058     32061
     32047     32046     32048     32047     32046     32058     32048     32046     32058
     32049     32052     32053     32050     32049     32051     32050     32049     32052
     32051     32049     32052     32052     32053     32054     32052     32053     32055
     32053     32055     32056     32053     32055     32057     32053     32055     32105
     32054     32053     32055     32055     32105     32106     32055     32105     32107
     32055     32105     32108     32056     32055     32057     32056     32055     32105
     32057     32055     32105     32058     32061     32062     32058     32061     32063
     32058     32061     32064     32059     32058     32060     32059     32058     32061
     32060     32058     32061     32061     32064     32065     32061     32064     32066
     32061     32064     32067     32062     32061     32063     32062     32061     32064
     32063     32061     32064     32064     32067     32068     32064     32067     32069
     32064     32067     32070     32065     32064     32066     32065     32064     32067
     32066     32064     32067     32067     32070     32071     32067     32070     32072
     32067     32070     32073     32068     32067     32069     32068     32067     32070
     32069     32067     32070     32070     32073     32074     32070     32073     32075
     32070     32073     32076     32071     32070     32072     32071     32070     32073
     32072     32070     32073     32073     32076     32077     32073     32076     32078
     32074     32073     32075     32074     32073     32076     32075     32073     32076
     32076     32078     32079     32076     32078     32080     32077     32076     32078
     32078     32080     32081     32078     32080     32082     32078     32080     32083
     32079     32078     32080     32080     32083     32084     32080     32083     32085
     32080     32083     32086     32081     32080     32082     32081     32080     32083
     32082     32080     32083     32083     32086     32087     32083     32086     32088
     32083     32086     32089     32084     32083     32085     32084     32083     32086
     32085     32083     32086     32086     32089     32090     32086     32089     32091
     32086     32089     32092     32087     32086     32088     32087     32086     32089
     32088     32086     32089     32089     32092     32093     32089     32092     32094
     32089     32092     32095     32090     32089     32091     32090     32089     32092
     32091     32089     32092     32092     32095     32096     32092     32095     32097
     32092     32095     32098     32093     32092     32094     32093     32092     32095
     32094     32092     32095     32095     32098     32099     32095     32098     32100
     32095     32098     32101     32096     32095     32097     32096     32095     32098
     32097     32095     32098     32098     32101     32102     32098     32101     32103
     32098     32101     32104     32099     32098     32100     32099     32098     32101
     32100     32098     32101     32102     32101     32103     32102     32101     32104
     32103     32101     32104     32105     32108     32109     32105     32108     32110
     32105     32108     32111     32106     32105     32107     32106     32105     32108
     32107     32105     32108     32108     32111     32112     32108     32111     32113
     32108     32111     32114     32109     32108     32110     32109     32108     32111
     32110     32108     32111     32111     32114     32115     32111     32114     32116
     32111     32114     32117     32112     32111     32113     32112     32111     32114
     32113     32111     32114     32114     32117     32118     32114     32117     32119
     32114     32117     32120     32115     32114     32116     32115     32114     32117
     32116     32114     32117     32117     32120     32121     32117     32120     32122
     32117     32120     32123     32118     32117     32119     32118     32117     32120
     32119     32117     32120     32120     32123     32124     32120     32123     32125
     32120     32123     32126     32121     32120     32122     32121     32120     32123
     32122     32120     32123     32123     32126     32127     32123     32126     32128
     32123     32126     32129     32124     32123     32125     32124     32123     32126
     32125     32123     32126     32126     32129     32130     32126     32129     32131
     32126     32129     32132     32127     32126     32128     32127     32126     32129
     32128     32126     32129     32129     32132     32133     32129     32132     32134
     32129     32132     32135     32130     32129     32131     32130     32129     32132
     32131     32129     32132     32132     32135     32136     32132     32135     32137
     32132     32135     32138     32133     32132     32134     32133     32132     32135
     32134     32132     32135     32135     32138     32139     32135     32138     32140
     32135     32138     32141     32136     32135     32137     32136     32135     32138
     32137     32135     32138     32138     32141     32142     32138     32141     32143
     32138     32141     32144     32139     32138     32140     32139     32138     32141
     32140     32138     32141     32141     32144     32145     32141     32144     32146
     32141     32144     32147     32142     32141     32143     32142     32141     32144
     32143     32141     32144     32145     32144     32146     32145     32144     32147
     32146     32144     32147     32148     32149     32150     32148     32149     32151
     32148     32149     32164     32148     32152     32153     32148     32152     32154
     32148     32152     32155     32148     32156     32157     32148     32156     32158
     32148     32156     32159     32148     32160     32161     32148     32160     32162
     32148     32160     32163     32149     32148     32152     32149     32148     32156
     32149     32148     32160     32149     32164     32165     32149     32164     32166
     32149     32164     32170     32150     32149     32151     32150     32149     32164
     32151     32149     32164     32152     32148     32156     32152     32148     32160
     32153     32152     32154     32153     32152     32155     32154     32152     32155
     32156     32148     32160     32157     32156     32158     32157     32156     32159
     32158     32156     32159     32161     32160     32162     32161     32160     32163
     32162     32160     32163     32164     32170     32167     32165     32164     32166
     32165     32164     32170     32166     32164     32170     32167     32171     32172
     32168     32167     32169     32168     32167     32170     32168     32167     32171
     32169     32167     32170     32169     32167     32171     32170     32167     32171
     32171     32172     32173     32171     32172     32174     32171     32172     32175
     32172     32175     32176     32172     32175     32177     32172     32175     32183
     32173     32172     32174     32173     32172     32175     32174     32172     32175
     32175     32177     32178     32175     32183     32184     32175     32183     32185
     32175     32183     32186     32176     32175     32177     32176     32175     32183
     32177     32175     32183     32177     32178     32179     32177     32178     32180
     32178     32180     32181     32178     32180     32182     32178     32180     32192
     32179     32178     32180     32180     32192     32193     32180     32192     32194
     32180     32192     32195     32181     32180     32182     32181     32180     32192
     32182     32180     32192     32183     32186     32187     32184     32183     32185
     32184     32183     32186     32185     32183     32186     32186     32187     32188
     32186     32187     32189     32187     32189     32190     32187     32189     32191
     32187     32189     32239     32188     32187     32189     32189     32239     32240
     32189     32239     32241     32189     32239     32242     32190     32189     32191
     32190     32189     32239     32191     32189     32239     32192     32195     32196
     32192     32195     32197     32192     32195     32198     32193     32192     32194
     32193     32192     32195     32194     32192     32195     32195     32198     32199
     32195     32198     32200     32195     32198     32201     32196     32195     32197
     32196     32195     32198     32197     32195     32198     32198     32201     32202
     32198     32201     32203     32198     32201     32204     32199     32198     32200
     32199     32198     32201     32200     32198     32201     32201     32204     32205
     32201     32204     32206     32201     32204     32207     32202     32201     32203
     32202     32201     32204     32203     32201     32204     32204     32207     32208
     32204     32207     32209     32204     32207     32210     32205     32204     32206
     32205     32204     32207     32206     32204     32207     32207     32210     32211
     32207     32210     32212     32208     32207     32209     32208     32207     32210
     32209     32207     32210     32210     32212     32213     32210     32212     32214
     32211     32210     32212     32212     32214     32215     32212     32214     32216
     32212     32214     32217     32213     32212     32214     32214     32217     32218
     32214     32217     32219     32214     32217     32220     32215     32214     32216
     32215     32214     32217     32216     32214     32217     32217     32220     32221
     32217     32220     32222     32217     32220     32223     32218     32217     32219
     32218     32217     32220     32219     32217     32220     32220     32223     32224
     32220     32223     32225     32220     32223     32226     32221     32220     32222
     32221     32220     32223     32222     32220     32223     32223     32226     32227
     32223     32226     32228     32223     32226     32229     32224     32223     32225
     32224     32223     32226     32225     32223     32226     32226     32229     32230
     32226     32229     32231     32226     32229     32232     32227     32226     32228
     32227     32226     32229     32228     32226     32229     32229     32232     32233
     32229     32232     32234     32229     32232     32235     32230     32229     32231
     32230     32229     32232     32231     32229     32232     32232     32235     32236
     32232     32235     32237     32232     32235     32238     32233     32232     32234
     32233     32232     32235     32234     32232     32235     32236     32235     32237
     32236     32235     32238     32237     32235     32238     32239     32242     32243
     32239     32242     32244     32239     32242     32245     32240     32239     32241
     32240     32239     32242     32241     32239     32242     32242     32245     32246
     32242     32245     32247     32242     32245     32248     32243     32242     32244
     32243     32242     32245     32244     32242     32245     32245     32248     32249
     32245     32248     32250     32245     32248     32251     32246     32245     32247
     32246     32245     32248     32247     32245     32248     32248     32251     32252
     32248     32251     32253     32248     32251     32254     32249     32248     32250
     32249     32248     32251     32250     32248     32251     32251     32254     32255
     32251     32254     32256     32251     32254     32257     32252     32251     32253
     32252     32251     32254     32253     32251     32254     32254     32257     32258
     32254     32257     32259     32254     32257     32260     32255     32254     32256
     32255     32254     32257     32256     32254     32257     32257     32260     32261
     32257     32260     32262     32257     32260     32263     32258     32257     32259
     32258     32257     32260     32259     32257     32260     32260     32263     32264
     32260     32263     32265     32260     32263     32266     32261     32260     32262
     32261     32260     32263     32262     32260     32263     32263     32266     32267
     32263     32266     32268     32263     32266     32269     32264     32263     32265
     32264     32263     32266     32265     32263     32266     32266     32269     32270
     32266     32269     32271     32266     32269     32272     32267     32266     32268
     32267     32266     32269     32268     32266     32269     32269     32272     32273
     32269     32272     32274     32269     32272     32275     32270     32269     32271
     32270     32269     32272     32271     32269     32272     32272     32275     32276
     32272     32275     32277     32272     32275     32278     32273     32272     32274
     32273     32272     32275     32274     32272     32275     32275     32278     32279
     32275     32278     32280     32275     32278     32281     32276     32275     32277
     32276     32275     32278     32277     32275     32278     32279     32278     32280
     32279     32278     32281     32280     32278     32281     32282     32286     32287
     32282     32286     32288     32282     32286     32289     32283     32282     32284
     32283     32282     32285     32283     32282     32286     32284     32282     32285
     32284     32282     32286     32285     32282     32286     32286     32289     32290
     32286     32289     32291     32286     32289     32296     32287     32286     32288
     32287     32286     32289     32288     32286     32289     32289     32296     32292
     32290     32289     32291     32290     32289     32296     32291     32289     32296
     32292     32295     32297     32293     32292     32294     32293     32292     32295
     32293     32292     32296     32294     32292     32295     32294     32292     32296
     32295     32292     32296     32295     32297     32298     32295     32297     32299
     32295     32297     32300     32297     32300     32301     32297     32300     32302
     32297     32300     32308     32298     32297     32299     32298     32297     32300
     32299     32297     32300     32300     32302     32303     32300     32308     32309
     32300     32308     32310     32300     32308     32311     32301     32300     32302
     32301     32300     32308     32302     32300     32308     32302     32303     32304
     32302     32303     32305     32303     32305     32306     32303     32305     32307
     32303     32305     32317     32304     32303     32305     32305     32317     32318
     32305     32317     32319     32305     32317     32320     32306     32305     32307
     32306     32305     32317     32307     32305     32317     32308     32311     32312
     32309     32308     32310     32309     32308     32311     32310     32308     32311
     32311     32312     32313     32311     32312     32314     32312     32314     32315
     32312     32314     32316     32312     32314     32364     32313     32312     32314
     32314     32364     32365     32314     32364     32366     32314     32364     32367
     32315     32314     32316     32315     32314     32364     32316     32314     32364
     32317     32320     32321     32317     32320     32322     32317     32320     32323
     32318     32317     32319     32318     32317     32320     32319     32317     32320
     32320     32323     32324     32320     32323     32325     32320     32323     32326
     32321     32320     32322     32321     32320     32323     32322     32320     32323
     32323     32326     32327     32323     32326     32328     32323     32326     32329
     32324     32323     32325     32324     32323     32326     32325     32323     32326
     32326     32329     32330     32326     32329     32331     32326     32329     32332
     32327     32326     32328     32327     32326     32329     32328     32326     32329
     32329     32332     32333     32329     32332     32334     32329     32332     32335
     32330     32329     32331     32330     32329     32332     32331     32329     32332
     32332     32335     32336     32332     32335     32337     32333     32332     32334
     32333     32332     32335     32334     32332     32335     32335     32337     32338
     32335     32337     32339     32336     32335     32337     32337     32339     32340
     32337     32339     32341     32337     32339     32342     32338     32337     32339
     32339     32342     32343     32339     32342     32344     32339     32342     32345
     32340     32339     32341     32340     32339     32342     32341     32339     32342
     32342     32345     32346     32342     32345     32347     32342     32345     32348
     32343     32342     32344     32343     32342     32345     32344     32342     32345
     32345     32348     32349     32345     32348     32350     32345     32348     32351
     32346     32345     32347     32346     32345     32348     32347     32345     32348
     32348     32351     32352     32348     32351     32353     32348     32351     32354
     32349     32348     32350     32349     32348     32351     32350     32348     32351
     32351     32354     32355     32351     32354     32356     32351     32354     32357
     32352     32351     32353     32352     32351     32354     32353     32351     32354
     32354     32357     32358     32354     32357     32359     32354     32357     32360
     32355     32354     32356     32355     32354     32357     32356     32354     32357
     32357     32360     32361     32357     32360     32362     32357     32360     32363
     32358     32357     32359     32358     32357     32360     32359     32357     32360
     32361     32360     32362     32361     32360     32363     32362     32360     32363
     32364     32367     32368     32364     32367     32369     32364     32367     32370
     32365     32364     32366     32365     32364     32367     32366     32364     32367
     32367     32370     32371     32367     32370     32372     32367     32370     32373
     32368     32367     32369     32368     32367     32370     32369     32367     32370
     32370     32373     32374     32370     32373     32375     32370     32373     32376
     32371     32370     32372     32371     32370     32373     32372     32370     32373
     32373     32376     32377     32373     32376     32378     32373     32376     32379
     32374     32373     32375     32374     32373     32376     32375     32373     32376
     32376     32379     32380     32376     32379     32381     32376     32379     32382
     32377     32376     32378     32377     32376     32379     32378     32376     32379
     32379     32382     32383     32379     32382     32384     32379     32382     32385
     32380     32379     32381     32380     32379     32382     32381     32379     32382
     32382     32385     32386     32382     32385     32387     32382     32385     32388
     32383     32382     32384     32383     32382     32385     32384     32382     32385
     32385     32388     32389     32385     32388     32390     32385     32388     32391
     32386     32385     32387     32386     32385     32388     32387     32385     32388
     32388     32391     32392     32388     32391     32393     32388     32391     32394
     32389     32388     32390     32389     32388     32391     32390     32388     32391
     32391     32394     32395     32391     32394     32396     32391     32394     32397
     32392     32391     32393     32392     32391     32394     32393     32391     32394
     32394     32397     32398     32394     32397     32399     32394     32397     32400
     32395     32394     32396     32395     32394     32397     32396     32394     32397
     32397     32400     32401     32397     32400     32402     32397     32400     32403
     32398     32397     32399     32398     32397     32400     32399     32397     32400
     32400     32403     32404     32400     32403     32405     32400     32403     32406
     32401     32400     32402     32401     32400     32403     32402     32400     32403
     32404     32403     32405     32404     32403     32406     32405     32403     32406
     32407     32411     32412     32407     32411     32413     32407     32411     32414
     32408     32407     32409     32408     32407     32410     32408     32407     32411
     32409     32407     32410     32409     32407     32411     32410     32407     32411
     32411     32414     32415     32411     32414     32416     32411     32414     32421
     32412     32411     32413     32412     32411     32414     32413     32411     32414
     32414     32421     32417     32415     32414     32416     32415     32414     32421
     32416     32414     32421     32417     32420     32422     32418     32417     32419
     32418     32417     32420     32418     32417     32421     32419     32417     32420
     32419     32417     32421     32420     32417     32421     32420     32422     32423
     32420     32422     32424     32420     32422     32425     32422     32425     32426
     32422     32425     32427     32422     32425     32433     32423     32422     32424
     32423     32422     32425     32424     32422     32425     32425     32427     32428
     32425     32433     32434     32425     32433     32435     32425     32433     32436
     32426     32425     32427     32426     32425     32433     32427     32425     32433
     32427     32428     32429     32427     32428     32430     32428     32430     32431
     32428     32430     32432     32428     32430     32442     32429     32428     32430
     32430     32442     32443     32430     32442     32444     32430     32442     32445
     32431     32430     32432     32431     32430     32442     32432     32430     32442
     32433     32436     32437     32434     32433     32435     32434     32433     32436
     32435     32433     32436     32436     32437     32438     32436     32437     32439
     32437     32439     32440     32437     32439     32441     32437     32439     32489
     32438     32437     32439     32439     32489     32490     32439     32489     32491
     32439     32489     32492     32440     32439     32441     32440     32439     32489
     32441     32439     32489     32442     32445     32446     32442     32445     32447
     32442     32445     32448     32443     32442     32444     32443     32442     32445
     32444     32442     32445     32445     32448     32449     32445     32448     32450
     32445     32448     32451     32446     32445     32447     32446     32445     32448
     32447     32445     32448     32448     32451     32452     32448     32451     32453
     32448     32451     32454     32449     32448     32450     32449     32448     32451
     32450     32448     32451     32451     32454     32455     32451     32454     32456
     32451     32454     32457     32452     32451     32453     32452     32451     32454
     32453     32451     32454     32454     32457     32458     32454     32457     32459
     32454     32457     32460     32455     32454     32456     32455     32454     32457
     32456     32454     32457     32457     32460     32461     32457     32460     32462
     32458     32457     32459     32458     32457     32460     32459     32457     32460
     32460     32462     32463     32460     32462     32464     32461     32460     32462
     32462     32464     32465     32462     32464     32466     32462     32464     32467
     32463     32462     32464     32464     32467     32468     32464     32467     32469
     32464     32467     32470     32465     32464     32466     32465     32464     32467
     32466     32464     32467     32467     32470     32471     32467     32470     32472
     32467     32470     32473     32468     32467     32469     32468     32467     32470
     32469     32467     32470     32470     32473     32474     32470     32473     32475
     32470     32473     32476     32471     32470     32472     32471     32470     32473
     32472     32470     32473     32473     32476     32477     32473     32476     32478
     32473     32476     32479     32474     32473     32475     32474     32473     32476
     32475     32473     32476     32476     32479     32480     32476     32479     32481
     32476     32479     32482     32477     32476     32478     32477     32476     32479
     32478     32476     32479     32479     32482     32483     32479     32482     32484
     32479     32482     32485     32480     32479     32481     32480     32479     32482
     32481     32479     32482     32482     32485     32486     32482     32485     32487
     32482     32485     32488     32483     32482     32484     32483     32482     32485
     32484     32482     32485     32486     32485     32487     32486     32485     32488
     32487     32485     32488     32489     32492     32493     32489     32492     32494
     32489     32492     32495     32490     32489     32491     32490     32489     32492
     32491     32489     32492     32492     32495     32496     32492     32495     32497
     32492     32495     32498     32493     32492     32494     32493     32492     32495
     32494     32492     32495     32495     32498     32499     32495     32498     32500
     32495     32498     32501     32496     32495     32497     32496     32495     32498
     32497     32495     32498     32498     32501     32502     32498     32501     32503
     32498     32501     32504     32499     32498     32500     32499     32498     32501
     32500     32498     32501     32501     32504     32505     32501     32504     32506
     32501     32504     32507     32502     32501     32503     32502     32501     32504
     32503     32501     32504     32504     32507     32508     32504     32507     32509
     32504     32507     32510     32505     32504     32506     32505     32504     32507
     32506     32504     32507     32507     32510     32511     32507     32510     32512
     32507     32510     32513     32508     32507     32509     32508     32507     32510
     32509     32507     32510     32510     32513     32514     32510     32513     32515
     32510     32513     32516     32511     32510     32512     32511     32510     32513
     32512     32510     32513     32513     32516     32517     32513     32516     32518
     32513     32516     32519     32514     32513     32515     32514     32513     32516
     32515     32513     32516     32516     32519     32520     32516     32519     32521
     32516     32519     32522     32517     32516     32518     32517     32516     32519
     32518     32516     32519     32519     32522     32523     32519     32522     32524
     32519     32522     32525     32520     32519     32521     32520     32519     32522
     32521     32519     32522     32522     32525     32526     32522     32525     32527
     32522     32525     32528     32523     32522     32524     32523     32522     32525
     32524     32522     32525     32525     32528     32529     32525     32528     32530
     32525     32528     32531     32526     32525     32527     32526     32525     32528
     32527     32525     32528     32529     32528     32530     32529     32528     32531
     32530     32528     32531     32532     32536     32537     32532     32536     32538
     32532     32536     32539     32533     32532     32534     32533     32532     32535
     32533     32532     32536     32534     32532     32535     32534     32532     32536
     32535     32532     32536     32536     32539     32540     32536     32539     32541
     32536     32539     32546     32537     32536     32538     32537     32536     32539
     32538     32536     32539     32539     32546     32542     32540     32539     32541
     32540     32539     32546     32541     32539     32546     32542     32545     32547
     32543     32542     32544     32543     32542     32545     32543     32542     32546
     32544     32542     32545     32544     32542     32546     32545     32542     32546
     32545     32547     32548     32545     32547     32549     32545     32547     32550
     32547     32550     32551     32547     32550     32552     32547     32550     32558
     32548     32547     32549     32548     32547     32550     32549     32547     32550
     32550     32552     32553     32550     32558     32559     32550     32558     32560
     32550     32558     32561     32551     32550     32552     32551     32550     32558
     32552     32550     32558     32552     32553     32554     32552     32553     32555
     32553     32555     32556     32553     32555     32557     32553     32555     32567
     32554     32553     32555     32555     32567     32568     32555     32567     32569
     32555     32567     32570     32556     32555     32557     32556     32555     32567
     32557     32555     32567     32558     32561     32562     32559     32558     32560
     32559     32558     32561     32560     32558     32561     32561     32562     32563
     32561     32562     32564     32562     32564     32565     32562     32564     32566
     32562     32564     32614     32563     32562     32564     32564     32614     32615
     32564     32614     32616     32564     32614     32617     32565     32564     32566
     32565     32564     32614     32566     32564     32614     32567     32570     32571
     32567     32570     32572     32567     32570     32573     32568     32567     32569
     32568     32567     32570     32569     32567     32570     32570     32573     32574
     32570     32573     32575     32570     32573     32576     32571     32570     32572
     32571     32570     32573     32572     32570     32573     32573     32576     32577
     32573     32576     32578     32573     32576     32579     32574     32573     32575
     32574     32573     32576     32575     32573     32576     32576     32579     32580
     32576     32579     32581     32576     32579     32582     32577     32576     32578
     32577     32576     32579     32578     32576     32579     32579     32582     32583
     32579     32582     32584     32579     32582     32585     32580     32579     32581
     32580     32579     32582     32581     32579     32582     32582     32585     32586
     32582     32585     32587     32583     32582     32584     32583     32582     32585
     32584     32582     32585     32585     32587     32588     32585     32587     32589
     32586     32585     32587     32587     32589     32590     32587     32589     32591
     32587     32589     32592     32588     32587     32589     32589     32592     32593
     32589     32592     32594     32589     32592     32595     32590     32589     32591
     32590     32589     32592     32591     32589     32592     32592     32595     32596
     32592     32595     32597     32592     32595     32598     32593     32592     32594
     32593     32592     32595     32594     32592     32595     32595     32598     32599
     32595     32598     32600     32595     32598     32601     32596     32595     32597
     32596     32595     32598     32597     32595     32598     32598     32601     32602
     32598     32601     32603     32598     32601     32604     32599     32598     32600
     32599     32598     32601     32600     32598     32601     32601     32604     32605
     32601     32604     32606     32601     32604     32607     32602     32601     32603
     32602     32601     32604     32603     32601     32604     32604     32607     32608
     32604     32607     32609     32604     32607     32610     32605     32604     32606
     32605     32604     32607     32606     32604     32607     32607     32610     32611
     32607     32610     32612     32607     32610     32613     32608     32607     32609
     32608     32607     32610     32609     32607     32610     32611     32610     32612
     32611     32610     32613     32612     32610     32613     32614     32617     32618
     32614     32617     32619     32614     32617     32620     32615     32614     32616
     32615     32614     32617     32616     32614     32617     32617     32620     32621
     32617     32620     32622     32617     32620     32623     32618     32617     32619
     32618     32617     32620     32619     32617     32620     32620     32623     32624
     32620     32623     32625     32620     32623     32626     32621     32620     32622
     32621     32620     32623     32622     32620     32623     32623     32626     32627
     32623     32626     32628     32623     32626     32629     32624     32623     32625
     32624     32623     32626     32625     32623     32626     32626     32629     32630
     32626     32629     32631     32626     32629     32632     32627     32626     32628
     32627     32626     32629     32628     32626     32629     32629     32632     32633
     32629     32632     32634     32629     32632     32635     32630     32629     32631
     32630     32629     32632     32631     32629     32632     32632     32635     32636
     32632     32635     32637     32632     32635     32638     32633     32632     32634
     32633     32632     32635     32634     32632     32635     32635     32638     32639
     32635     32638     32640     32635     32638     32641     32636     32635     32637
     32636     32635     32638     32637     32635     32638     32638     32641     32642
     32638     32641     32643     32638     32641     32644     32639     32638     32640
     32639     32638     32641     32640     32638     32641     32641     32644     32645
     32641     32644     32646     32641     32644     32647     32642     32641     32643
     32642     32641     32644     32643     32641     32644     32644     32647     32648
     32644     32647     32649     32644     32647     32650     32645     32644     32646
     32645     32644     32647     32646     32644     32647     32647     32650     32651
     32647     32650     32652     32647     32650     32653     32648     32647     32649
     32648     32647     32650     32649     32647     32650     32650     32653     32654
     32650     32653     32655     32650     32653     32656     32651     32650     32652
     32651     32650     32653     32652     32650     32653     32654     32653     32655
     32654     32653     32656     32655     32653     32656     32657     32658     32659
     32657     32658     32660     32657     32658     32673     32657     32661     32662
     32657     32661     32663     32657     32661     32664     32657     32665     32666
     32657     32665     32667     32657     32665     32668     32657     32669     32670
     32657     32669     32671     32657     32669     32672     32658     32657     32661
     32658     32657     32665     32658     32657     32669     32658     32673     32674
     32658     32673     32675     32658     32673     32679     32659     32658     32660
     32659     32658     32673     32660     32658     32673     32661     32657     32665
     32661     32657     32669     32662     32661     32663     32662     32661     32664
     32663     32661     32664     32665     32657     32669     32666     32665     32667
     32666     32665     32668     32667     32665     32668     32670     32669     32671
     32670     32669     32672     32671     32669     32672     32673     32679     32676
     32674     32673     32675     32674     32673     32679     32675     32673     32679
     32676     32680     32681     32677     32676     32678     32677     32676     32679
     32677     32676     32680     32678     32676     32679     32678     32676     32680
     32679     32676     32680     32680     32681     32682     32680     32681     32683
     32680     32681     32684     32681     32684     32685     32681     32684     32686
     32681     32684     32692     32682     32681     32683     32682     32681     32684
     32683     32681     32684     32684     32686     32687     32684     32692     32693
     32684     32692     32694     32684     32692     32695     32685     32684     32686
     32685     32684     32692     32686     32684     32692     32686     32687     32688
     32686     32687     32689     32687     32689     32690     32687     32689     32691
     32687     32689     32701     32688     32687     32689     32689     32701     32702
     32689     32701     32703     32689     32701     32704     32690     32689     32691
     32690     32689     32701     32691     32689     32701     32692     32695     32696
     32693     32692     32694     32693     32692     32695     32694     32692     32695
     32695     32696     32697     32695     32696     32698     32696     32698     32699
     32696     32698     32700     32696     32698     32748     32697     32696     32698
     32698     32748     32749     32698     32748     32750     32698     32748     32751
     32699     32698     32700     32699     32698     32748     32700     32698     32748
     32701     32704     32705     32701     32704     32706     32701     32704     32707
     32702     32701     32703     32702     32701     32704     32703     32701     32704
     32704     32707     32708     32704     32707     32709     32704     32707     32710
     32705     32704     32706     32705     32704     32707     32706     32704     32707
     32707     32710     32711     32707     32710     32712     32707     32710     32713
     32708     32707     32709     32708     32707     32710     32709     32707     32710
     32710     32713     32714     32710     32713     32715     32710     32713     32716
     32711     32710     32712     32711     32710     32713     32712     32710     32713
     32713     32716     32717     32713     32716     32718     32713     32716     32719
     32714     32713     32715     32714     32713     32716     32715     32713     32716
     32716     32719     32720     32716     32719     32721     32717     32716     32718
     32717     32716     32719     32718     32716     32719     32719     32721     32722
     32719     32721     32723     32720     32719     32721     32721     32723     32724
     32721     32723     32725     32721     32723     32726     32722     32721     32723
     32723     32726     32727     32723     32726     32728     32723     32726     32729
     32724     32723     32725     32724     32723     32726     32725     32723     32726
     32726     32729     32730     32726     32729     32731     32726     32729     32732
     32727     32726     32728     32727     32726     32729     32728     32726     32729
     32729     32732     32733     32729     32732     32734     32729     32732     32735
     32730     32729     32731     32730     32729     32732     32731     32729     32732
     32732     32735     32736     32732     32735     32737     32732     32735     32738
     32733     32732     32734     32733     32732     32735     32734     32732     32735
     32735     32738     32739     32735     32738     32740     32735     32738     32741
     32736     32735     32737     32736     32735     32738     32737     32735     32738
     32738     32741     32742     32738     32741     32743     32738     32741     32744
     32739     32738     32740     32739     32738     32741     32740     32738     32741
     32741     32744     32745     32741     32744     32746     32741     32744     32747
     32742     32741     32743     32742     32741     32744     32743     32741     32744
     32745     32744     32746     32745     32744     32747     32746     32744     32747
     32748     32751     32752     32748     32751     32753     32748     32751     32754
     32749     32748     32750     32749     32748     32751     32750     32748     32751
     32751     32754     32755     32751     32754     32756     32751     32754     32757
     32752     32751     32753     32752     32751     32754     32753     32751     32754
     32754     32757     32758     32754     32757     32759     32754     32757     32760
     32755     32754     32756     32755     32754     32757     32756     32754     32757
     32757     32760     32761     32757     32760     32762     32757     32760     32763
     32758     32757     32759     32758     32757     32760     32759     32757     32760
     32760     32763     32764     32760     32763     32765     32760     32763     32766
     32761     32760     32762     32761     32760     32763     32762     32760     32763
     32763     32766     32767     32763     32766     32768     32763     32766     32769
     32764     32763     32765     32764     32763     32766     32765     32763     32766
     32766     32769     32770     32766     32769     32771     32766     32769     32772
     32767     32766     32768     32767     32766     32769     32768     32766     32769
     32769     32772     32773     32769     32772     32774     32769     32772     32775
     32770     32769     32771     32770     32769     32772     32771     32769     32772
     32772     32775     32776     32772     32775     32777     32772     32775     32778
     32773     32772     32774     32773     32772     32775     32774     32772     32775
     32775     32778     32779     32775     32778     32780     32775     32778     32781
     32776     32775     32777     32776     32775     32778     32777     32775     32778
     32778     32781     32782     32778     32781     32783     32778     32781     32784
     32779     32778     32780     32779     32778     32781     32780     32778     32781
     32781     32784     32785     32781     32784     32786     32781     32784     32787
     32782     32781     32783     32782     32781     32784     32783     32781     32784
     32784     32787     32788     32784     32787     32789     32784     32787     32790
     32785     32784     32786     32785     32784     32787     32786     32784     32787
     32788     32787     32789     32788     32787     32790     32789     32787     32790
     32791     32795     32796     32791     32795     32797     32791     32795     32798
     32792     32791     32793     32792     32791     32794     32792     32791     32795
     32793     32791     32794     32793     32791     32795     32794     32791     32795
     32795     32798     32799     32795     32798     32800     32795     32798     32805
     32796     32795     32797     32796     32795     32798     32797     32795     32798
     32798     32805     32801     32799     32798     32800     32799     32798     32805
     32800     32798     32805     32801     32804     32806     32802     32801     32803
     32802     32801     32804     32802     32801     32805     32803     32801     32804
     32803     32801     32805     32804     32801     32805     32804     32806     32807
     32804     32806     32808     32804     32806     32809     32806     32809     32810
     32806     32809     32811     32806     32809     32817     32807     32806     32808
     32807     32806     32809     32808     32806     32809     32809     32811     32812
     32809     32817     32818     32809     32817     32819     32809     32817     32820
     32810     32809     32811     32810     32809     32817     32811     32809     32817
     32811     32812     32813     32811     32812     32814     32812     32814     32815
     32812     32814     32816     32812     32814     32826     32813     32812     32814
     32814     32826     32827     32814     32826     32828     32814     32826     32829
     32815     32814     32816     32815     32814     32826     32816     32814     32826
     32817     32820     32821     32818     32817     32819     32818     32817     32820
     32819     32817     32820     32820     32821     32822     32820     32821     32823
     32821     32823     32824     32821     32823     32825     32821     32823     32873
     32822     32821     32823     32823     32873     32874     32823     32873     32875
     32823     32873     32876     32824     32823     32825     32824     32823     32873
     32825     32823     32873     32826     32829     32830     32826     32829     32831
     32826     32829     32832     32827     32826     32828     32827     32826     32829
     32828     32826     32829     32829     32832     32833     32829     32832     32834
     32829     32832     32835     32830     32829     32831     32830     32829     32832
     32831     32829     32832     32832     32835     32836     32832     32835     32837
     32832     32835     32838     32833     32832     32834     32833     32832     32835
     32834     32832     32835     32835     32838     32839     32835     32838     32840
     32835     32838     32841     32836     32835     32837     32836     32835     32838
     32837     32835     32838     32838     32841     32842     32838     32841     32843
     32838     32841     32844     32839     32838     32840     32839     32838     32841
     32840     32838     32841     32841     32844     32845     32841     32844     32846
     32842     32841     32843     32842     32841     32844     32843     32841     32844
     32844     32846     32847     32844     32846     32848     32845     32844     32846
     32846     32848     32849     32846     32848     32850     32846     32848     32851
     32847     32846     32848     32848     32851     32852     32848     32851     32853
     32848     32851     32854     32849     32848     32850     32849     32848     32851
     32850     32848     32851     32851     32854     32855     32851     32854     32856
     32851     32854     32857     32852     32851     32853     32852     32851     32854
     32853     32851     32854     32854     32857     32858     32854     32857     32859
     32854     32857     32860     32855     32854     32856     32855     32854     32857
     32856     32854     32857     32857     32860     32861     32857     32860     32862
     32857     32860     32863     32858     32857     32859     32858     32857     32860
     32859     32857     32860     32860     32863     32864     32860     32863     32865
     32860     32863     32866     32861     32860     32862     32861     32860     32863
     32862     32860     32863     32863     32866     32867     32863     32866     32868
     32863     32866     32869     32864     32863     32865     32864     32863     32866
     32865     32863     32866     32866     32869     32870     32866     32869     32871
     32866     32869     32872     32867     32866     32868     32867     32866     32869
     32868     32866     32869     32870     32869     32871     32870     32869     32872
     32871     32869     32872     32873     32876     32877     32873     32876     32878
     32873     32876     32879     32874     32873     32875     32874     32873     32876
     32875     32873     32876     32876     32879     32880     32876     32879     32881
     32876     32879     32882     32877     32876     32878     32877     32876     32879
     32878     32876     32879     32879     32882     32883     32879     32882     32884
     32879     32882     32885     32880     32879     32881     32880     32879     32882
     32881     32879     32882     32882     32885     32886     32882     32885     32887
     32882     32885     32888     32883     32882     32884     32883     32882     32885
     32884     32882     32885     32885     32888     32889     32885     32888     32890
     32885     32888     32891     32886     32885     32887     32886     32885     32888
     32887     32885     32888     32888     32891     32892     32888     32891     32893
     32888     32891     32894     32889     32888     32890     32889     32888     32891
     32890     32888     32891     32891     32894     32895     32891     32894     32896
     32891     32894     32897     32892     32891     32893     32892     32891     32894
     32893     32891     32894     32894     32897     32898     32894     32897     32899
     32894     32897     32900     32895     32894     32896     32895     32894     32897
     32896     32894     32897     32897     32900     32901     32897     32900     32902
     32897     32900     32903     32898     32897     32899     32898     32897     32900
     32899     32897     32900     32900     32903     32904     32900     32903     32905
     32900     32903     32906     32901     32900     32902     32901     32900     32903
     32902     32900     32903     32903     32906     32907     32903     32906     32908
     32903     32906     32909     32904     32903     32905     32904     32903     32906
     32905     32903     32906     32906     32909     32910     32906     32909     32911
     32906     32909     32912     32907     32906     32908     32907     32906     32909
     32908     32906     32909     32909     32912     32913     32909     32912     32914
     32909     32912     32915     32910     32909     32911     32910     32909     32912
     32911     32909     32912     32913     32912     32914     32913     32912     32915
     32914     32912     32915     32916     32917     32918     32916     32917     32919
     32916     32917     32932     32916     32920     32921     32916     32920     32922
     32916     32920     32923     32916     32924     32925     32916     32924     32926
     32916     32924     32927     32916     32928     32929     32916     32928     32930
     32916     32928     32931     32917     32916     32920     32917     32916     32924
     32917     32916     32928     32917     32932     32933     32917     32932     32934
     32917     32932     32938     32918     32917     32919     32918     32917     32932
     32919     32917     32932     32920     32916     32924     32920     32916     32928
     32921     32920     32922     32921     32920     32923     32922     32920     32923
     32924     32916     32928     32925     32924     32926     32925     32924     32927
     32926     32924     32927     32929     32928     32930     32929     32928     32931
     32930     32928     32931     32932     32938     32935     32933     32932     32934
     32933     32932     32938     32934     32932     32938     32935     32939     32940
     32936     32935     32937     32936     32935     32938     32936     32935     32939
     32937     32935     32938     32937     32935     32939     32938     32935     32939
     32939     32940     32941     32939     32940     32942     32939     32940     32943
     32940     32943     32944     32940     32943     32945     32940     32943     32951
     32941     32940     32942     32941     32940     32943     32942     32940     32943
     32943     32945     32946     32943     32951     32952     32943     32951     32953
     32943     32951     32954     32944     32943     32945     32944     32943     32951
     32945     32943     32951     32945     32946     32947     32945     32946     32948
     32946     32948     32949     32946     32948     32950     32946     32948     32960
     32947     32946     32948     32948     32960     32961     32948     32960     32962
     32948     32960     32963     32949     32948     32950     32949     32948     32960
     32950     32948     32960     32951     32954     32955     32952     32951     32953
     32952     32951     32954     32953     32951     32954     32954     32955     32956
     32954     32955     32957     32955     32957     32958     32955     32957     32959
     32955     32957     33007     32956     32955     32957     32957     33007     33008
     32957     33007     33009     32957     33007     33010     32958     32957     32959
     32958     32957     33007     32959     32957     33007     32960     32963     32964
     32960     32963     32965     32960     32963     32966     32961     32960     32962
     32961     32960     32963     32962     32960     32963     32963     32966     32967
     32963     32966     32968     32963     32966     32969     32964     32963     32965
     32964     32963     32966     32965     32963     32966     32966     32969     32970
     32966     32969     32971     32966     32969     32972     32967     32966     32968
     32967     32966     32969     32968     32966     32969     32969     32972     32973
     32969     32972     32974     32969     32972     32975     32970     32969     32971
     32970     32969     32972     32971     32969     32972     32972     32975     32976
     32972     32975     32977     32972     32975     32978     32973     32972     32974
     32973     32972     32975     32974     32972     32975     32975     32978     32979
     32975     32978     32980     32976     32975     32977     32976     32975     32978
     32977     32975     32978     32978     32980     32981     32978     32980     32982
     32979     32978     32980     32980     32982     32983     32980     32982     32984
     32980     32982     32985     32981     32980     32982     32982     32985     32986
     32982     32985     32987     32982     32985     32988     32983     32982     32984
     32983     32982     32985     32984     32982     32985     32985     32988     32989
     32985     32988     32990     32985     32988     32991     32986     32985     32987
     32986     32985     32988     32987     32985     32988     32988     32991     32992
     32988     32991     32993     32988     32991     32994     32989     32988     32990
     32989     32988     32991     32990     32988     32991     32991     32994     32995
     32991     32994     32996     32991     32994     32997     32992     32991     32993
     32992     32991     32994     32993     32991     32994     32994     32997     32998
     32994     32997     32999     32994     32997     33000     32995     32994     32996
     32995     32994     32997     32996     32994     32997     32997     33000     33001
     32997     33000     33002     32997     33000     33003     32998     32997     32999
     32998     32997     33000     32999     32997     33000     33000     33003     33004
     33000     33003     33005     33000     33003     33006     33001     33000     33002
     33001     33000     33003     33002     33000     33003     33004     33003     33005
     33004     33003     33006     33005     33003     33006     33007     33010     33011
     33007     33010     33012     33007     33010     33013     33008     33007     33009
     33008     33007     33010     33009     33007     33010     33010     33013     33014
     33010     33013     33015     33010     33013     33016     33011     33010     33012
     33011     33010     33013     33012     33010     33013     33013     33016     33017
     33013     33016     33018     33013     33016     33019     33014     33013     33015
     33014     33013     33016     33015     33013     33016     33016     33019     33020
     33016     33019     33021     33016     33019     33022     33017     33016     33018
     33017     33016     33019     33018     33016     33019     33019     33022     33023
     33019     33022     33024     33019     33022     33025     33020     33019     33021
     33020     33019     33022     33021     33019     33022     33022     33025     33026
     33022     33025     33027     33022     33025     33028     33023     33022     33024
     33023     33022     33025     33024     33022     33025     33025     33028     33029
     33025     33028     33030     33025     33028     33031     33026     33025     33027
     33026     33025     33028     33027     33025     33028     33028     33031     33032
     33028     33031     33033     33028     33031     33034     33029     33028     33030
     33029     33028     33031     33030     33028     33031     33031     33034     33035
     33031     33034     33036     33031     33034     33037     33032     33031     33033
     33032     33031     33034     33033     33031     33034     33034     33037     33038
     33034     33037     33039     33034     33037     33040     33035     33034     33036
     33035     33034     33037     33036     33034     33037     33037     33040     33041
     33037     33040     33042     33037     33040     33043     33038     33037     33039
     33038     33037     33040     33039     33037     33040     33040     33043     33044
     33040     33043     33045     33040     33043     33046     33041     33040     33042
     33041     33040     33043     33042     33040     33043     33043     33046     33047
     33043     33046     33048     33043     33046     33049     33044     33043     33045
     33044     33043     33046     33045     33043     33046     33047     33046     33048
     33047     33046     33049     33048     33046     33049     33050     33054     33055
     33050     33054     33056     33050     33054     33057     33051     33050     33052
     33051     33050     33053     33051     33050     33054     33052     33050     33053
     33052     33050     33054     33053     33050     33054     33054     33057     33058
     33054     33057     33059     33054     33057     33064     33055     33054     33056
     33055     33054     33057     33056     33054     33057     33057     33064     33060
     33058     33057     33059     33058     33057     33064     33059     33057     33064
     33060     33063     33065     33061     33060     33062     33061     33060     33063
     33061     33060     33064     33062     33060     33063     33062     33060     33064
     33063     33060     33064     33063     33065     33066     33063     33065     33067
     33063     33065     33068     33065     33068     33069     33065     33068     33070
     33065     33068     33076     33066     33065     33067     33066     33065     33068
     33067     33065     33068     33068     33070     33071     33068     33076     33077
     33068     33076     33078     33068     33076     33079     33069     33068     33070
     33069     33068     33076     33070     33068     33076     33070     33071     33072
     33070     33071     33073     33071     33073     33074     33071     33073     33075
     33071     33073     33085     33072     33071     33073     33073     33085     33086
     33073     33085     33087     33073     33085     33088     33074     33073     33075
     33074     33073     33085     33075     33073     33085     33076     33079     33080
     33077     33076     33078     33077     33076     33079     33078     33076     33079
     33079     33080     33081     33079     33080     33082     33080     33082     33083
     33080     33082     33084     33080     33082     33132     33081     33080     33082
     33082     33132     33133     33082     33132     33134     33082     33132     33135
     33083     33082     33084     33083     33082     33132     33084     33082     33132
     33085     33088     33089     33085     33088     33090     33085     33088     33091
     33086     33085     33087     33086     33085     33088     33087     33085     33088
     33088     33091     33092     33088     33091     33093     33088     33091     33094
     33089     33088     33090     33089     33088     33091     33090     33088     33091
     33091     33094     33095     33091     33094     33096     33091     33094     33097
     33092     33091     33093     33092     33091     33094     33093     33091     33094
     33094     33097     33098     33094     33097     33099     33094     33097     33100
     33095     33094     33096     33095     33094     33097     33096     33094     33097
     33097     33100     33101     33097     33100     33102     33097     33100     33103
     33098     33097     33099     33098     33097     33100     33099     33097     33100
     33100     33103     33104     33100     33103     33105     33101     33100     33102
     33101     33100     33103     33102     33100     33103     33103     33105     33106
     33103     33105     33107     33104     33103     33105     33105     33107     33108
     33105     33107     33109     33105     33107     33110     33106     33105     33107
     33107     33110     33111     33107     33110     33112     33107     33110     33113
     33108     33107     33109     33108     33107     33110     33109     33107     33110
     33110     33113     33114     33110     33113     33115     33110     33113     33116
     33111     33110     33112     33111     33110     33113     33112     33110     33113
     33113     33116     33117     33113     33116     33118     33113     33116     33119
     33114     33113     33115     33114     33113     33116     33115     33113     33116
     33116     33119     33120     33116     33119     33121     33116     33119     33122
     33117     33116     33118     33117     33116     33119     33118     33116     33119
     33119     33122     33123     33119     33122     33124     33119     33122     33125
     33120     33119     33121     33120     33119     33122     33121     33119     33122
     33122     33125     33126     33122     33125     33127     33122     33125     33128
     33123     33122     33124     33123     33122     33125     33124     33122     33125
     33125     33128     33129     33125     33128     33130     33125     33128     33131
     33126     33125     33127     33126     33125     33128     33127     33125     33128
     33129     33128     33130     33129     33128     33131     33130     33128     33131
     33132     33135     33136     33132     33135     33137     33132     33135     33138
     33133     33132     33134     33133     33132     33135     33134     33132     33135
     33135     33138     33139     33135     33138     33140     33135     33138     33141
     33136     33135     33137     33136     33135     33138     33137     33135     33138
     33138     33141     33142     33138     33141     33143     33138     33141     33144
     33139     33138     33140     33139     33138     33141     33140     33138     33141
     33141     33144     33145     33141     33144     33146     33141     33144     33147
     33142     33141     33143     33142     33141     33144     33143     33141     33144
     33144     33147     33148     33144     33147     33149     33144     33147     33150
     33145     33144     33146     33145     33144     33147     33146     33144     33147
     33147     33150     33151     33147     33150     33152     33147     33150     33153
     33148     33147     33149     33148     33147     33150     33149     33147     33150
     33150     33153     33154     33150     33153     33155     33150     33153     33156
     33151     33150     33152     33151     33150     33153     33152     33150     33153
     33153     33156     33157     33153     33156     33158     33153     33156     33159
     33154     33153     33155     33154     33153     33156     33155     33153     33156
     33156     33159     33160     33156     33159     33161     33156     33159     33162
     33157     33156     33158     33157     33156     33159     33158     33156     33159
     33159     33162     33163     33159     33162     33164     33159     33162     33165
     33160     33159     33161     33160     33159     33162     33161     33159     33162
     33162     33165     33166     33162     33165     33167     33162     33165     33168
     33163     33162     33164     33163     33162     33165     33164     33162     33165
     33165     33168     33169     33165     33168     33170     33165     33168     33171
     33166     33165     33167     33166     33165     33168     33167     33165     33168
     33168     33171     33172     33168     33171     33173     33168     33171     33174
     33169     33168     33170     33169     33168     33171     33170     33168     33171
     33172     33171     33173     33172     33171     33174     33173     33171     33174
     33175     33176     33177     33175     33176     33178     33175     33176     33191
     33175     33179     33180     33175     33179     33181     33175     33179     33182
     33175     33183     33184     33175     33183     33185     33175     33183     33186
     33175     33187     33188     33175     33187     33189     33175     33187     33190
     33176     33175     33179     33176     33175     33183     33176     33175     33187
     33176     33191     33192     33176     33191     33193     33176     33191     33197
     33177     33176     33178     33177     33176     33191     33178     33176     33191
     33179     33175     33183     33179     33175     33187     33180     33179     33181
     33180     33179     33182     33181     33179     33182     33183     33175     33187
     33184     33183     33185     33184     33183     33186     33185     33183     33186
     33188     33187     33189     33188     33187     33190     33189     33187     33190
     33191     33197     33194     33192     33191     33193     33192     33191     33197
     33193     33191     33197     33194     33198     33199     33195     33194     33196
     33195     33194     33197     33195     33194     33198     33196     33194     33197
     33196     33194     33198     33197     33194     33198     33198     33199     33200
     33198     33199     33201     33198     33199     33202     33199     33202     33203
     33199     33202     33204     33199     33202     33210     33200     33199     33201
     33200     33199     33202     33201     33199     33202     33202     33204     33205
     33202     33210     33211     33202     33210     33212     33202     33210     33213
     33203     33202     33204     33203     33202     33210     33204     33202     33210
     33204     33205     33206     33204     33205     33207     33205     33207     33208
     33205     33207     33209     33205     33207     33219     33206     33205     33207
     33207     33219     33220     33207     33219     33221     33207     33219     33222
     33208     33207     33209     33208     33207     33219     33209     33207     33219
     33210     33213     33214     33211     33210     33212     33211     33210     33213
     33212     33210     33213     33213     33214     33215     33213     33214     33216
     33214     33216     33217     33214     33216     33218     33214     33216     33266
     33215     33214     33216     33216     33266     33267     33216     33266     33268
     33216     33266     33269     33217     33216     33218     33217     33216     33266
     33218     33216     33266     33219     33222     33223     33219     33222     33224
     33219     33222     33225     33220     33219     33221     33220     33219     33222
     33221     33219     33222     33222     33225     33226     33222     33225     33227
     33222     33225     33228     33223     33222     33224     33223     33222     33225
     33224     33222     33225     33225     33228     33229     33225     33228     33230
     33225     33228     33231     33226     33225     33227     33226     33225     33228
     33227     33225     33228     33228     33231     33232     33228     33231     33233
     33228     33231     33234     33229     33228     33230     33229     33228     33231
     33230     33228     33231     33231     33234     33235     33231     33234     33236
     33231     33234     33237     33232     33231     33233     33232     33231     33234
     33233     33231     33234     33234     33237     33238     33234     33237     33239
     33235     33234     33236     33235     33234     33237     33236     33234     33237
     33237     33239     33240     33237     33239     33241     33238     33237     33239
     33239     33241     33242     33239     33241     33243     33239     33241     33244
     33240     33239     33241     33241     33244     33245     33241     33244     33246
     33241     33244     33247     33242     33241     33243     33242     33241     33244
     33243     33241     33244     33244     33247     33248     33244     33247     33249
     33244     33247     33250     33245     33244     33246     33245     33244     33247
     33246     33244     33247     33247     33250     33251     33247     33250     33252
     33247     33250     33253     33248     33247     33249     33248     33247     33250
     33249     33247     33250     33250     33253     33254     33250     33253     33255
     33250     33253     33256     33251     33250     33252     33251     33250     33253
     33252     33250     33253     33253     33256     33257     33253     33256     33258
     33253     33256     33259     33254     33253     33255     33254     33253     33256
     33255     33253     33256     33256     33259     33260     33256     33259     33261
     33256     33259     33262     33257     33256     33258     33257     33256     33259
     33258     33256     33259     33259     33262     33263     33259     33262     33264
     33259     33262     33265     33260     33259     33261     33260     33259     33262
     33261     33259     33262     33263     33262     33264     33263     33262     33265
     33264     33262     33265     33266     33269     33270     33266     33269     33271
     33266     33269     33272     33267     33266     33268     33267     33266     33269
     33268     33266     33269     33269     33272     33273     33269     33272     33274
     33269     33272     33275     33270     33269     33271     33270     33269     33272
     33271     33269     33272     33272     33275     33276     33272     33275     33277
     33272     33275     33278     33273     33272     33274     33273     33272     33275
     33274     33272     33275     33275     33278     33279     33275     33278     33280
     33275     33278     33281     33276     33275     33277     33276     33275     33278
     33277     33275     33278     33278     33281     33282     33278     33281     33283
     33278     33281     33284     33279     33278     33280     33279     33278     33281
     33280     33278     33281     33281     33284     33285     33281     33284     33286
     33281     33284     33287     33282     33281     33283     33282     33281     33284
     33283     33281     33284     33284     33287     33288     33284     33287     33289
     33284     33287     33290     33285     33284     33286     33285     33284     33287
     33286     33284     33287     33287     33290     33291     33287     33290     33292
     33287     33290     33293     33288     33287     33289     33288     33287     33290
     33289     33287     33290     33290     33293     33294     33290     33293     33295
     33290     33293     33296     33291     33290     33292     33291     33290     33293
     33292     33290     33293     33293     33296     33297     33293     33296     33298
     33293     33296     33299     33294     33293     33295     33294     33293     33296
     33295     33293     33296     33296     33299     33300     33296     33299     33301
     33296     33299     33302     33297     33296     33298     33297     33296     33299
     33298     33296     33299     33299     33302     33303     33299     33302     33304
     33299     33302     33305     33300     33299     33301     33300     33299     33302
     33301     33299     33302     33302     33305     33306     33302     33305     33307
     33302     33305     33308     33303     33302     33304     33303     33302     33305
     33304     33302     33305     33306     33305     33307     33306     33305     33308
     33307     33305     33308     33309     33313     33314     33309     33313     33315
     33309     33313     33316     33310     33309     33311     33310     33309     33312
     33310     33309     33313     33311     33309     33312     33311     33309     33313
     33312     33309     33313     33313     33316     33317     33313     33316     33318
     33313     33316     33323     33314     33313     33315     33314     33313     33316
     33315     33313     33316     33316     33323     33319     33317     33316     33318
     33317     33316     33323     33318     33316     33323     33319     33322     33324
     33320     33319     33321     33320     33319     33322     33320     33319     33323
     33321     33319     33322     33321     33319     33323     33322     33319     33323
     33322     33324     33325     33322     33324     33326     33322     33324     33327
     33324     33327     33328     33324     33327     33329     33324     33327     33335
     33325     33324     33326     33325     33324     33327     33326     33324     33327
     33327     33329     33330     33327     33335     33336     33327     33335     33337
     33327     33335     33338     33328     33327     33329     33328     33327     33335
     33329     33327     33335     33329     33330     33331     33329     33330     33332
     33330     33332     33333     33330     33332     33334     33330     33332     33344
     33331     33330     33332     33332     33344     33345     33332     33344     33346
     33332     33344     33347     33333     33332     33334     33333     33332     33344
     33334     33332     33344     33335     33338     33339     33336     33335     33337
     33336     33335     33338     33337     33335     33338     33338     33339     33340
     33338     33339     33341     33339     33341     33342     33339     33341     33343
     33339     33341     33391     33340     33339     33341     33341     33391     33392
     33341     33391     33393     33341     33391     33394     33342     33341     33343
     33342     33341     33391     33343     33341     33391     33344     33347     33348
     33344     33347     33349     33344     33347     33350     33345     33344     33346
     33345     33344     33347     33346     33344     33347     33347     33350     33351
     33347     33350     33352     33347     33350     33353     33348     33347     33349
     33348     33347     33350     33349     33347     33350     33350     33353     33354
     33350     33353     33355     33350     33353     33356     33351     33350     33352
     33351     33350     33353     33352     33350     33353     33353     33356     33357
     33353     33356     33358     33353     33356     33359     33354     33353     33355
     33354     33353     33356     33355     33353     33356     33356     33359     33360
     33356     33359     33361     33356     33359     33362     33357     33356     33358
     33357     33356     33359     33358     33356     33359     33359     33362     33363
     33359     33362     33364     33360     33359     33361     33360     33359     33362
     33361     33359     33362     33362     33364     33365     33362     33364     33366
     33363     33362     33364     33364     33366     33367     33364     33366     33368
     33364     33366     33369     33365     33364     33366     33366     33369     33370
     33366     33369     33371     33366     33369     33372     33367     33366     33368
     33367     33366     33369     33368     33366     33369     33369     33372     33373
     33369     33372     33374     33369     33372     33375     33370     33369     33371
     33370     33369     33372     33371     33369     33372     33372     33375     33376
     33372     33375     33377     33372     33375     33378     33373     33372     33374
     33373     33372     33375     33374     33372     33375     33375     33378     33379
     33375     33378     33380     33375     33378     33381     33376     33375     33377
     33376     33375     33378     33377     33375     33378     33378     33381     33382
     33378     33381     33383     33378     33381     33384     33379     33378     33380
     33379     33378     33381     33380     33378     33381     33381     33384     33385
     33381     33384     33386     33381     33384     33387     33382     33381     33383
     33382     33381     33384     33383     33381     33384     33384     33387     33388
     33384     33387     33389     33384     33387     33390     33385     33384     33386
     33385     33384     33387     33386     33384     33387     33388     33387     33389
     33388     33387     33390     33389     33387     33390     33391     33394     33395
     33391     33394     33396     33391     33394     33397     33392     33391     33393
     33392     33391     33394     33393     33391     33394     33394     33397     33398
     33394     33397     33399     33394     33397     33400     33395     33394     33396
     33395     33394     33397     33396     33394     33397     33397     33400     33401
     33397     33400     33402     33397     33400     33403     33398     33397     33399
     33398     33397     33400     33399     33397     33400     33400     33403     33404
     33400     33403     33405     33400     33403     33406     33401     33400     33402
     33401     33400     33403     33402     33400     33403     33403     33406     33407
     33403     33406     33408     33403     33406     33409     33404     33403     33405
     33404     33403     33406     33405     33403     33406     33406     33409     33410
     33406     33409     33411     33406     33409     33412     33407     33406     33408
     33407     33406     33409     33408     33406     33409     33409     33412     33413
     33409     33412     33414     33409     33412     33415     33410     33409     33411
     33410     33409     33412     33411     33409     33412     33412     33415     33416
     33412     33415     33417     33412     33415     33418     33413     33412     33414
     33413     33412     33415     33414     33412     33415     33415     33418     33419
     33415     33418     33420     33415     33418     33421     33416     33415     33417
     33416     33415     33418     33417     33415     33418     33418     33421     33422
     33418     33421     33423     33418     33421     33424     33419     33418     33420
     33419     33418     33421     33420     33418     33421     33421     33424     33425
     33421     33424     33426     33421     33424     33427     33422     33421     33423
     33422     33421     33424     33423     33421     33424     33424     33427     33428
     33424     33427     33429     33424     33427     33430     33425     33424     33426
     33425     33424     33427     33426     33424     33427     33427     33430     33431
     33427     33430     33432     33427     33430     33433     33428     33427     33429
     33428     33427     33430     33429     33427     33430     33431     33430     33432
     33431     33430     33433     33432     33430     33433     33434     33438     33439
     33434     33438     33440     33434     33438     33441     33435     33434     33436
     33435     33434     33437     33435     33434     33438     33436     33434     33437
     33436     33434     33438     33437     33434     33438     33438     33441     33442
     33438     33441     33443     33438     33441     33448     33439     33438     33440
     33439     33438     33441     33440     33438     33441     33441     33448     33444
     33442     33441     33443     33442     33441     33448     33443     33441     33448
     33444     33447     33449     33445     33444     33446     33445     33444     33447
     33445     33444     33448     33446     33444     33447     33446     33444     33448
     33447     33444     33448     33447     33449     33450     33447     33449     33451
     33447     33449     33452     33449     33452     33453     33449     33452     33454
     33449     33452     33460     33450     33449     33451     33450     33449     33452
     33451     33449     33452     33452     33454     33455     33452     33460     33461
     33452     33460     33462     33452     33460     33463     33453     33452     33454
     33453     33452     33460     33454     33452     33460     33454     33455     33456
     33454     33455     33457     33455     33457     33458     33455     33457     33459
     33455     33457     33469     33456     33455     33457     33457     33469     33470
     33457     33469     33471     33457     33469     33472     33458     33457     33459
     33458     33457     33469     33459     33457     33469     33460     33463     33464
     33461     33460     33462     33461     33460     33463     33462     33460     33463
     33463     33464     33465     33463     33464     33466     33464     33466     33467
     33464     33466     33468     33464     33466     33516     33465     33464     33466
     33466     33516     33517     33466     33516     33518     33466     33516     33519
     33467     33466     33468     33467     33466     33516     33468     33466     33516
     33469     33472     33473     33469     33472     33474     33469     33472     33475
     33470     33469     33471     33470     33469     33472     33471     33469     33472
     33472     33475     33476     33472     33475     33477     33472     33475     33478
     33473     33472     33474     33473     33472     33475     33474     33472     33475
     33475     33478     33479     33475     33478     33480     33475     33478     33481
     33476     33475     33477     33476     33475     33478     33477     33475     33478
     33478     33481     33482     33478     33481     33483     33478     33481     33484
     33479     33478     33480     33479     33478     33481     33480     33478     33481
     33481     33484     33485     33481     33484     33486     33481     33484     33487
     33482     33481     33483     33482     33481     33484     33483     33481     33484
     33484     33487     33488     33484     33487     33489     33485     33484     33486
     33485     33484     33487     33486     33484     33487     33487     33489     33490
     33487     33489     33491     33488     33487     33489     33489     33491     33492
     33489     33491     33493     33489     33491     33494     33490     33489     33491
     33491     33494     33495     33491     33494     33496     33491     33494     33497
     33492     33491     33493     33492     33491     33494     33493     33491     33494
     33494     33497     33498     33494     33497     33499     33494     33497     33500
     33495     33494     33496     33495     33494     33497     33496     33494     33497
     33497     33500     33501     33497     33500     33502     33497     33500     33503
     33498     33497     33499     33498     33497     33500     33499     33497     33500
     33500     33503     33504     33500     33503     33505     33500     33503     33506
     33501     33500     33502     33501     33500     33503     33502     33500     33503
     33503     33506     33507     33503     33506     33508     33503     33506     33509
     33504     33503     33505     33504     33503     33506     33505     33503     33506
     33506     33509     33510     33506     33509     33511     33506     33509     33512
     33507     33506     33508     33507     33506     33509     33508     33506     33509
     33509     33512     33513     33509     33512     33514     33509     33512     33515
     33510     33509     33511     33510     33509     33512     33511     33509     33512
     33513     33512     33514     33513     33512     33515     33514     33512     33515
     33516     33519     33520     33516     33519     33521     33516     33519     33522
     33517     33516     33518     33517     33516     33519     33518     33516     33519
     33519     33522     33523     33519     33522     33524     33519     33522     33525
     33520     33519     33521     33520     33519     33522     33521     33519     33522
     33522     33525     33526     33522     33525     33527     33522     33525     33528
     33523     33522     33524     33523     33522     33525     33524     33522     33525
     33525     33528     33529     33525     33528     33530     33525     33528     33531
     33526     33525     33527     33526     33525     33528     33527     33525     33528
     33528     33531     33532     33528     33531     33533     33528     33531     33534
     33529     33528     33530     33529     33528     33531     33530     33528     33531
     33531     33534     33535     33531     33534     33536     33531     33534     33537
     33532     33531     33533     33532     33531     33534     33533     33531     33534
     33534     33537     33538     33534     33537     33539     33534     33537     33540
     33535     33534     33536     33535     33534     33537     33536     33534     33537
     33537     33540     33541     33537     33540     33542     33537     33540     33543
     33538     33537     33539     33538     33537     33540     33539     33537     33540
     33540     33543     33544     33540     33543     33545     33540     33543     33546
     33541     33540     33542     33541     33540     33543     33542     33540     33543
     33543     33546     33547     33543     33546     33548     33543     33546     33549
     33544     33543     33545     33544     33543     33546     33545     33543     33546
     33546     33549     33550     33546     33549     33551     33546     33549     33552
     33547     33546     33548     33547     33546     33549     33548     33546     33549
     33549     33552     33553     33549     33552     33554     33549     33552     33555
     33550     33549     33551     33550     33549     33552     33551     33549     33552
     33552     33555     33556     33552     33555     33557     33552     33555     33558
     33553     33552     33554     33553     33552     33555     33554     33552     33555
     33556     33555     33557     33556     33555     33558     33557     33555     33558
     33559     33563     33564     33559     33563     33565     33559     33563     33566
     33560     33559     33561     33560     33559     33562     33560     33559     33563
     33561     33559     33562     33561     33559     33563     33562     33559     33563
     33563     33566     33567     33563     33566     33568     33563     33566     33573
     33564     33563     33565     33564     33563     33566     33565     33563     33566
     33566     33573     33569     33567     33566     33568     33567     33566     33573
     33568     33566     33573     33569     33572     33574     33570     33569     33571
     33570     33569     33572     33570     33569     33573     33571     33569     33572
     33571     33569     33573     33572     33569     33573     33572     33574     33575
     33572     33574     33576     33572     33574     33577     33574     33577     33578
     33574     33577     33579     33574     33577     33585     33575     33574     33576
     33575     33574     33577     33576     33574     33577     33577     33579     33580
     33577     33585     33586     33577     33585     33587     33577     33585     33588
     33578     33577     33579     33578     33577     33585     33579     33577     33585
     33579     33580     33581     33579     33580     33582     33580     33582     33583
     33580     33582     33584     33580     33582     33594     33581     33580     33582
     33582     33594     33595     33582     33594     33596     33582     33594     33597
     33583     33582     33584     33583     33582     33594     33584     33582     33594
     33585     33588     33589     33586     33585     33587     33586     33585     33588
     33587     33585     33588     33588     33589     33590     33588     33589     33591
     33589     33591     33592     33589     33591     33593     33589     33591     33641
     33590     33589     33591     33591     33641     33642     33591     33641     33643
     33591     33641     33644     33592     33591     33593     33592     33591     33641
     33593     33591     33641     33594     33597     33598     33594     33597     33599
     33594     33597     33600     33595     33594     33596     33595     33594     33597
     33596     33594     33597     33597     33600     33601     33597     33600     33602
     33597     33600     33603     33598     33597     33599     33598     33597     33600
     33599     33597     33600     33600     33603     33604     33600     33603     33605
     33600     33603     33606     33601     33600     33602     33601     33600     33603
     33602     33600     33603     33603     33606     33607     33603     33606     33608
     33603     33606     33609     33604     33603     33605     33604     33603     33606
     33605     33603     33606     33606     33609     33610     33606     33609     33611
     33606     33609     33612     33607     33606     33608     33607     33606     33609
     33608     33606     33609     33609     33612     33613     33609     33612     33614
     33610     33609     33611     33610     33609     33612     33611     33609     33612
     33612     33614     33615     33612     33614     33616     33613     33612     33614
     33614     33616     33617     33614     33616     33618     33614     33616     33619
     33615     33614     33616     33616     33619     33620     33616     33619     33621
     33616     33619     33622     33617     33616     33618     33617     33616     33619
     33618     33616     33619     33619     33622     33623     33619     33622     33624
     33619     33622     33625     33620     33619     33621     33620     33619     33622
     33621     33619     33622     33622     33625     33626     33622     33625     33627
     33622     33625     33628     33623     33622     33624     33623     33622     33625
     33624     33622     33625     33625     33628     33629     33625     33628     33630
     33625     33628     33631     33626     33625     33627     33626     33625     33628
     33627     33625     33628     33628     33631     33632     33628     33631     33633
     33628     33631     33634     33629     33628     33630     33629     33628     33631
     33630     33628     33631     33631     33634     33635     33631     33634     33636
     33631     33634     33637     33632     33631     33633     33632     33631     33634
     33633     33631     33634     33634     33637     33638     33634     33637     33639
     33634     33637     33640     33635     33634     33636     33635     33634     33637
     33636     33634     33637     33638     33637     33639     33638     33637     33640
     33639     33637     33640     33641     33644     33645     33641     33644     33646
     33641     33644     33647     33642     33641     33643     33642     33641     33644
     33643     33641     33644     33644     33647     33648     33644     33647     33649
     33644     33647     33650     33645     33644     33646     33645     33644     33647
     33646     33644     33647     33647     33650     33651     33647     33650     33652
     33647     33650     33653     33648     33647     33649     33648     33647     33650
     33649     33647     33650     33650     33653     33654     33650     33653     33655
     33650     33653     33656     33651     33650     33652     33651     33650     33653
     33652     33650     33653     33653     33656     33657     33653     33656     33658
     33653     33656     33659     33654     33653     33655     33654     33653     33656
     33655     33653     33656     33656     33659     33660     33656     33659     33661
     33656     33659     33662     33657     33656     33658     33657     33656     33659
     33658     33656     33659     33659     33662     33663     33659     33662     33664
     33659     33662     33665     33660     33659     33661     33660     33659     33662
     33661     33659     33662     33662     33665     33666     33662     33665     33667
     33662     33665     33668     33663     33662     33664     33663     33662     33665
     33664     33662     33665     33665     33668     33669     33665     33668     33670
     33665     33668     33671     33666     33665     33667     33666     33665     33668
     33667     33665     33668     33668     33671     33672     33668     33671     33673
     33668     33671     33674     33669     33668     33670     33669     33668     33671
     33670     33668     33671     33671     33674     33675     33671     33674     33676
     33671     33674     33677     33672     33671     33673     33672     33671     33674
     33673     33671     33674     33674     33677     33678     33674     33677     33679
     33674     33677     33680     33675     33674     33676     33675     33674     33677
     33676     33674     33677     33677     33680     33681     33677     33680     33682
     33677     33680     33683     33678     33677     33679     33678     33677     33680
     33679     33677     33680     33681     33680     33682     33681     33680     33683
     33682     33680     33683     33684     33685     33686     33684     33685     33687
     33684     33685     33700     33684     33688     33689     33684     33688     33690
     33684     33688     33691     33684     33692     33693     33684     33692     33694
     33684     33692     33695     33684     33696     33697     33684     33696     33698
     33684     33696     33699     33685     33684     33688     33685     33684     33692
     33685     33684     33696     33685     33700     33701     33685     33700     33702
     33685     33700     33706     33686     33685     33687     33686     33685     33700
     33687     33685     33700     33688     33684     33692     33688     33684     33696
     33689     33688     33690     33689     33688     33691     33690     33688     33691
     33692     33684     33696     33693     33692     33694     33693     33692     33695
     33694     33692     33695     33697     33696     33698     33697     33696     33699
     33698     33696     33699     33700     33706     33703     33701     33700     33702
     33701     33700     33706     33702     33700     33706     33703     33707     33708
     33704     33703     33705     33704     33703     33706     33704     33703     33707
     33705     33703     33706     33705     33703     33707     33706     33703     33707
     33707     33708     33709     33707     33708     33710     33707     33708     33711
     33708     33711     33712     33708     33711     33713     33708     33711     33719
     33709     33708     33710     33709     33708     33711     33710     33708     33711
     33711     33713     33714     33711     33719     33720     33711     33719     33721
     33711     33719     33722     33712     33711     33713     33712     33711     33719
     33713     33711     33719     33713     33714     33715     33713     33714     33716
     33714     33716     33717     33714     33716     33718     33714     33716     33728
     33715     33714     33716     33716     33728     33729     33716     33728     33730
     33716     33728     33731     33717     33716     33718     33717     33716     33728
     33718     33716     33728     33719     33722     33723     33720     33719     33721
     33720     33719     33722     33721     33719     33722     33722     33723     33724
     33722     33723     33725     33723     33725     33726     33723     33725     33727
     33723     33725     33775     33724     33723     33725     33725     33775     33776
     33725     33775     33777     33725     33775     33778     33726     33725     33727
     33726     33725     33775     33727     33725     33775     33728     33731     33732
     33728     33731     33733     33728     33731     33734     33729     33728     33730
     33729     33728     33731     33730     33728     33731     33731     33734     33735
     33731     33734     33736     33731     33734     33737     33732     33731     33733
     33732     33731     33734     33733     33731     33734     33734     33737     33738
     33734     33737     33739     33734     33737     33740     33735     33734     33736
     33735     33734     33737     33736     33734     33737     33737     33740     33741
     33737     33740     33742     33737     33740     33743     33738     33737     33739
     33738     33737     33740     33739     33737     33740     33740     33743     33744
     33740     33743     33745     33740     33743     33746     33741     33740     33742
     33741     33740     33743     33742     33740     33743     33743     33746     33747
     33743     33746     33748     33744     33743     33745     33744     33743     33746
     33745     33743     33746     33746     33748     33749     33746     33748     33750
     33747     33746     33748     33748     33750     33751     33748     33750     33752
     33748     33750     33753     33749     33748     33750     33750     33753     33754
     33750     33753     33755     33750     33753     33756     33751     33750     33752
     33751     33750     33753     33752     33750     33753     33753     33756     33757
     33753     33756     33758     33753     33756     33759     33754     33753     33755
     33754     33753     33756     33755     33753     33756     33756     33759     33760
     33756     33759     33761     33756     33759     33762     33757     33756     33758
     33757     33756     33759     33758     33756     33759     33759     33762     33763
     33759     33762     33764     33759     33762     33765     33760     33759     33761
     33760     33759     33762     33761     33759     33762     33762     33765     33766
     33762     33765     33767     33762     33765     33768     33763     33762     33764
     33763     33762     33765     33764     33762     33765     33765     33768     33769
     33765     33768     33770     33765     33768     33771     33766     33765     33767
     33766     33765     33768     33767     33765     33768     33768     33771     33772
     33768     33771     33773     33768     33771     33774     33769     33768     33770
     33769     33768     33771     33770     33768     33771     33772     33771     33773
     33772     33771     33774     33773     33771     33774     33775     33778     33779
     33775     33778     33780     33775     33778     33781     33776     33775     33777
     33776     33775     33778     33777     33775     33778     33778     33781     33782
     33778     33781     33783     33778     33781     33784     33779     33778     33780
     33779     33778     33781     33780     33778     33781     33781     33784     33785
     33781     33784     33786     33781     33784     33787     33782     33781     33783
     33782     33781     33784     33783     33781     33784     33784     33787     33788
     33784     33787     33789     33784     33787     33790     33785     33784     33786
     33785     33784     33787     33786     33784     33787     33787     33790     33791
     33787     33790     33792     33787     33790     33793     33788     33787     33789
     33788     33787     33790     33789     33787     33790     33790     33793     33794
     33790     33793     33795     33790     33793     33796     33791     33790     33792
     33791     33790     33793     33792     33790     33793     33793     33796     33797
     33793     33796     33798     33793     33796     33799     33794     33793     33795
     33794     33793     33796     33795     33793     33796     33796     33799     33800
     33796     33799     33801     33796     33799     33802     33797     33796     33798
     33797     33796     33799     33798     33796     33799     33799     33802     33803
     33799     33802     33804     33799     33802     33805     33800     33799     33801
     33800     33799     33802     33801     33799     33802     33802     33805     33806
     33802     33805     33807     33802     33805     33808     33803     33802     33804
     33803     33802     33805     33804     33802     33805     33805     33808     33809
     33805     33808     33810     33805     33808     33811     33806     33805     33807
     33806     33805     33808     33807     33805     33808     33808     33811     33812
     33808     33811     33813     33808     33811     33814     33809     33808     33810
     33809     33808     33811     33810     33808     33811     33811     33814     33815
     33811     33814     33816     33811     33814     33817     33812     33811     33813
     33812     33811     33814     33813     33811     33814     33815     33814     33816
     33815     33814     33817     33816     33814     33817     33818     33819     33820
     33818     33819     33821     33818     33819     33834     33818     33822     33823
     33818     33822     33824     33818     33822     33825     33818     33826     33827
     33818     33826     33828     33818     33826     33829     33818     33830     33831
     33818     33830     33832     33818     33830     33833     33819     33818     33822
     33819     33818     33826     33819     33818     33830     33819     33834     33835
     33819     33834     33836     33819     33834     33840     33820     33819     33821
     33820     33819     33834     33821     33819     33834     33822     33818     33826
     33822     33818     33830     33823     33822     33824     33823     33822     33825
     33824     33822     33825     33826     33818     33830     33827     33826     33828
     33827     33826     33829     33828     33826     33829     33831     33830     33832
     33831     33830     33833     33832     33830     33833     33834     33840     33837
     33835     33834     33836     33835     33834     33840     33836     33834     33840
     33837     33841     33842     33838     33837     33839     33838     33837     33840
     33838     33837     33841     33839     33837     33840     33839     33837     33841
     33840     33837     33841     33841     33842     33843     33841     33842     33844
     33841     33842     33845     33842     33845     33846     33842     33845     33847
     33842     33845     33853     33843     33842     33844     33843     33842     33845
     33844     33842     33845     33845     33847     33848     33845     33853     33854
     33845     33853     33855     33845     33853     33856     33846     33845     33847
     33846     33845     33853     33847     33845     33853     33847     33848     33849
     33847     33848     33850     33848     33850     33851     33848     33850     33852
     33848     33850     33862     33849     33848     33850     33850     33862     33863
     33850     33862     33864     33850     33862     33865     33851     33850     33852
     33851     33850     33862     33852     33850     33862     33853     33856     33857
     33854     33853     33855     33854     33853     33856     33855     33853     33856
     33856     33857     33858     33856     33857     33859     33857     33859     33860
     33857     33859     33861     33857     33859     33909     33858     33857     33859
     33859     33909     33910     33859     33909     33911     33859     33909     33912
     33860     33859     33861     33860     33859     33909     33861     33859     33909
     33862     33865     33866     33862     33865     33867     33862     33865     33868
     33863     33862     33864     33863     33862     33865     33864     33862     33865
     33865     33868     33869     33865     33868     33870     33865     33868     33871
     33866     33865     33867     33866     33865     33868     33867     33865     33868
     33868     33871     33872     33868     33871     33873     33868     33871     33874
     33869     33868     33870     33869     33868     33871     33870     33868     33871
     33871     33874     33875     33871     33874     33876     33871     33874     33877
     33872     33871     33873     33872     33871     33874     33873     33871     33874
     33874     33877     33878     33874     33877     33879     33874     33877     33880
     33875     33874     33876     33875     33874     33877     33876     33874     33877
     33877     33880     33881     33877     33880     33882     33878     33877     33879
     33878     33877     33880     33879     33877     33880     33880     33882     33883
     33880     33882     33884     33881     33880     33882     33882     33884     33885
     33882     33884     33886     33882     33884     33887     33883     33882     33884
     33884     33887     33888     33884     33887     33889     33884     33887     33890
     33885     33884     33886     33885     33884     33887     33886     33884     33887
     33887     33890     33891     33887     33890     33892     33887     33890     33893
     33888     33887     33889     33888     33887     33890     33889     33887     33890
     33890     33893     33894     33890     33893     33895     33890     33893     33896
     33891     33890     33892     33891     33890     33893     33892     33890     33893
     33893     33896     33897     33893     33896     33898     33893     33896     33899
     33894     33893     33895     33894     33893     33896     33895     33893     33896
     33896     33899     33900     33896     33899     33901     33896     33899     33902
     33897     33896     33898     33897     33896     33899     33898     33896     33899
     33899     33902     33903     33899     33902     33904     33899     33902     33905
     33900     33899     33901     33900     33899     33902     33901     33899     33902
     33902     33905     33906     33902     33905     33907     33902     33905     33908
     33903     33902     33904     33903     33902     33905     33904     33902     33905
     33906     33905     33907     33906     33905     33908     33907     33905     33908
     33909     33912     33913     33909     33912     33914     33909     33912     33915
     33910     33909     33911     33910     33909     33912     33911     33909     33912
     33912     33915     33916     33912     33915     33917     33912     33915     33918
     33913     33912     33914     33913     33912     33915     33914     33912     33915
     33915     33918     33919     33915     33918     33920     33915     33918     33921
     33916     33915     33917     33916     33915     33918     33917     33915     33918
     33918     33921     33922     33918     33921     33923     33918     33921     33924
     33919     33918     33920     33919     33918     33921     33920     33918     33921
     33921     33924     33925     33921     33924     33926     33921     33924     33927
     33922     33921     33923     33922     33921     33924     33923     33921     33924
     33924     33927     33928     33924     33927     33929     33924     33927     33930
     33925     33924     33926     33925     33924     33927     33926     33924     33927
     33927     33930     33931     33927     33930     33932     33927     33930     33933
     33928     33927     33929     33928     33927     33930     33929     33927     33930
     33930     33933     33934     33930     33933     33935     33930     33933     33936
     33931     33930     33932     33931     33930     33933     33932     33930     33933
     33933     33936     33937     33933     33936     33938     33933     33936     33939
     33934     33933     33935     33934     33933     33936     33935     33933     33936
     33936     33939     33940     33936     33939     33941     33936     33939     33942
     33937     33936     33938     33937     33936     33939     33938     33936     33939
     33939     33942     33943     33939     33942     33944     33939     33942     33945
     33940     33939     33941     33940     33939     33942     33941     33939     33942
     33942     33945     33946     33942     33945     33947     33942     33945     33948
     33943     33942     33944     33943     33942     33945     33944     33942     33945
     33945     33948     33949     33945     33948     33950     33945     33948     33951
     33946     33945     33947     33946     33945     33948     33947     33945     33948
     33949     33948     33950     33949     33948     33951     33950     33948     33951
     33952     33956     33957     33952     33956     33958     33952     33956     33959
     33953     33952     33954     33953     33952     33955     33953     33952     33956
     33954     33952     33955     33954     33952     33956     33955     33952     33956
     33956     33959     33960     33956     33959     33961     33956     33959     33966
     33957     33956     33958     33957     33956     33959     33958     33956     33959
     33959     33966     33962     33960     33959     33961     33960     33959     33966
     33961     33959     33966     33962     33965     33967     33963     33962     33964
     33963     33962     33965     33963     33962     33966     33964     33962     33965
     33964     33962     33966     33965     33962     33966     33965     33967     33968
     33965     33967     33969     33965     33967     33970     33967     33970     33971
     33967     33970     33972     33967     33970     33978     33968     33967     33969
     33968     33967     33970     33969     33967     33970     33970     33972     33973
     33970     33978     33979     33970     33978     33980     33970     33978     33981
     33971     33970     33972     33971     33970     33978     33972     33970     33978
     33972     33973     33974     33972     33973     33975     33973     33975     33976
     33973     33975     33977     33973     33975     33987     33974     33973     33975
     33975     33987     33988     33975     33987     33989     33975     33987     33990
     33976     33975     33977     33976     33975     33987     33977     33975     33987
     33978     33981     33982     33979     33978     33980     33979     33978     33981
     33980     33978     33981     33981     33982     33983     33981     33982     33984
     33982     33984     33985     33982     33984     33986     33982     33984     34034
     33983     33982     33984     33984     34034     34035     33984     34034     34036
     33984     34034     34037     33985     33984     33986     33985     33984     34034
     33986     33984     34034     33987     33990     33991     33987     33990     33992
     33987     33990     33993     33988     33987     33989     33988     33987     33990
     33989     33987     33990     33990     33993     33994     33990     33993     33995
     33990     33993     33996     33991     33990     33992     33991     33990     33993
     33992     33990     33993     33993     33996     33997     33993     33996     33998
     33993     33996     33999     33994     33993     33995     33994     33993     33996
     33995     33993     33996     33996     33999     34000     33996     33999     34001
     33996     33999     34002     33997     33996     33998     33997     33996     33999
     33998     33996     33999     33999     34002     34003     33999     34002     34004
     33999     34002     34005     34000     33999     34001     34000     33999     34002
     34001     33999     34002     34002     34005     34006     34002     34005     34007
     34003     34002     34004     34003     34002     34005     34004     34002     34005
     34005     34007     34008     34005     34007     34009     34006     34005     34007
     34007     34009     34010     34007     34009     34011     34007     34009     34012
     34008     34007     34009     34009     34012     34013     34009     34012     34014
     34009     34012     34015     34010     34009     34011     34010     34009     34012
     34011     34009     34012     34012     34015     34016     34012     34015     34017
     34012     34015     34018     34013     34012     34014     34013     34012     34015
     34014     34012     34015     34015     34018     34019     34015     34018     34020
     34015     34018     34021     34016     34015     34017     34016     34015     34018
     34017     34015     34018     34018     34021     34022     34018     34021     34023
     34018     34021     34024     34019     34018     34020     34019     34018     34021
     34020     34018     34021     34021     34024     34025     34021     34024     34026
     34021     34024     34027     34022     34021     34023     34022     34021     34024
     34023     34021     34024     34024     34027     34028     34024     34027     34029
     34024     34027     34030     34025     34024     34026     34025     34024     34027
     34026     34024     34027     34027     34030     34031     34027     34030     34032
     34027     34030     34033     34028     34027     34029     34028     34027     34030
     34029     34027     34030     34031     34030     34032     34031     34030     34033
     34032     34030     34033     34034     34037     34038     34034     34037     34039
     34034     34037     34040     34035     34034     34036     34035     34034     34037
     34036     34034     34037     34037     34040     34041     34037     34040     34042
     34037     34040     34043     34038     34037     34039     34038     34037     34040
     34039     34037     34040     34040     34043     34044     34040     34043     34045
     34040     34043     34046     34041     34040     34042     34041     34040     34043
     34042     34040     34043     34043     34046     34047     34043     34046     34048
     34043     34046     34049     34044     34043     34045     34044     34043     34046
     34045     34043     34046     34046     34049     34050     34046     34049     34051
     34046     34049     34052     34047     34046     34048     34047     34046     34049
     34048     34046     34049     34049     34052     34053     34049     34052     34054
     34049     34052     34055     34050     34049     34051     34050     34049     34052
     34051     34049     34052     34052     34055     34056     34052     34055     34057
     34052     34055     34058     34053     34052     34054     34053     34052     34055
     34054     34052     34055     34055     34058     34059     34055     34058     34060
     34055     34058     34061     34056     34055     34057     34056     34055     34058
     34057     34055     34058     34058     34061     34062     34058     34061     34063
     34058     34061     34064     34059     34058     34060     34059     34058     34061
     34060     34058     34061     34061     34064     34065     34061     34064     34066
     34061     34064     34067     34062     34061     34063     34062     34061     34064
     34063     34061     34064     34064     34067     34068     34064     34067     34069
     34064     34067     34070     34065     34064     34066     34065     34064     34067
     34066     34064     34067     34067     34070     34071     34067     34070     34072
     34067     34070     34073     34068     34067     34069     34068     34067     34070
     34069     34067     34070     34070     34073     34074     34070     34073     34075
     34070     34073     34076     34071     34070     34072     34071     34070     34073
     34072     34070     34073     34074     34073     34075     34074     34073     34076
     34075     34073     34076     34077     34081     34082     34077     34081     34083
     34077     34081     34084     34078     34077     34079     34078     34077     34080
     34078     34077     34081     34079     34077     34080     34079     34077     34081
     34080     34077     34081     34081     34084     34085     34081     34084     34086
     34081     34084     34091     34082     34081     34083     34082     34081     34084
     34083     34081     34084     34084     34091     34087     34085     34084     34086
     34085     34084     34091     34086     34084     34091     34087     34090     34092
     34088     34087     34089     34088     34087     34090     34088     34087     34091
     34089     34087     34090     34089     34087     34091     34090     34087     34091
     34090     34092     34093     34090     34092     34094     34090     34092     34095
     34092     34095     34096     34092     34095     34097     34092     34095     34103
     34093     34092     34094     34093     34092     34095     34094     34092     34095
     34095     34097     34098     34095     34103     34104     34095     34103     34105
     34095     34103     34106     34096     34095     34097     34096     34095     34103
     34097     34095     34103     34097     34098     34099     34097     34098     34100
     34098     34100     34101     34098     34100     34102     34098     34100     34112
     34099     34098     34100     34100     34112     34113     34100     34112     34114
     34100     34112     34115     34101     34100     34102     34101     34100     34112
     34102     34100     34112     34103     34106     34107     34104     34103     34105
     34104     34103     34106     34105     34103     34106     34106     34107     34108
     34106     34107     34109     34107     34109     34110     34107     34109     34111
     34107     34109     34159     34108     34107     34109     34109     34159     34160
     34109     34159     34161     34109     34159     34162     34110     34109     34111
     34110     34109     34159     34111     34109     34159     34112     34115     34116
     34112     34115     34117     34112     34115     34118     34113     34112     34114
     34113     34112     34115     34114     34112     34115     34115     34118     34119
     34115     34118     34120     34115     34118     34121     34116     34115     34117
     34116     34115     34118     34117     34115     34118     34118     34121     34122
     34118     34121     34123     34118     34121     34124     34119     34118     34120
     34119     34118     34121     34120     34118     34121     34121     34124     34125
     34121     34124     34126     34121     34124     34127     34122     34121     34123
     34122     34121     34124     34123     34121     34124     34124     34127     34128
     34124     34127     34129     34124     34127     34130     34125     34124     34126
     34125     34124     34127     34126     34124     34127     34127     34130     34131
     34127     34130     34132     34128     34127     34129     34128     34127     34130
     34129     34127     34130     34130     34132     34133     34130     34132     34134
     34131     34130     34132     34132     34134     34135     34132     34134     34136
     34132     34134     34137     34133     34132     34134     34134     34137     34138
     34134     34137     34139     34134     34137     34140     34135     34134     34136
     34135     34134     34137     34136     34134     34137     34137     34140     34141
     34137     34140     34142     34137     34140     34143     34138     34137     34139
     34138     34137     34140     34139     34137     34140     34140     34143     34144
     34140     34143     34145     34140     34143     34146     34141     34140     34142
     34141     34140     34143     34142     34140     34143     34143     34146     34147
     34143     34146     34148     34143     34146     34149     34144     34143     34145
     34144     34143     34146     34145     34143     34146     34146     34149     34150
     34146     34149     34151     34146     34149     34152     34147     34146     34148
     34147     34146     34149     34148     34146     34149     34149     34152     34153
     34149     34152     34154     34149     34152     34155     34150     34149     34151
     34150     34149     34152     34151     34149     34152     34152     34155     34156
     34152     34155     34157     34152     34155     34158     34153     34152     34154
     34153     34152     34155     34154     34152     34155     34156     34155     34157
     34156     34155     34158     34157     34155     34158     34159     34162     34163
     34159     34162     34164     34159     34162     34165     34160     34159     34161
     34160     34159     34162     34161     34159     34162     34162     34165     34166
     34162     34165     34167     34162     34165     34168     34163     34162     34164
     34163     34162     34165     34164     34162     34165     34165     34168     34169
     34165     34168     34170     34165     34168     34171     34166     34165     34167
     34166     34165     34168     34167     34165     34168     34168     34171     34172
     34168     34171     34173     34168     34171     34174     34169     34168     34170
     34169     34168     34171     34170     34168     34171     34171     34174     34175
     34171     34174     34176     34171     34174     34177     34172     34171     34173
     34172     34171     34174     34173     34171     34174     34174     34177     34178
     34174     34177     34179     34174     34177     34180     34175     34174     34176
     34175     34174     34177     34176     34174     34177     34177     34180     34181
     34177     34180     34182     34177     34180     34183     34178     34177     34179
     34178     34177     34180     34179     34177     34180     34180     34183     34184
     34180     34183     34185     34180     34183     34186     34181     34180     34182
     34181     34180     34183     34182     34180     34183     34183     34186     34187
     34183     34186     34188     34183     34186     34189     34184     34183     34185
     34184     34183     34186     34185     34183     34186     34186     34189     34190
     34186     34189     34191     34186     34189     34192     34187     34186     34188
     34187     34186     34189     34188     34186     34189     34189     34192     34193
     34189     34192     34194     34189     34192     34195     34190     34189     34191
     34190     34189     34192     34191     34189     34192     34192     34195     34196
     34192     34195     34197     34192     34195     34198     34193     34192     34194
     34193     34192     34195     34194     34192     34195     34195     34198     34199
     34195     34198     34200     34195     34198     34201     34196     34195     34197
     34196     34195     34198     34197     34195     34198     34199     34198     34200
     34199     34198     34201     34200     34198     34201     34202     34203     34204
     34202     34203     34205     34202     34203     34218     34202     34206     34207
     34202     34206     34208     34202     34206     34209     34202     34210     34211
     34202     34210     34212     34202     34210     34213     34202     34214     34215
     34202     34214     34216     34202     34214     34217     34203     34202     34206
     34203     34202     34210     34203     34202     34214     34203     34218     34219
     34203     34218     34220     34203     34218     34224     34204     34203     34205
     34204     34203     34218     34205     34203     34218     34206     34202     34210
     34206     34202     34214     34207     34206     34208     34207     34206     34209
     34208     34206     34209     34210     34202     34214     34211     34210     34212
     34211     34210     34213     34212     34210     34213     34215     34214     34216
     34215     34214     34217     34216     34214     34217     34218     34224     34221
     34219     34218     34220     34219     34218     34224     34220     34218     34224
     34221     34225     34226     34222     34221     34223     34222     34221     34224
     34222     34221     34225     34223     34221     34224     34223     34221     34225
     34224     34221     34225     34225     34226     34227     34225     34226     34228
     34225     34226     34229     34226     34229     34230     34226     34229     34231
     34226     34229     34237     34227     34226     34228     34227     34226     34229
     34228     34226     34229     34229     34231     34232     34229     34237     34238
     34229     34237     34239     34229     34237     34240     34230     34229     34231
     34230     34229     34237     34231     34229     34237     34231     34232     34233
     34231     34232     34234     34232     34234     34235     34232     34234     34236
     34232     34234     34246     34233     34232     34234     34234     34246     34247
     34234     34246     34248     34234     34246     34249     34235     34234     34236
     34235     34234     34246     34236     34234     34246     34237     34240     34241
     34238     34237     34239     34238     34237     34240     34239     34237     34240
     34240     34241     34242     34240     34241     34243     34241     34243     34244
     34241     34243     34245     34241     34243     34293     34242     34241     34243
     34243     34293     34294     34243     34293     34295     34243     34293     34296
     34244     34243     34245     34244     34243     34293     34245     34243     34293
     34246     34249     34250     34246     34249     34251     34246     34249     34252
     34247     34246     34248     34247     34246     34249     34248     34246     34249
     34249     34252     34253     34249     34252     34254     34249     34252     34255
     34250     34249     34251     34250     34249     34252     34251     34249     34252
     34252     34255     34256     34252     34255     34257     34252     34255     34258
     34253     34252     34254     34253     34252     34255     34254     34252     34255
     34255     34258     34259     34255     34258     34260     34255     34258     34261
     34256     34255     34257     34256     34255     34258     34257     34255     34258
     34258     34261     34262     34258     34261     34263     34258     34261     34264
     34259     34258     34260     34259     34258     34261     34260     34258     34261
     34261     34264     34265     34261     34264     34266     34262     34261     34263
     34262     34261     34264     34263     34261     34264     34264     34266     34267
     34264     34266     34268     34265     34264     34266     34266     34268     34269
     34266     34268     34270     34266     34268     34271     34267     34266     34268
     34268     34271     34272     34268     34271     34273     34268     34271     34274
     34269     34268     34270     34269     34268     34271     34270     34268     34271
     34271     34274     34275     34271     34274     34276     34271     34274     34277
     34272     34271     34273     34272     34271     34274     34273     34271     34274
     34274     34277     34278     34274     34277     34279     34274     34277     34280
     34275     34274     34276     34275     34274     34277     34276     34274     34277
     34277     34280     34281     34277     34280     34282     34277     34280     34283
     34278     34277     34279     34278     34277     34280     34279     34277     34280
     34280     34283     34284     34280     34283     34285     34280     34283     34286
     34281     34280     34282     34281     34280     34283     34282     34280     34283
     34283     34286     34287     34283     34286     34288     34283     34286     34289
     34284     34283     34285     34284     34283     34286     34285     34283     34286
     34286     34289     34290     34286     34289     34291     34286     34289     34292
     34287     34286     34288     34287     34286     34289     34288     34286     34289
     34290     34289     34291     34290     34289     34292     34291     34289     34292
     34293     34296     34297     34293     34296     34298     34293     34296     34299
     34294     34293     34295     34294     34293     34296     34295     34293     34296
     34296     34299     34300     34296     34299     34301     34296     34299     34302
     34297     34296     34298     34297     34296     34299     34298     34296     34299
     34299     34302     34303     34299     34302     34304     34299     34302     34305
     34300     34299     34301     34300     34299     34302     34301     34299     34302
     34302     34305     34306     34302     34305     34307     34302     34305     34308
     34303     34302     34304     34303     34302     34305     34304     34302     34305
     34305     34308     34309     34305     34308     34310     34305     34308     34311
     34306     34305     34307     34306     34305     34308     34307     34305     34308
     34308     34311     34312     34308     34311     34313     34308     34311     34314
     34309     34308     34310     34309     34308     34311     34310     34308     34311
     34311     34314     34315     34311     34314     34316     34311     34314     34317
     34312     34311     34313     34312     34311     34314     34313     34311     34314
     34314     34317     34318     34314     34317     34319     34314     34317     34320
     34315     34314     34316     34315     34314     34317     34316     34314     34317
     34317     34320     34321     34317     34320     34322     34317     34320     34323
     34318     34317     34319     34318     34317     34320     34319     34317     34320
     34320     34323     34324     34320     34323     34325     34320     34323     34326
     34321     34320     34322     34321     34320     34323     34322     34320     34323
     34323     34326     34327     34323     34326     34328     34323     34326     34329
     34324     34323     34325     34324     34323     34326     34325     34323     34326
     34326     34329     34330     34326     34329     34331     34326     34329     34332
     34327     34326     34328     34327     34326     34329     34328     34326     34329
     34329     34332     34333     34329     34332     34334     34329     34332     34335
     34330     34329     34331     34330     34329     34332     34331     34329     34332
     34333     34332     34334     34333     34332     34335     34334     34332     34335
     34336     34340     34341     34336     34340     34342     34336     34340     34343
     34337     34336     34338     34337     34336     34339     34337     34336     34340
     34338     34336     34339     34338     34336     34340     34339     34336     34340
     34340     34343     34344     34340     34343     34345     34340     34343     34350
     34341     34340     34342     34341     34340     34343     34342     34340     34343
     34343     34350     34346     34344     34343     34345     34344     34343     34350
     34345     34343     34350     34346     34349     34351     34347     34346     34348
     34347     34346     34349     34347     34346     34350     34348     34346     34349
     34348     34346     34350     34349     34346     34350     34349     34351     34352
     34349     34351     34353     34349     34351     34354     34351     34354     34355
     34351     34354     34356     34351     34354     34362     34352     34351     34353
     34352     34351     34354     34353     34351     34354     34354     34356     34357
     34354     34362     34363     34354     34362     34364     34354     34362     34365
     34355     34354     34356     34355     34354     34362     34356     34354     34362
     34356     34357     34358     34356     34357     34359     34357     34359     34360
     34357     34359     34361     34357     34359     34371     34358     34357     34359
     34359     34371     34372     34359     34371     34373     34359     34371     34374
     34360     34359     34361     34360     34359     34371     34361     34359     34371
     34362     34365     34366     34363     34362     34364     34363     34362     34365
     34364     34362     34365     34365     34366     34367     34365     34366     34368
     34366     34368     34369     34366     34368     34370     34366     34368     34418
     34367     34366     34368     34368     34418     34419     34368     34418     34420
     34368     34418     34421     34369     34368     34370     34369     34368     34418
     34370     34368     34418     34371     34374     34375     34371     34374     34376
     34371     34374     34377     34372     34371     34373     34372     34371     34374
     34373     34371     34374     34374     34377     34378     34374     34377     34379
     34374     34377     34380     34375     34374     34376     34375     34374     34377
     34376     34374     34377     34377     34380     34381     34377     34380     34382
     34377     34380     34383     34378     34377     34379     34378     34377     34380
     34379     34377     34380     34380     34383     34384     34380     34383     34385
     34380     34383     34386     34381     34380     34382     34381     34380     34383
     34382     34380     34383     34383     34386     34387     34383     34386     34388
     34383     34386     34389     34384     34383     34385     34384     34383     34386
     34385     34383     34386     34386     34389     34390     34386     34389     34391
     34387     34386     34388     34387     34386     34389     34388     34386     34389
     34389     34391     34392     34389     34391     34393     34390     34389     34391
     34391     34393     34394     34391     34393     34395     34391     34393     34396
     34392     34391     34393     34393     34396     34397     34393     34396     34398
     34393     34396     34399     34394     34393     34395     34394     34393     34396
     34395     34393     34396     34396     34399     34400     34396     34399     34401
     34396     34399     34402     34397     34396     34398     34397     34396     34399
     34398     34396     34399     34399     34402     34403     34399     34402     34404
     34399     34402     34405     34400     34399     34401     34400     34399     34402
     34401     34399     34402     34402     34405     34406     34402     34405     34407
     34402     34405     34408     34403     34402     34404     34403     34402     34405
     34404     34402     34405     34405     34408     34409     34405     34408     34410
     34405     34408     34411     34406     34405     34407     34406     34405     34408
     34407     34405     34408     34408     34411     34412     34408     34411     34413
     34408     34411     34414     34409     34408     34410     34409     34408     34411
     34410     34408     34411     34411     34414     34415     34411     34414     34416
     34411     34414     34417     34412     34411     34413     34412     34411     34414
     34413     34411     34414     34415     34414     34416     34415     34414     34417
     34416     34414     34417     34418     34421     34422     34418     34421     34423
     34418     34421     34424     34419     34418     34420     34419     34418     34421
     34420     34418     34421     34421     34424     34425     34421     34424     34426
     34421     34424     34427     34422     34421     34423     34422     34421     34424
     34423     34421     34424     34424     34427     34428     34424     34427     34429
     34424     34427     34430     34425     34424     34426     34425     34424     34427
     34426     34424     34427     34427     34430     34431     34427     34430     34432
     34427     34430     34433     34428     34427     34429     34428     34427     34430
     34429     34427     34430     34430     34433     34434     34430     34433     34435
     34430     34433     34436     34431     34430     34432     34431     34430     34433
     34432     34430     34433     34433     34436     34437     34433     34436     34438
     34433     34436     34439     34434     34433     34435     34434     34433     34436
     34435     34433     34436     34436     34439     34440     34436     34439     34441
     34436     34439     34442     34437     34436     34438     34437     34436     34439
     34438     34436     34439     34439     34442     34443     34439     34442     34444
     34439     34442     34445     34440     34439     34441     34440     34439     34442
     34441     34439     34442     34442     34445     34446     34442     34445     34447
     34442     34445     34448     34443     34442     34444     34443     34442     34445
     34444     34442     34445     34445     34448     34449     34445     34448     34450
     34445     34448     34451     34446     34445     34447     34446     34445     34448
     34447     34445     34448     34448     34451     34452     34448     34451     34453
     34448     34451     34454     34449     34448     34450     34449     34448     34451
     34450     34448     34451     34451     34454     34455     34451     34454     34456
     34451     34454     34457     34452     34451     34453     34452     34451     34454
     34453     34451     34454     34454     34457     34458     34454     34457     34459
     34454     34457     34460     34455     34454     34456     34455     34454     34457
     34456     34454     34457     34458     34457     34459     34458     34457     34460
     34459     34457     34460     34461     34462     34463     34461     34462     34464
     34461     34462     34477     34461     34465     34466     34461     34465     34467
     34461     34465     34468     34461     34469     34470     34461     34469     34471
     34461     34469     34472     34461     34473     34474     34461     34473     34475
     34461     34473     34476     34462     34461     34465     34462     34461     34469
     34462     34461     34473     34462     34477     34478     34462     34477     34479
     34462     34477     34483     34463     34462     34464     34463     34462     34477
     34464     34462     34477     34465     34461     34469     34465     34461     34473
     34466     34465     34467     34466     34465     34468     34467     34465     34468
     34469     34461     34473     34470     34469     34471     34470     34469     34472
     34471     34469     34472     34474     34473     34475     34474     34473     34476
     34475     34473     34476     34477     34483     34480     34478     34477     34479
     34478     34477     34483     34479     34477     34483     34480     34484     34485
     34481     34480     34482     34481     34480     34483     34481     34480     34484
     34482     34480     34483     34482     34480     34484     34483     34480     34484
     34484     34485     34486     34484     34485     34487     34484     34485     34488
     34485     34488     34489     34485     34488     34490     34485     34488     34496
     34486     34485     34487     34486     34485     34488     34487     34485     34488
     34488     34490     34491     34488     34496     34497     34488     34496     34498
     34488     34496     34499     34489     34488     34490     34489     34488     34496
     34490     34488     34496     34490     34491     34492     34490     34491     34493
     34491     34493     34494     34491     34493     34495     34491     34493     34505
     34492     34491     34493     34493     34505     34506     34493     34505     34507
     34493     34505     34508     34494     34493     34495     34494     34493     34505
     34495     34493     34505     34496     34499     34500     34497     34496     34498
     34497     34496     34499     34498     34496     34499     34499     34500     34501
     34499     34500     34502     34500     34502     34503     34500     34502     34504
     34500     34502     34552     34501     34500     34502     34502     34552     34553
     34502     34552     34554     34502     34552     34555     34503     34502     34504
     34503     34502     34552     34504     34502     34552     34505     34508     34509
     34505     34508     34510     34505     34508     34511     34506     34505     34507
     34506     34505     34508     34507     34505     34508     34508     34511     34512
     34508     34511     34513     34508     34511     34514     34509     34508     34510
     34509     34508     34511     34510     34508     34511     34511     34514     34515
     34511     34514     34516     34511     34514     34517     34512     34511     34513
     34512     34511     34514     34513     34511     34514     34514     34517     34518
     34514     34517     34519     34514     34517     34520     34515     34514     34516
     34515     34514     34517     34516     34514     34517     34517     34520     34521
     34517     34520     34522     34517     34520     34523     34518     34517     34519
     34518     34517     34520     34519     34517     34520     34520     34523     34524
     34520     34523     34525     34521     34520     34522     34521     34520     34523
     34522     34520     34523     34523     34525     34526     34523     34525     34527
     34524     34523     34525     34525     34527     34528     34525     34527     34529
     34525     34527     34530     34526     34525     34527     34527     34530     34531
     34527     34530     34532     34527     34530     34533     34528     34527     34529
     34528     34527     34530     34529     34527     34530     34530     34533     34534
     34530     34533     34535     34530     34533     34536     34531     34530     34532
     34531     34530     34533     34532     34530     34533     34533     34536     34537
     34533     34536     34538     34533     34536     34539     34534     34533     34535
     34534     34533     34536     34535     34533     34536     34536     34539     34540
     34536     34539     34541     34536     34539     34542     34537     34536     34538
     34537     34536     34539     34538     34536     34539     34539     34542     34543
     34539     34542     34544     34539     34542     34545     34540     34539     34541
     34540     34539     34542     34541     34539     34542     34542     34545     34546
     34542     34545     34547     34542     34545     34548     34543     34542     34544
     34543     34542     34545     34544     34542     34545     34545     34548     34549
     34545     34548     34550     34545     34548     34551     34546     34545     34547
     34546     34545     34548     34547     34545     34548     34549     34548     34550
     34549     34548     34551     34550     34548     34551     34552     34555     34556
     34552     34555     34557     34552     34555     34558     34553     34552     34554
     34553     34552     34555     34554     34552     34555     34555     34558     34559
     34555     34558     34560     34555     34558     34561     34556     34555     34557
     34556     34555     34558     34557     34555     34558     34558     34561     34562
     34558     34561     34563     34558     34561     34564     34559     34558     34560
     34559     34558     34561     34560     34558     34561     34561     34564     34565
     34561     34564     34566     34561     34564     34567     34562     34561     34563
     34562     34561     34564     34563     34561     34564     34564     34567     34568
     34564     34567     34569     34564     34567     34570     34565     34564     34566
     34565     34564     34567     34566     34564     34567     34567     34570     34571
     34567     34570     34572     34567     34570     34573     34568     34567     34569
     34568     34567     34570     34569     34567     34570     34570     34573     34574
     34570     34573     34575     34570     34573     34576     34571     34570     34572
     34571     34570     34573     34572     34570     34573     34573     34576     34577
     34573     34576     34578     34573     34576     34579     34574     34573     34575
     34574     34573     34576     34575     34573     34576     34576     34579     34580
     34576     34579     34581     34576     34579     34582     34577     34576     34578
     34577     34576     34579     34578     34576     34579     34579     34582     34583
     34579     34582     34584     34579     34582     34585     34580     34579     34581
     34580     34579     34582     34581     34579     34582     34582     34585     34586
     34582     34585     34587     34582     34585     34588     34583     34582     34584
     34583     34582     34585     34584     34582     34585     34585     34588     34589
     34585     34588     34590     34585     34588     34591     34586     34585     34587
     34586     34585     34588     34587     34585     34588     34588     34591     34592
     34588     34591     34593     34588     34591     34594     34589     34588     34590
     34589     34588     34591     34590     34588     34591     34592     34591     34593
     34592     34591     34594     34593     34591     34594     34595     34596     34597
     34595     34596     34598     34595     34596     34611     34595     34599     34600
     34595     34599     34601     34595     34599     34602     34595     34603     34604
     34595     34603     34605     34595     34603     34606     34595     34607     34608
     34595     34607     34609     34595     34607     34610     34596     34595     34599
     34596     34595     34603     34596     34595     34607     34596     34611     34612
     34596     34611     34613     34596     34611     34617     34597     34596     34598
     34597     34596     34611     34598     34596     34611     34599     34595     34603
     34599     34595     34607     34600     34599     34601     34600     34599     34602
     34601     34599     34602     34603     34595     34607     34604     34603     34605
     34604     34603     34606     34605     34603     34606     34608     34607     34609
     34608     34607     34610     34609     34607     34610     34611     34617     34614
     34612     34611     34613     34612     34611     34617     34613     34611     34617
     34614     34618     34619     34615     34614     34616     34615     34614     34617
     34615     34614     34618     34616     34614     34617     34616     34614     34618
     34617     34614     34618     34618     34619     34620     34618     34619     34621
     34618     34619     34622     34619     34622     34623     34619     34622     34624
     34619     34622     34630     34620     34619     34621     34620     34619     34622
     34621     34619     34622     34622     34624     34625     34622     34630     34631
     34622     34630     34632     34622     34630     34633     34623     34622     34624
     34623     34622     34630     34624     34622     34630     34624     34625     34626
     34624     34625     34627     34625     34627     34628     34625     34627     34629
     34625     34627     34639     34626     34625     34627     34627     34639     34640
     34627     34639     34641     34627     34639     34642     34628     34627     34629
     34628     34627     34639     34629     34627     34639     34630     34633     34634
     34631     34630     34632     34631     34630     34633     34632     34630     34633
     34633     34634     34635     34633     34634     34636     34634     34636     34637
     34634     34636     34638     34634     34636     34686     34635     34634     34636
     34636     34686     34687     34636     34686     34688     34636     34686     34689
     34637     34636     34638     34637     34636     34686     34638     34636     34686
     34639     34642     34643     34639     34642     34644     34639     34642     34645
     34640     34639     34641     34640     34639     34642     34641     34639     34642
     34642     34645     34646     34642     34645     34647     34642     34645     34648
     34643     34642     34644     34643     34642     34645     34644     34642     34645
     34645     34648     34649     34645     34648     34650     34645     34648     34651
     34646     34645     34647     34646     34645     34648     34647     34645     34648
     34648     34651     34652     34648     34651     34653     34648     34651     34654
     34649     34648     34650     34649     34648     34651     34650     34648     34651
     34651     34654     34655     34651     34654     34656     34651     34654     34657
     34652     34651     34653     34652     34651     34654     34653     34651     34654
     34654     34657     34658     34654     34657     34659     34655     34654     34656
     34655     34654     34657     34656     34654     34657     34657     34659     34660
     34657     34659     34661     34658     34657     34659     34659     34661     34662
     34659     34661     34663     34659     34661     34664     34660     34659     34661
     34661     34664     34665     34661     34664     34666     34661     34664     34667
     34662     34661     34663     34662     34661     34664     34663     34661     34664
     34664     34667     34668     34664     34667     34669     34664     34667     34670
     34665     34664     34666     34665     34664     34667     34666     34664     34667
     34667     34670     34671     34667     34670     34672     34667     34670     34673
     34668     34667     34669     34668     34667     34670     34669     34667     34670
     34670     34673     34674     34670     34673     34675     34670     34673     34676
     34671     34670     34672     34671     34670     34673     34672     34670     34673
     34673     34676     34677     34673     34676     34678     34673     34676     34679
     34674     34673     34675     34674     34673     34676     34675     34673     34676
     34676     34679     34680     34676     34679     34681     34676     34679     34682
     34677     34676     34678     34677     34676     34679     34678     34676     34679
     34679     34682     34683     34679     34682     34684     34679     34682     34685
     34680     34679     34681     34680     34679     34682     34681     34679     34682
     34683     34682     34684     34683     34682     34685     34684     34682     34685
     34686     34689     34690     34686     34689     34691     34686     34689     34692
     34687     34686     34688     34687     34686     34689     34688     34686     34689
     34689     34692     34693     34689     34692     34694     34689     34692     34695
     34690     34689     34691     34690     34689     34692     34691     34689     34692
     34692     34695     34696     34692     34695     34697     34692     34695     34698
     34693     34692     34694     34693     34692     34695     34694     34692     34695
     34695     34698     34699     34695     34698     34700     34695     34698     34701
     34696     34695     34697     34696     34695     34698     34697     34695     34698
     34698     34701     34702     34698     34701     34703     34698     34701     34704
     34699     34698     34700     34699     34698     34701     34700     34698     34701
     34701     34704     34705     34701     34704     34706     34701     34704     34707
     34702     34701     34703     34702     34701     34704     34703     34701     34704
     34704     34707     34708     34704     34707     34709     34704     34707     34710
     34705     34704     34706     34705     34704     34707     34706     34704     34707
     34707     34710     34711     34707     34710     34712     34707     34710     34713
     34708     34707     34709     34708     34707     34710     34709     34707     34710
     34710     34713     34714     34710     34713     34715     34710     34713     34716
     34711     34710     34712     34711     34710     34713     34712     34710     34713
     34713     34716     34717     34713     34716     34718     34713     34716     34719
     34714     34713     34715     34714     34713     34716     34715     34713     34716
     34716     34719     34720     34716     34719     34721     34716     34719     34722
     34717     34716     34718     34717     34716     34719     34718     34716     34719
     34719     34722     34723     34719     34722     34724     34719     34722     34725
     34720     34719     34721     34720     34719     34722     34721     34719     34722
     34722     34725     34726     34722     34725     34727     34722     34725     34728
     34723     34722     34724     34723     34722     34725     34724     34722     34725
     34726     34725     34727     34726     34725     34728     34727     34725     34728
     34729     34730     34731     34729     34730     34732     34729     34730     34745
     34729     34733     34734     34729     34733     34735     34729     34733     34736
     34729     34737     34738     34729     34737     34739     34729     34737     34740
     34729     34741     34742     34729     34741     34743     34729     34741     34744
     34730     34729     34733     34730     34729     34737     34730     34729     34741
     34730     34745     34746     34730     34745     34747     34730     34745     34751
     34731     34730     34732     34731     34730     34745     34732     34730     34745
     34733     34729     34737     34733     34729     34741     34734     34733     34735
     34734     34733     34736     34735     34733     34736     34737     34729     34741
     34738     34737     34739     34738     34737     34740     34739     34737     34740
     34742     34741     34743     34742     34741     34744     34743     34741     34744
     34745     34751     34748     34746     34745     34747     34746     34745     34751
     34747     34745     34751     34748     34752     34753     34749     34748     34750
     34749     34748     34751     34749     34748     34752     34750     34748     34751
     34750     34748     34752     34751     34748     34752     34752     34753     34754
     34752     34753     34755     34752     34753     34756     34753     34756     34757
     34753     34756     34758     34753     34756     34764     34754     34753     34755
     34754     34753     34756     34755     34753     34756     34756     34758     34759
     34756     34764     34765     34756     34764     34766     34756     34764     34767
     34757     34756     34758     34757     34756     34764     34758     34756     34764
     34758     34759     34760     34758     34759     34761     34759     34761     34762
     34759     34761     34763     34759     34761     34773     34760     34759     34761
     34761     34773     34774     34761     34773     34775     34761     34773     34776
     34762     34761     34763     34762     34761     34773     34763     34761     34773
     34764     34767     34768     34765     34764     34766     34765     34764     34767
     34766     34764     34767     34767     34768     34769     34767     34768     34770
     34768     34770     34771     34768     34770     34772     34768     34770     34820
     34769     34768     34770     34770     34820     34821     34770     34820     34822
     34770     34820     34823     34771     34770     34772     34771     34770     34820
     34772     34770     34820     34773     34776     34777     34773     34776     34778
     34773     34776     34779     34774     34773     34775     34774     34773     34776
     34775     34773     34776     34776     34779     34780     34776     34779     34781
     34776     34779     34782     34777     34776     34778     34777     34776     34779
     34778     34776     34779     34779     34782     34783     34779     34782     34784
     34779     34782     34785     34780     34779     34781     34780     34779     34782
     34781     34779     34782     34782     34785     34786     34782     34785     34787
     34782     34785     34788     34783     34782     34784     34783     34782     34785
     34784     34782     34785     34785     34788     34789     34785     34788     34790
     34785     34788     34791     34786     34785     34787     34786     34785     34788
     34787     34785     34788     34788     34791     34792     34788     34791     34793
     34789     34788     34790     34789     34788     34791     34790     34788     34791
     34791     34793     34794     34791     34793     34795     34792     34791     34793
     34793     34795     34796     34793     34795     34797     34793     34795     34798
     34794     34793     34795     34795     34798     34799     34795     34798     34800
     34795     34798     34801     34796     34795     34797     34796     34795     34798
     34797     34795     34798     34798     34801     34802     34798     34801     34803
     34798     34801     34804     34799     34798     34800     34799     34798     34801
     34800     34798     34801     34801     34804     34805     34801     34804     34806
     34801     34804     34807     34802     34801     34803     34802     34801     34804
     34803     34801     34804     34804     34807     34808     34804     34807     34809
     34804     34807     34810     34805     34804     34806     34805     34804     34807
     34806     34804     34807     34807     34810     34811     34807     34810     34812
     34807     34810     34813     34808     34807     34809     34808     34807     34810
     34809     34807     34810     34810     34813     34814     34810     34813     34815
     34810     34813     34816     34811     34810     34812     34811     34810     34813
     34812     34810     34813     34813     34816     34817     34813     34816     34818
     34813     34816     34819     34814     34813     34815     34814     34813     34816
     34815     34813     34816     34817     34816     34818     34817     34816     34819
     34818     34816     34819     34820     34823     34824     34820     34823     34825
     34820     34823     34826     34821     34820     34822     34821     34820     34823
     34822     34820     34823     34823     34826     34827     34823     34826     34828
     34823     34826     34829     34824     34823     34825     34824     34823     34826
     34825     34823     34826     34826     34829     34830     34826     34829     34831
     34826     34829     34832     34827     34826     34828     34827     34826     34829
     34828     34826     34829     34829     34832     34833     34829     34832     34834
     34829     34832     34835     34830     34829     34831     34830     34829     34832
     34831     34829     34832     34832     34835     34836     34832     34835     34837
     34832     34835     34838     34833     34832     34834     34833     34832     34835
     34834     34832     34835     34835     34838     34839     34835     34838     34840
     34835     34838     34841     34836     34835     34837     34836     34835     34838
     34837     34835     34838     34838     34841     34842     34838     34841     34843
     34838     34841     34844     34839     34838     34840     34839     34838     34841
     34840     34838     34841     34841     34844     34845     34841     34844     34846
     34841     34844     34847     34842     34841     34843     34842     34841     34844
     34843     34841     34844     34844     34847     34848     34844     34847     34849
     34844     34847     34850     34845     34844     34846     34845     34844     34847
     34846     34844     34847     34847     34850     34851     34847     34850     34852
     34847     34850     34853     34848     34847     34849     34848     34847     34850
     34849     34847     34850     34850     34853     34854     34850     34853     34855
     34850     34853     34856     34851     34850     34852     34851     34850     34853
     34852     34850     34853     34853     34856     34857     34853     34856     34858
     34853     34856     34859     34854     34853     34855     34854     34853     34856
     34855     34853     34856     34856     34859     34860     34856     34859     34861
     34856     34859     34862     34857     34856     34858     34857     34856     34859
     34858     34856     34859     34860     34859     34861     34860     34859     34862
     34861     34859     34862     34863     34864     34865     34863     34864     34866
     34863     34864     34879     34863     34867     34868     34863     34867     34869
     34863     34867     34870     34863     34871     34872     34863     34871     34873
     34863     34871     34874     34863     34875     34876     34863     34875     34877
     34863     34875     34878     34864     34863     34867     34864     34863     34871
     34864     34863     34875     34864     34879     34880     34864     34879     34881
     34864     34879     34885     34865     34864     34866     34865     34864     34879
     34866     34864     34879     34867     34863     34871     34867     34863     34875
     34868     34867     34869     34868     34867     34870     34869     34867     34870
     34871     34863     34875     34872     34871     34873     34872     34871     34874
     34873     34871     34874     34876     34875     34877     34876     34875     34878
     34877     34875     34878     34879     34885     34882     34880     34879     34881
     34880     34879     34885     34881     34879     34885     34882     34886     34887
     34883     34882     34884     34883     34882     34885     34883     34882     34886
     34884     34882     34885     34884     34882     34886     34885     34882     34886
     34886     34887     34888     34886     34887     34889     34886     34887     34890
     34887     34890     34891     34887     34890     34892     34887     34890     34898
     34888     34887     34889     34888     34887     34890     34889     34887     34890
     34890     34892     34893     34890     34898     34899     34890     34898     34900
     34890     34898     34901     34891     34890     34892     34891     34890     34898
     34892     34890     34898     34892     34893     34894     34892     34893     34895
     34893     34895     34896     34893     34895     34897     34893     34895     34907
     34894     34893     34895     34895     34907     34908     34895     34907     34909
     34895     34907     34910     34896     34895     34897     34896     34895     34907
     34897     34895     34907     34898     34901     34902     34899     34898     34900
     34899     34898     34901     34900     34898     34901     34901     34902     34903
     34901     34902     34904     34902     34904     34905     34902     34904     34906
     34902     34904     34954     34903     34902     34904     34904     34954     34955
     34904     34954     34956     34904     34954     34957     34905     34904     34906
     34905     34904     34954     34906     34904     34954     34907     34910     34911
     34907     34910     34912     34907     34910     34913     34908     34907     34909
     34908     34907     34910     34909     34907     34910     34910     34913     34914
     34910     34913     34915     34910     34913     34916     34911     34910     34912
     34911     34910     34913     34912     34910     34913     34913     34916     34917
     34913     34916     34918     34913     34916     34919     34914     34913     34915
     34914     34913     34916     34915     34913     34916     34916     34919     34920
     34916     34919     34921     34916     34919     34922     34917     34916     34918
     34917     34916     34919     34918     34916     34919     34919     34922     34923
     34919     34922     34924     34919     34922     34925     34920     34919     34921
     34920     34919     34922     34921     34919     34922     34922     34925     34926
     34922     34925     34927     34923     34922     34924     34923     34922     34925
     34924     34922     34925     34925     34927     34928     34925     34927     34929
     34926     34925     34927     34927     34929     34930     34927     34929     34931
     34927     34929     34932     34928     34927     34929     34929     34932     34933
     34929     34932     34934     34929     34932     34935     34930     34929     34931
     34930     34929     34932     34931     34929     34932     34932     34935     34936
     34932     34935     34937     34932     34935     34938     34933     34932     34934
     34933     34932     34935     34934     34932     34935     34935     34938     34939
     34935     34938     34940     34935     34938     34941     34936     34935     34937
     34936     34935     34938     34937     34935     34938     34938     34941     34942
     34938     34941     34943     34938     34941     34944     34939     34938     34940
     34939     34938     34941     34940     34938     34941     34941     34944     34945
     34941     34944     34946     34941     34944     34947     34942     34941     34943
     34942     34941     34944     34943     34941     34944     34944     34947     34948
     34944     34947     34949     34944     34947     34950     34945     34944     34946
     34945     34944     34947     34946     34944     34947     34947     34950     34951
     34947     34950     34952     34947     34950     34953     34948     34947     34949
     34948     34947     34950     34949     34947     34950     34951     34950     34952
     34951     34950     34953     34952     34950     34953     34954     34957     34958
     34954     34957     34959     34954     34957     34960     34955     34954     34956
     34955     34954     34957     34956     34954     34957     34957     34960     34961
     34957     34960     34962     34957     34960     34963     34958     34957     34959
     34958     34957     34960     34959     34957     34960     34960     34963     34964
     34960     34963     34965     34960     34963     34966     34961     34960     34962
     34961     34960     34963     34962     34960     34963     34963     34966     34967
     34963     34966     34968     34963     34966     34969     34964     34963     34965
     34964     34963     34966     34965     34963     34966     34966     34969     34970
     34966     34969     34971     34966     34969     34972     34967     34966     34968
     34967     34966     34969     34968     34966     34969     34969     34972     34973
     34969     34972     34974     34969     34972     34975     34970     34969     34971
     34970     34969     34972     34971     34969     34972     34972     34975     34976
     34972     34975     34977     34972     34975     34978     34973     34972     34974
     34973     34972     34975     34974     34972     34975     34975     34978     34979
     34975     34978     34980     34975     34978     34981     34976     34975     34977
     34976     34975     34978     34977     34975     34978     34978     34981     34982
     34978     34981     34983     34978     34981     34984     34979     34978     34980
     34979     34978     34981     34980     34978     34981     34981     34984     34985
     34981     34984     34986     34981     34984     34987     34982     34981     34983
     34982     34981     34984     34983     34981     34984     34984     34987     34988
     34984     34987     34989     34984     34987     34990     34985     34984     34986
     34985     34984     34987     34986     34984     34987     34987     34990     34991
     34987     34990     34992     34987     34990     34993     34988     34987     34989
     34988     34987     34990     34989     34987     34990     34990     34993     34994
     34990     34993     34995     34990     34993     34996     34991     34990     34992
     34991     34990     34993     34992     34990     34993     34994     34993     34995
     34994     34993     34996     34995     34993     34996     34997     35001     35002
     34997     35001     35003     34997     35001     35004     34998     34997     34999
     34998     34997     35000     34998     34997     35001     34999     34997     35000
     34999     34997     35001     35000     34997     35001     35001     35004     35005
     35001     35004     35006     35001     35004     35011     35002     35001     35003
     35002     35001     35004     35003     35001     35004     35004     35011     35007
     35005     35004     35006     35005     35004     35011     35006     35004     35011
     35007     35010     35012     35008     35007     35009     35008     35007     35010
     35008     35007     35011     35009     35007     35010     35009     35007     35011
     35010     35007     35011     35010     35012     35013     35010     35012     35014
     35010     35012     35015     35012     35015     35016     35012     35015     35017
     35012     35015     35023     35013     35012     35014     35013     35012     35015
     35014     35012     35015     35015     35017     35018     35015     35023     35024
     35015     35023     35025     35015     35023     35026     35016     35015     35017
     35016     35015     35023     35017     35015     35023     35017     35018     35019
     35017     35018     35020     35018     35020     35021     35018     35020     35022
     35018     35020     35032     35019     35018     35020     35020     35032     35033
     35020     35032     35034     35020     35032     35035     35021     35020     35022
     35021     35020     35032     35022     35020     35032     35023     35026     35027
     35024     35023     35025     35024     35023     35026     35025     35023     35026
     35026     35027     35028     35026     35027     35029     35027     35029     35030
     35027     35029     35031     35027     35029     35079     35028     35027     35029
     35029     35079     35080     35029     35079     35081     35029     35079     35082
     35030     35029     35031     35030     35029     35079     35031     35029     35079
     35032     35035     35036     35032     35035     35037     35032     35035     35038
     35033     35032     35034     35033     35032     35035     35034     35032     35035
     35035     35038     35039     35035     35038     35040     35035     35038     35041
     35036     35035     35037     35036     35035     35038     35037     35035     35038
     35038     35041     35042     35038     35041     35043     35038     35041     35044
     35039     35038     35040     35039     35038     35041     35040     35038     35041
     35041     35044     35045     35041     35044     35046     35041     35044     35047
     35042     35041     35043     35042     35041     35044     35043     35041     35044
     35044     35047     35048     35044     35047     35049     35044     35047     35050
     35045     35044     35046     35045     35044     35047     35046     35044     35047
     35047     35050     35051     35047     35050     35052     35048     35047     35049
     35048     35047     35050     35049     35047     35050     35050     35052     35053
     35050     35052     35054     35051     35050     35052     35052     35054     35055
     35052     35054     35056     35052     35054     35057     35053     35052     35054
     35054     35057     35058     35054     35057     35059     35054     35057     35060
     35055     35054     35056     35055     35054     35057     35056     35054     35057
     35057     35060     35061     35057     35060     35062     35057     35060     35063
     35058     35057     35059     35058     35057     35060     35059     35057     35060
     35060     35063     35064     35060     35063     35065     35060     35063     35066
     35061     35060     35062     35061     35060     35063     35062     35060     35063
     35063     35066     35067     35063     35066     35068     35063     35066     35069
     35064     35063     35065     35064     35063     35066     35065     35063     35066
     35066     35069     35070     35066     35069     35071     35066     35069     35072
     35067     35066     35068     35067     35066     35069     35068     35066     35069
     35069     35072     35073     35069     35072     35074     35069     35072     35075
     35070     35069     35071     35070     35069     35072     35071     35069     35072
     35072     35075     35076     35072     35075     35077     35072     35075     35078
     35073     35072     35074     35073     35072     35075     35074     35072     35075
     35076     35075     35077     35076     35075     35078     35077     35075     35078
     35079     35082     35083     35079     35082     35084     35079     35082     35085
     35080     35079     35081     35080     35079     35082     35081     35079     35082
     35082     35085     35086     35082     35085     35087     35082     35085     35088
     35083     35082     35084     35083     35082     35085     35084     35082     35085
     35085     35088     35089     35085     35088     35090     35085     35088     35091
     35086     35085     35087     35086     35085     35088     35087     35085     35088
     35088     35091     35092     35088     35091     35093     35088     35091     35094
     35089     35088     35090     35089     35088     35091     35090     35088     35091
     35091     35094     35095     35091     35094     35096     35091     35094     35097
     35092     35091     35093     35092     35091     35094     35093     35091     35094
     35094     35097     35098     35094     35097     35099     35094     35097     35100
     35095     35094     35096     35095     35094     35097     35096     35094     35097
     35097     35100     35101     35097     35100     35102     35097     35100     35103
     35098     35097     35099     35098     35097     35100     35099     35097     35100
     35100     35103     35104     35100     35103     35105     35100     35103     35106
     35101     35100     35102     35101     35100     35103     35102     35100     35103
     35103     35106     35107     35103     35106     35108     35103     35106     35109
     35104     35103     35105     35104     35103     35106     35105     35103     35106
     35106     35109     35110     35106     35109     35111     35106     35109     35112
     35107     35106     35108     35107     35106     35109     35108     35106     35109
     35109     35112     35113     35109     35112     35114     35109     35112     35115
     35110     35109     35111     35110     35109     35112     35111     35109     35112
     35112     35115     35116     35112     35115     35117     35112     35115     35118
     35113     35112     35114     35113     35112     35115     35114     35112     35115
     35115     35118     35119     35115     35118     35120     35115     35118     35121
     35116     35115     35117     35116     35115     35118     35117     35115     35118
     35119     35118     35120     35119     35118     35121     35120     35118     35121
     35122     35126     35127     35122     35126     35128     35122     35126     35129
     35123     35122     35124     35123     35122     35125     35123     35122     35126
     35124     35122     35125     35124     35122     35126     35125     35122     35126
     35126     35129     35130     35126     35129     35131     35126     35129     35136
     35127     35126     35128     35127     35126     35129     35128     35126     35129
     35129     35136     35132     35130     35129     35131     35130     35129     35136
     35131     35129     35136     35132     35135     35137     35133     35132     35134
     35133     35132     35135     35133     35132     35136     35134     35132     35135
     35134     35132     35136     35135     35132     35136     35135     35137     35138
     35135     35137     35139     35135     35137     35140     35137     35140     35141
     35137     35140     35142     35137     35140     35148     35138     35137     35139
     35138     35137     35140     35139     35137     35140     35140     35142     35143
     35140     35148     35149     35140     35148     35150     35140     35148     35151
     35141     35140     35142     35141     35140     35148     35142     35140     35148
     35142     35143     35144     35142     35143     35145     35143     35145     35146
     35143     35145     35147     35143     35145     35157     35144     35143     35145
     35145     35157     35158     35145     35157     35159     35145     35157     35160
     35146     35145     35147     35146     35145     35157     35147     35145     35157
     35148     35151     35152     35149     35148     35150     35149     35148     35151
     35150     35148     35151     35151     35152     35153     35151     35152     35154
     35152     35154     35155     35152     35154     35156     35152     35154     35204
     35153     35152     35154     35154     35204     35205     35154     35204     35206
     35154     35204     35207     35155     35154     35156     35155     35154     35204
     35156     35154     35204     35157     35160     35161     35157     35160     35162
     35157     35160     35163     35158     35157     35159     35158     35157     35160
     35159     35157     35160     35160     35163     35164     35160     35163     35165
     35160     35163     35166     35161     35160     35162     35161     35160     35163
     35162     35160     35163     35163     35166     35167     35163     35166     35168
     35163     35166     35169     35164     35163     35165     35164     35163     35166
     35165     35163     35166     35166     35169     35170     35166     35169     35171
     35166     35169     35172     35167     35166     35168     35167     35166     35169
     35168     35166     35169     35169     35172     35173     35169     35172     35174
     35169     35172     35175     35170     35169     35171     35170     35169     35172
     35171     35169     35172     35172     35175     35176     35172     35175     35177
     35173     35172     35174     35173     35172     35175     35174     35172     35175
     35175     35177     35178     35175     35177     35179     35176     35175     35177
     35177     35179     35180     35177     35179     35181     35177     35179     35182
     35178     35177     35179     35179     35182     35183     35179     35182     35184
     35179     35182     35185     35180     35179     35181     35180     35179     35182
     35181     35179     35182     35182     35185     35186     35182     35185     35187
     35182     35185     35188     35183     35182     35184     35183     35182     35185
     35184     35182     35185     35185     35188     35189     35185     35188     35190
     35185     35188     35191     35186     35185     35187     35186     35185     35188
     35187     35185     35188     35188     35191     35192     35188     35191     35193
     35188     35191     35194     35189     35188     35190     35189     35188     35191
     35190     35188     35191     35191     35194     35195     35191     35194     35196
     35191     35194     35197     35192     35191     35193     35192     35191     35194
     35193     35191     35194     35194     35197     35198     35194     35197     35199
     35194     35197     35200     35195     35194     35196     35195     35194     35197
     35196     35194     35197     35197     35200     35201     35197     35200     35202
     35197     35200     35203     35198     35197     35199     35198     35197     35200
     35199     35197     35200     35201     35200     35202     35201     35200     35203
     35202     35200     35203     35204     35207     35208     35204     35207     35209
     35204     35207     35210     35205     35204     35206     35205     35204     35207
     35206     35204     35207     35207     35210     35211     35207     35210     35212
     35207     35210     35213     35208     35207     35209     35208     35207     35210
     35209     35207     35210     35210     35213     35214     35210     35213     35215
     35210     35213     35216     35211     35210     35212     35211     35210     35213
     35212     35210     35213     35213     35216     35217     35213     35216     35218
     35213     35216     35219     35214     35213     35215     35214     35213     35216
     35215     35213     35216     35216     35219     35220     35216     35219     35221
     35216     35219     35222     35217     35216     35218     35217     35216     35219
     35218     35216     35219     35219     35222     35223     35219     35222     35224
     35219     35222     35225     35220     35219     35221     35220     35219     35222
     35221     35219     35222     35222     35225     35226     35222     35225     35227
     35222     35225     35228     35223     35222     35224     35223     35222     35225
     35224     35222     35225     35225     35228     35229     35225     35228     35230
     35225     35228     35231     35226     35225     35227     35226     35225     35228
     35227     35225     35228     35228     35231     35232     35228     35231     35233
     35228     35231     35234     35229     35228     35230     35229     35228     35231
     35230     35228     35231     35231     35234     35235     35231     35234     35236
     35231     35234     35237     35232     35231     35233     35232     35231     35234
     35233     35231     35234     35234     35237     35238     35234     35237     35239
     35234     35237     35240     35235     35234     35236     35235     35234     35237
     35236     35234     35237     35237     35240     35241     35237     35240     35242
     35237     35240     35243     35238     35237     35239     35238     35237     35240
     35239     35237     35240     35240     35243     35244     35240     35243     35245
     35240     35243     35246     35241     35240     35242     35241     35240     35243
     35242     35240     35243     35244     35243     35245     35244     35243     35246
     35245     35243     35246     35247     35251     35252     35247     35251     35253
     35247     35251     35254     35248     35247     35249     35248     35247     35250
     35248     35247     35251     35249     35247     35250     35249     35247     35251
     35250     35247     35251     35251     35254     35255     35251     35254     35256
     35251     35254     35261     35252     35251     35253     35252     35251     35254
     35253     35251     35254     35254     35261     35257     35255     35254     35256
     35255     35254     35261     35256     35254     35261     35257     35260     35262
     35258     35257     35259     35258     35257     35260     35258     35257     35261
     35259     35257     35260     35259     35257     35261     35260     35257     35261
     35260     35262     35263     35260     35262     35264     35260     35262     35265
     35262     35265     35266     35262     35265     35267     35262     35265     35273
     35263     35262     35264     35263     35262     35265     35264     35262     35265
     35265     35267     35268     35265     35273     35274     35265     35273     35275
     35265     35273     35276     35266     35265     35267     35266     35265     35273
     35267     35265     35273     35267     35268     35269     35267     35268     35270
     35268     35270     35271     35268     35270     35272     35268     35270     35282
     35269     35268     35270     35270     35282     35283     35270     35282     35284
     35270     35282     35285     35271     35270     35272     35271     35270     35282
     35272     35270     35282     35273     35276     35277     35274     35273     35275
     35274     35273     35276     35275     35273     35276     35276     35277     35278
     35276     35277     35279     35277     35279     35280     35277     35279     35281
     35277     35279     35329     35278     35277     35279     35279     35329     35330
     35279     35329     35331     35279     35329     35332     35280     35279     35281
     35280     35279     35329     35281     35279     35329     35282     35285     35286
     35282     35285     35287     35282     35285     35288     35283     35282     35284
     35283     35282     35285     35284     35282     35285     35285     35288     35289
     35285     35288     35290     35285     35288     35291     35286     35285     35287
     35286     35285     35288     35287     35285     35288     35288     35291     35292
     35288     35291     35293     35288     35291     35294     35289     35288     35290
     35289     35288     35291     35290     35288     35291     35291     35294     35295
     35291     35294     35296     35291     35294     35297     35292     35291     35293
     35292     35291     35294     35293     35291     35294     35294     35297     35298
     35294     35297     35299     35294     35297     35300     35295     35294     35296
     35295     35294     35297     35296     35294     35297     35297     35300     35301
     35297     35300     35302     35298     35297     35299     35298     35297     35300
     35299     35297     35300     35300     35302     35303     35300     35302     35304
     35301     35300     35302     35302     35304     35305     35302     35304     35306
     35302     35304     35307     35303     35302     35304     35304     35307     35308
     35304     35307     35309     35304     35307     35310     35305     35304     35306
     35305     35304     35307     35306     35304     35307     35307     35310     35311
     35307     35310     35312     35307     35310     35313     35308     35307     35309
     35308     35307     35310     35309     35307     35310     35310     35313     35314
     35310     35313     35315     35310     35313     35316     35311     35310     35312
     35311     35310     35313     35312     35310     35313     35313     35316     35317
     35313     35316     35318     35313     35316     35319     35314     35313     35315
     35314     35313     35316     35315     35313     35316     35316     35319     35320
     35316     35319     35321     35316     35319     35322     35317     35316     35318
     35317     35316     35319     35318     35316     35319     35319     35322     35323
     35319     35322     35324     35319     35322     35325     35320     35319     35321
     35320     35319     35322     35321     35319     35322     35322     35325     35326
     35322     35325     35327     35322     35325     35328     35323     35322     35324
     35323     35322     35325     35324     35322     35325     35326     35325     35327
     35326     35325     35328     35327     35325     35328     35329     35332     35333
     35329     35332     35334     35329     35332     35335     35330     35329     35331
     35330     35329     35332     35331     35329     35332     35332     35335     35336
     35332     35335     35337     35332     35335     35338     35333     35332     35334
     35333     35332     35335     35334     35332     35335     35335     35338     35339
     35335     35338     35340     35335     35338     35341     35336     35335     35337
     35336     35335     35338     35337     35335     35338     35338     35341     35342
     35338     35341     35343     35338     35341     35344     35339     35338     35340
     35339     35338     35341     35340     35338     35341     35341     35344     35345
     35341     35344     35346     35341     35344     35347     35342     35341     35343
     35342     35341     35344     35343     35341     35344     35344     35347     35348
     35344     35347     35349     35344     35347     35350     35345     35344     35346
     35345     35344     35347     35346     35344     35347     35347     35350     35351
     35347     35350     35352     35347     35350     35353     35348     35347     35349
     35348     35347     35350     35349     35347     35350     35350     35353     35354
     35350     35353     35355     35350     35353     35356     35351     35350     35352
     35351     35350     35353     35352     35350     35353     35353     35356     35357
     35353     35356     35358     35353     35356     35359     35354     35353     35355
     35354     35353     35356     35355     35353     35356     35356     35359     35360
     35356     35359     35361     35356     35359     35362     35357     35356     35358
     35357     35356     35359     35358     35356     35359     35359     35362     35363
     35359     35362     35364     35359     35362     35365     35360     35359     35361
     35360     35359     35362     35361     35359     35362     35362     35365     35366
     35362     35365     35367     35362     35365     35368     35363     35362     35364
     35363     35362     35365     35364     35362     35365     35365     35368     35369
     35365     35368     35370     35365     35368     35371     35366     35365     35367
     35366     35365     35368     35367     35365     35368     35369     35368     35370
     35369     35368     35371     35370     35368     35371     35372     35376     35377
     35372     35376     35378     35372     35376     35379     35373     35372     35374
     35373     35372     35375     35373     35372     35376     35374     35372     35375
     35374     35372     35376     35375     35372     35376     35376     35379     35380
     35376     35379     35381     35376     35379     35386     35377     35376     35378
     35377     35376     35379     35378     35376     35379     35379     35386     35382
     35380     35379     35381     35380     35379     35386     35381     35379     35386
     35382     35385     35387     35383     35382     35384     35383     35382     35385
     35383     35382     35386     35384     35382     35385     35384     35382     35386
     35385     35382     35386     35385     35387     35388     35385     35387     35389
     35385     35387     35390     35387     35390     35391     35387     35390     35392
     35387     35390     35398     35388     35387     35389     35388     35387     35390
     35389     35387     35390     35390     35392     35393     35390     35398     35399
     35390     35398     35400     35390     35398     35401     35391     35390     35392
     35391     35390     35398     35392     35390     35398     35392     35393     35394
     35392     35393     35395     35393     35395     35396     35393     35395     35397
     35393     35395     35407     35394     35393     35395     35395     35407     35408
     35395     35407     35409     35395     35407     35410     35396     35395     35397
     35396     35395     35407     35397     35395     35407     35398     35401     35402
     35399     35398     35400     35399     35398     35401     35400     35398     35401
     35401     35402     35403     35401     35402     35404     35402     35404     35405
     35402     35404     35406     35402     35404     35454     35403     35402     35404
     35404     35454     35455     35404     35454     35456     35404     35454     35457
     35405     35404     35406     35405     35404     35454     35406     35404     35454
     35407     35410     35411     35407     35410     35412     35407     35410     35413
     35408     35407     35409     35408     35407     35410     35409     35407     35410
     35410     35413     35414     35410     35413     35415     35410     35413     35416
     35411     35410     35412     35411     35410     35413     35412     35410     35413
     35413     35416     35417     35413     35416     35418     35413     35416     35419
     35414     35413     35415     35414     35413     35416     35415     35413     35416
     35416     35419     35420     35416     35419     35421     35416     35419     35422
     35417     35416     35418     35417     35416     35419     35418     35416     35419
     35419     35422     35423     35419     35422     35424     35419     35422     35425
     35420     35419     35421     35420     35419     35422     35421     35419     35422
     35422     35425     35426     35422     35425     35427     35423     35422     35424
     35423     35422     35425     35424     35422     35425     35425     35427     35428
     35425     35427     35429     35426     35425     35427     35427     35429     35430
     35427     35429     35431     35427     35429     35432     35428     35427     35429
     35429     35432     35433     35429     35432     35434     35429     35432     35435
     35430     35429     35431     35430     35429     35432     35431     35429     35432
     35432     35435     35436     35432     35435     35437     35432     35435     35438
     35433     35432     35434     35433     35432     35435     35434     35432     35435
     35435     35438     35439     35435     35438     35440     35435     35438     35441
     35436     35435     35437     35436     35435     35438     35437     35435     35438
     35438     35441     35442     35438     35441     35443     35438     35441     35444
     35439     35438     35440     35439     35438     35441     35440     35438     35441
     35441     35444     35445     35441     35444     35446     35441     35444     35447
     35442     35441     35443     35442     35441     35444     35443     35441     35444
     35444     35447     35448     35444     35447     35449     35444     35447     35450
     35445     35444     35446     35445     35444     35447     35446     35444     35447
     35447     35450     35451     35447     35450     35452     35447     35450     35453
     35448     35447     35449     35448     35447     35450     35449     35447     35450
     35451     35450     35452     35451     35450     35453     35452     35450     35453
     35454     35457     35458     35454     35457     35459     35454     35457     35460
     35455     35454     35456     35455     35454     35457     35456     35454     35457
     35457     35460     35461     35457     35460     35462     35457     35460     35463
     35458     35457     35459     35458     35457     35460     35459     35457     35460
     35460     35463     35464     35460     35463     35465     35460     35463     35466
     35461     35460     35462     35461     35460     35463     35462     35460     35463
     35463     35466     35467     35463     35466     35468     35463     35466     35469
     35464     35463     35465     35464     35463     35466     35465     35463     35466
     35466     35469     35470     35466     35469     35471     35466     35469     35472
     35467     35466     35468     35467     35466     35469     35468     35466     35469
     35469     35472     35473     35469     35472     35474     35469     35472     35475
     35470     35469     35471     35470     35469     35472     35471     35469     35472
     35472     35475     35476     35472     35475     35477     35472     35475     35478
     35473     35472     35474     35473     35472     35475     35474     35472     35475
     35475     35478     35479     35475     35478     35480     35475     35478     35481
     35476     35475     35477     35476     35475     35478     35477     35475     35478
     35478     35481     35482     35478     35481     35483     35478     35481     35484
     35479     35478     35480     35479     35478     35481     35480     35478     35481
     35481     35484     35485     35481     35484     35486     35481     35484     35487
     35482     35481     35483     35482     35481     35484     35483     35481     35484
     35484     35487     35488     35484     35487     35489     35484     35487     35490
     35485     35484     35486     35485     35484     35487     35486     35484     35487
     35487     35490     35491     35487     35490     35492     35487     35490     35493
     35488     35487     35489     35488     35487     35490     35489     35487     35490
     35490     35493     35494     35490     35493     35495     35490     35493     35496
     35491     35490     35492     35491     35490     35493     35492     35490     35493
     35494     35493     35495     35494     35493     35496     35495     35493     35496
     35497     35498     35499     35497     35498     35500     35497     35498     35513
     35497     35501     35502     35497     35501     35503     35497     35501     35504
     35497     35505     35506     35497     35505     35507     35497     35505     35508
     35497     35509     35510     35497     35509     35511     35497     35509     35512
     35498     35497     35501     35498     35497     35505     35498     35497     35509
     35498     35513     35514     35498     35513     35515     35498     35513     35519
     35499     35498     35500     35499     35498     35513     35500     35498     35513
     35501     35497     35505     35501     35497     35509     35502     35501     35503
     35502     35501     35504     35503     35501     35504     35505     35497     35509
     35506     35505     35507     35506     35505     35508     35507     35505     35508
     35510     35509     35511     35510     35509     35512     35511     35509     35512
     35513     35519     35516     35514     35513     35515     35514     35513     35519
     35515     35513     35519     35516     35520     35521     35517     35516     35518
     35517     35516     35519     35517     35516     35520     35518     35516     35519
     35518     35516     35520     35519     35516     35520     35520     35521     35522
     35520     35521     35523     35520     35521     35524     35521     35524     35525
     35521     35524     35526     35521     35524     35532     35522     35521     35523
     35522     35521     35524     35523     35521     35524     35524     35526     35527
     35524     35532     35533     35524     35532     35534     35524     35532     35535
     35525     35524     35526     35525     35524     35532     35526     35524     35532
     35526     35527     35528     35526     35527     35529     35527     35529     35530
     35527     35529     35531     35527     35529     35541     35528     35527     35529
     35529     35541     35542     35529     35541     35543     35529     35541     35544
     35530     35529     35531     35530     35529     35541     35531     35529     35541
     35532     35535     35536     35533     35532     35534     35533     35532     35535
     35534     35532     35535     35535     35536     35537     35535     35536     35538
     35536     35538     35539     35536     35538     35540     35536     35538     35588
     35537     35536     35538     35538     35588     35589     35538     35588     35590
     35538     35588     35591     35539     35538     35540     35539     35538     35588
     35540     35538     35588     35541     35544     35545     35541     35544     35546
     35541     35544     35547     35542     35541     35543     35542     35541     35544
     35543     35541     35544     35544     35547     35548     35544     35547     35549
     35544     35547     35550     35545     35544     35546     35545     35544     35547
     35546     35544     35547     35547     35550     35551     35547     35550     35552
     35547     35550     35553     35548     35547     35549     35548     35547     35550
     35549     35547     35550     35550     35553     35554     35550     35553     35555
     35550     35553     35556     35551     35550     35552     35551     35550     35553
     35552     35550     35553     35553     35556     35557     35553     35556     35558
     35553     35556     35559     35554     35553     35555     35554     35553     35556
     35555     35553     35556     35556     35559     35560     35556     35559     35561
     35557     35556     35558     35557     35556     35559     35558     35556     35559
     35559     35561     35562     35559     35561     35563     35560     35559     35561
     35561     35563     35564     35561     35563     35565     35561     35563     35566
     35562     35561     35563     35563     35566     35567     35563     35566     35568
     35563     35566     35569     35564     35563     35565     35564     35563     35566
     35565     35563     35566     35566     35569     35570     35566     35569     35571
     35566     35569     35572     35567     35566     35568     35567     35566     35569
     35568     35566     35569     35569     35572     35573     35569     35572     35574
     35569     35572     35575     35570     35569     35571     35570     35569     35572
     35571     35569     35572     35572     35575     35576     35572     35575     35577
     35572     35575     35578     35573     35572     35574     35573     35572     35575
     35574     35572     35575     35575     35578     35579     35575     35578     35580
     35575     35578     35581     35576     35575     35577     35576     35575     35578
     35577     35575     35578     35578     35581     35582     35578     35581     35583
     35578     35581     35584     35579     35578     35580     35579     35578     35581
     35580     35578     35581     35581     35584     35585     35581     35584     35586
     35581     35584     35587     35582     35581     35583     35582     35581     35584
     35583     35581     35584     35585     35584     35586     35585     35584     35587
     35586     35584     35587     35588     35591     35592     35588     35591     35593
     35588     35591     35594     35589     35588     35590     35589     35588     35591
     35590     35588     35591     35591     35594     35595     35591     35594     35596
     35591     35594     35597     35592     35591     35593     35592     35591     35594
     35593     35591     35594     35594     35597     35598     35594     35597     35599
     35594     35597     35600     35595     35594     35596     35595     35594     35597
     35596     35594     35597     35597     35600     35601     35597     35600     35602
     35597     35600     35603     35598     35597     35599     35598     35597     35600
     35599     35597     35600     35600     35603     35604     35600     35603     35605
     35600     35603     35606     35601     35600     35602     35601     35600     35603
     35602     35600     35603     35603     35606     35607     35603     35606     35608
     35603     35606     35609     35604     35603     35605     35604     35603     35606
     35605     35603     35606     35606     35609     35610     35606     35609     35611
     35606     35609     35612     35607     35606     35608     35607     35606     35609
     35608     35606     35609     35609     35612     35613     35609     35612     35614
     35609     35612     35615     35610     35609     35611     35610     35609     35612
     35611     35609     35612     35612     35615     35616     35612     35615     35617
     35612     35615     35618     35613     35612     35614     35613     35612     35615
     35614     35612     35615     35615     35618     35619     35615     35618     35620
     35615     35618     35621     35616     35615     35617     35616     35615     35618
     35617     35615     35618     35618     35621     35622     35618     35621     35623
     35618     35621     35624     35619     35618     35620     35619     35618     35621
     35620     35618     35621     35621     35624     35625     35621     35624     35626
     35621     35624     35627     35622     35621     35623     35622     35621     35624
     35623     35621     35624     35624     35627     35628     35624     35627     35629
     35624     35627     35630     35625     35624     35626     35625     35624     35627
     35626     35624     35627     35628     35627     35629     35628     35627     35630
     35629     35627     35630     35631     35635     35636     35631     35635     35637
     35631     35635     35638     35632     35631     35633     35632     35631     35634
     35632     35631     35635     35633     35631     35634     35633     35631     35635
     35634     35631     35635     35635     35638     35639     35635     35638     35640
     35635     35638     35645     35636     35635     35637     35636     35635     35638
     35637     35635     35638     35638     35645     35641     35639     35638     35640
     35639     35638     35645     35640     35638     35645     35641     35644     35646
     35642     35641     35643     35642     35641     35644     35642     35641     35645
     35643     35641     35644     35643     35641     35645     35644     35641     35645
     35644     35646     35647     35644     35646     35648     35644     35646     35649
     35646     35649     35650     35646     35649     35651     35646     35649     35657
     35647     35646     35648     35647     35646     35649     35648     35646     35649
     35649     35651     35652     35649     35657     35658     35649     35657     35659
     35649     35657     35660     35650     35649     35651     35650     35649     35657
     35651     35649     35657     35651     35652     35653     35651     35652     35654
     35652     35654     35655     35652     35654     35656     35652     35654     35666
     35653     35652     35654     35654     35666     35667     35654     35666     35668
     35654     35666     35669     35655     35654     35656     35655     35654     35666
     35656     35654     35666     35657     35660     35661     35658     35657     35659
     35658     35657     35660     35659     35657     35660     35660     35661     35662
     35660     35661     35663     35661     35663     35664     35661     35663     35665
     35661     35663     35713     35662     35661     35663     35663     35713     35714
     35663     35713     35715     35663     35713     35716     35664     35663     35665
     35664     35663     35713     35665     35663     35713     35666     35669     35670
     35666     35669     35671     35666     35669     35672     35667     35666     35668
     35667     35666     35669     35668     35666     35669     35669     35672     35673
     35669     35672     35674     35669     35672     35675     35670     35669     35671
     35670     35669     35672     35671     35669     35672     35672     35675     35676
     35672     35675     35677     35672     35675     35678     35673     35672     35674
     35673     35672     35675     35674     35672     35675     35675     35678     35679
     35675     35678     35680     35675     35678     35681     35676     35675     35677
     35676     35675     35678     35677     35675     35678     35678     35681     35682
     35678     35681     35683     35678     35681     35684     35679     35678     35680
     35679     35678     35681     35680     35678     35681     35681     35684     35685
     35681     35684     35686     35682     35681     35683     35682     35681     35684
     35683     35681     35684     35684     35686     35687     35684     35686     35688
     35685     35684     35686     35686     35688     35689     35686     35688     35690
     35686     35688     35691     35687     35686     35688     35688     35691     35692
     35688     35691     35693     35688     35691     35694     35689     35688     35690
     35689     35688     35691     35690     35688     35691     35691     35694     35695
     35691     35694     35696     35691     35694     35697     35692     35691     35693
     35692     35691     35694     35693     35691     35694     35694     35697     35698
     35694     35697     35699     35694     35697     35700     35695     35694     35696
     35695     35694     35697     35696     35694     35697     35697     35700     35701
     35697     35700     35702     35697     35700     35703     35698     35697     35699
     35698     35697     35700     35699     35697     35700     35700     35703     35704
     35700     35703     35705     35700     35703     35706     35701     35700     35702
     35701     35700     35703     35702     35700     35703     35703     35706     35707
     35703     35706     35708     35703     35706     35709     35704     35703     35705
     35704     35703     35706     35705     35703     35706     35706     35709     35710
     35706     35709     35711     35706     35709     35712     35707     35706     35708
     35707     35706     35709     35708     35706     35709     35710     35709     35711
     35710     35709     35712     35711     35709     35712     35713     35716     35717
     35713     35716     35718     35713     35716     35719     35714     35713     35715
     35714     35713     35716     35715     35713     35716     35716     35719     35720
     35716     35719     35721     35716     35719     35722     35717     35716     35718
     35717     35716     35719     35718     35716     35719     35719     35722     35723
     35719     35722     35724     35719     35722     35725     35720     35719     35721
     35720     35719     35722     35721     35719     35722     35722     35725     35726
     35722     35725     35727     35722     35725     35728     35723     35722     35724
     35723     35722     35725     35724     35722     35725     35725     35728     35729
     35725     35728     35730     35725     35728     35731     35726     35725     35727
     35726     35725     35728     35727     35725     35728     35728     35731     35732
     35728     35731     35733     35728     35731     35734     35729     35728     35730
     35729     35728     35731     35730     35728     35731     35731     35734     35735
     35731     35734     35736     35731     35734     35737     35732     35731     35733
     35732     35731     35734     35733     35731     35734     35734     35737     35738
     35734     35737     35739     35734     35737     35740     35735     35734     35736
     35735     35734     35737     35736     35734     35737     35737     35740     35741
     35737     35740     35742     35737     35740     35743     35738     35737     35739
     35738     35737     35740     35739     35737     35740     35740     35743     35744
     35740     35743     35745     35740     35743     35746     35741     35740     35742
     35741     35740     35743     35742     35740     35743     35743     35746     35747
     35743     35746     35748     35743     35746     35749     35744     35743     35745
     35744     35743     35746     35745     35743     35746     35746     35749     35750
     35746     35749     35751     35746     35749     35752     35747     35746     35748
     35747     35746     35749     35748     35746     35749     35749     35752     35753
     35749     35752     35754     35749     35752     35755     35750     35749     35751
     35750     35749     35752     35751     35749     35752     35753     35752     35754
     35753     35752     35755     35754     35752     35755     35756     35757     35758
     35756     35757     35759     35756     35757     35772     35756     35760     35761
     35756     35760     35762     35756     35760     35763     35756     35764     35765
     35756     35764     35766     35756     35764     35767     35756     35768     35769
     35756     35768     35770     35756     35768     35771     35757     35756     35760
     35757     35756     35764     35757     35756     35768     35757     35772     35773
     35757     35772     35774     35757     35772     35778     35758     35757     35759
     35758     35757     35772     35759     35757     35772     35760     35756     35764
     35760     35756     35768     35761     35760     35762     35761     35760     35763
     35762     35760     35763     35764     35756     35768     35765     35764     35766
     35765     35764     35767     35766     35764     35767     35769     35768     35770
     35769     35768     35771     35770     35768     35771     35772     35778     35775
     35773     35772     35774     35773     35772     35778     35774     35772     35778
     35775     35779     35780     35776     35775     35777     35776     35775     35778
     35776     35775     35779     35777     35775     35778     35777     35775     35779
     35778     35775     35779     35779     35780     35781     35779     35780     35782
     35779     35780     35783     35780     35783     35784     35780     35783     35785
     35780     35783     35791     35781     35780     35782     35781     35780     35783
     35782     35780     35783     35783     35785     35786     35783     35791     35792
     35783     35791     35793     35783     35791     35794     35784     35783     35785
     35784     35783     35791     35785     35783     35791     35785     35786     35787
     35785     35786     35788     35786     35788     35789     35786     35788     35790
     35786     35788     35800     35787     35786     35788     35788     35800     35801
     35788     35800     35802     35788     35800     35803     35789     35788     35790
     35789     35788     35800     35790     35788     35800     35791     35794     35795
     35792     35791     35793     35792     35791     35794     35793     35791     35794
     35794     35795     35796     35794     35795     35797     35795     35797     35798
     35795     35797     35799     35795     35797     35847     35796     35795     35797
     35797     35847     35848     35797     35847     35849     35797     35847     35850
     35798     35797     35799     35798     35797     35847     35799     35797     35847
     35800     35803     35804     35800     35803     35805     35800     35803     35806
     35801     35800     35802     35801     35800     35803     35802     35800     35803
     35803     35806     35807     35803     35806     35808     35803     35806     35809
     35804     35803     35805     35804     35803     35806     35805     35803     35806
     35806     35809     35810     35806     35809     35811     35806     35809     35812
     35807     35806     35808     35807     35806     35809     35808     35806     35809
     35809     35812     35813     35809     35812     35814     35809     35812     35815
     35810     35809     35811     35810     35809     35812     35811     35809     35812
     35812     35815     35816     35812     35815     35817     35812     35815     35818
     35813     35812     35814     35813     35812     35815     35814     35812     35815
     35815     35818     35819     35815     35818     35820     35816     35815     35817
     35816     35815     35818     35817     35815     35818     35818     35820     35821
     35818     35820     35822     35819     35818     35820     35820     35822     35823
     35820     35822     35824     35820     35822     35825     35821     35820     35822
     35822     35825     35826     35822     35825     35827     35822     35825     35828
     35823     35822     35824     35823     35822     35825     35824     35822     35825
     35825     35828     35829     35825     35828     35830     35825     35828     35831
     35826     35825     35827     35826     35825     35828     35827     35825     35828
     35828     35831     35832     35828     35831     35833     35828     35831     35834
     35829     35828     35830     35829     35828     35831     35830     35828     35831
     35831     35834     35835     35831     35834     35836     35831     35834     35837
     35832     35831     35833     35832     35831     35834     35833     35831     35834
     35834     35837     35838     35834     35837     35839     35834     35837     35840
     35835     35834     35836     35835     35834     35837     35836     35834     35837
     35837     35840     35841     35837     35840     35842     35837     35840     35843
     35838     35837     35839     35838     35837     35840     35839     35837     35840
     35840     35843     35844     35840     35843     35845     35840     35843     35846
     35841     35840     35842     35841     35840     35843     35842     35840     35843
     35844     35843     35845     35844     35843     35846     35845     35843     35846
     35847     35850     35851     35847     35850     35852     35847     35850     35853
     35848     35847     35849     35848     35847     35850     35849     35847     35850
     35850     35853     35854     35850     35853     35855     35850     35853     35856
     35851     35850     35852     35851     35850     35853     35852     35850     35853
     35853     35856     35857     35853     35856     35858     35853     35856     35859
     35854     35853     35855     35854     35853     35856     35855     35853     35856
     35856     35859     35860     35856     35859     35861     35856     35859     35862
     35857     35856     35858     35857     35856     35859     35858     35856     35859
     35859     35862     35863     35859     35862     35864     35859     35862     35865
     35860     35859     35861     35860     35859     35862     35861     35859     35862
     35862     35865     35866     35862     35865     35867     35862     35865     35868
     35863     35862     35864     35863     35862     35865     35864     35862     35865
     35865     35868     35869     35865     35868     35870     35865     35868     35871
     35866     35865     35867     35866     35865     35868     35867     35865     35868
     35868     35871     35872     35868     35871     35873     35868     35871     35874
     35869     35868     35870     35869     35868     35871     35870     35868     35871
     35871     35874     35875     35871     35874     35876     35871     35874     35877
     35872     35871     35873     35872     35871     35874     35873     35871     35874
     35874     35877     35878     35874     35877     35879     35874     35877     35880
     35875     35874     35876     35875     35874     35877     35876     35874     35877
     35877     35880     35881     35877     35880     35882     35877     35880     35883
     35878     35877     35879     35878     35877     35880     35879     35877     35880
     35880     35883     35884     35880     35883     35885     35880     35883     35886
     35881     35880     35882     35881     35880     35883     35882     35880     35883
     35883     35886     35887     35883     35886     35888     35883     35886     35889
     35884     35883     35885     35884     35883     35886     35885     35883     35886
     35887     35886     35888     35887     35886     35889     35888     35886     35889
     35890     35894     35895     35890     35894     35896     35890     35894     35897
     35891     35890     35892     35891     35890     35893     35891     35890     35894
     35892     35890     35893     35892     35890     35894     35893     35890     35894
     35894     35897     35898     35894     35897     35899     35894     35897     35904
     35895     35894     35896     35895     35894     35897     35896     35894     35897
     35897     35904     35900     35898     35897     35899     35898     35897     35904
     35899     35897     35904     35900     35903     35905     35901     35900     35902
     35901     35900     35903     35901     35900     35904     35902     35900     35903
     35902     35900     35904     35903     35900     35904     35903     35905     35906
     35903     35905     35907     35903     35905     35908     35905     35908     35909
     35905     35908     35910     35905     35908     35916     35906     35905     35907
     35906     35905     35908     35907     35905     35908     35908     35910     35911
     35908     35916     35917     35908     35916     35918     35908     35916     35919
     35909     35908     35910     35909     35908     35916     35910     35908     35916
     35910     35911     35912     35910     35911     35913     35911     35913     35914
     35911     35913     35915     35911     35913     35925     35912     35911     35913
     35913     35925     35926     35913     35925     35927     35913     35925     35928
     35914     35913     35915     35914     35913     35925     35915     35913     35925
     35916     35919     35920     35917     35916     35918     35917     35916     35919
     35918     35916     35919     35919     35920     35921     35919     35920     35922
     35920     35922     35923     35920     35922     35924     35920     35922     35972
     35921     35920     35922     35922     35972     35973     35922     35972     35974
     35922     35972     35975     35923     35922     35924     35923     35922     35972
     35924     35922     35972     35925     35928     35929     35925     35928     35930
     35925     35928     35931     35926     35925     35927     35926     35925     35928
     35927     35925     35928     35928     35931     35932     35928     35931     35933
     35928     35931     35934     35929     35928     35930     35929     35928     35931
     35930     35928     35931     35931     35934     35935     35931     35934     35936
     35931     35934     35937     35932     35931     35933     35932     35931     35934
     35933     35931     35934     35934     35937     35938     35934     35937     35939
     35934     35937     35940     35935     35934     35936     35935     35934     35937
     35936     35934     35937     35937     35940     35941     35937     35940     35942
     35937     35940     35943     35938     35937     35939     35938     35937     35940
     35939     35937     35940     35940     35943     35944     35940     35943     35945
     35941     35940     35942     35941     35940     35943     35942     35940     35943
     35943     35945     35946     35943     35945     35947     35944     35943     35945
     35945     35947     35948     35945     35947     35949     35945     35947     35950
     35946     35945     35947     35947     35950     35951     35947     35950     35952
     35947     35950     35953     35948     35947     35949     35948     35947     35950
     35949     35947     35950     35950     35953     35954     35950     35953     35955
     35950     35953     35956     35951     35950     35952     35951     35950     35953
     35952     35950     35953     35953     35956     35957     35953     35956     35958
     35953     35956     35959     35954     35953     35955     35954     35953     35956
     35955     35953     35956     35956     35959     35960     35956     35959     35961
     35956     35959     35962     35957     35956     35958     35957     35956     35959
     35958     35956     35959     35959     35962     35963     35959     35962     35964
     35959     35962     35965     35960     35959     35961     35960     35959     35962
     35961     35959     35962     35962     35965     35966     35962     35965     35967
     35962     35965     35968     35963     35962     35964     35963     35962     35965
     35964     35962     35965     35965     35968     35969     35965     35968     35970
     35965     35968     35971     35966     35965     35967     35966     35965     35968
     35967     35965     35968     35969     35968     35970     35969     35968     35971
     35970     35968     35971     35972     35975     35976     35972     35975     35977
     35972     35975     35978     35973     35972     35974     35973     35972     35975
     35974     35972     35975     35975     35978     35979     35975     35978     35980
     35975     35978     35981     35976     35975     35977     35976     35975     35978
     35977     35975     35978     35978     35981     35982     35978     35981     35983
     35978     35981     35984     35979     35978     35980     35979     35978     35981
     35980     35978     35981     35981     35984     35985     35981     35984     35986
     35981     35984     35987     35982     35981     35983     35982     35981     35984
     35983     35981     35984     35984     35987     35988     35984     35987     35989
     35984     35987     35990     35985     35984     35986     35985     35984     35987
     35986     35984     35987     35987     35990     35991     35987     35990     35992
     35987     35990     35993     35988     35987     35989     35988     35987     35990
     35989     35987     35990     35990     35993     35994     35990     35993     35995
     35990     35993     35996     35991     35990     35992     35991     35990     35993
     35992     35990     35993     35993     35996     35997     35993     35996     35998
     35993     35996     35999     35994     35993     35995     35994     35993     35996
     35995     35993     35996     35996     35999     36000     35996     35999     36001
     35996     35999     36002     35997     35996     35998     35997     35996     35999
     35998     35996     35999     35999     36002     36003     35999     36002     36004
     35999     36002     36005     36000     35999     36001     36000     35999     36002
     36001     35999     36002     36002     36005     36006     36002     36005     36007
     36002     36005     36008     36003     36002     36004     36003     36002     36005
     36004     36002     36005     36005     36008     36009     36005     36008     36010
     36005     36008     36011     36006     36005     36007     36006     36005     36008
     36007     36005     36008     36008     36011     36012     36008     36011     36013
     36008     36011     36014     36009     36008     36010     36009     36008     36011
     36010     36008     36011     36012     36011     36013     36012     36011     36014
     36013     36011     36014     36015     36019     36020     36015     36019     36021
     36015     36019     36022     36016     36015     36017     36016     36015     36018
     36016     36015     36019     36017     36015     36018     36017     36015     36019
     36018     36015     36019     36019     36022     36023     36019     36022     36024
     36019     36022     36029     36020     36019     36021     36020     36019     36022
     36021     36019     36022     36022     36029     36025     36023     36022     36024
     36023     36022     36029     36024     36022     36029     36025     36028     36030
     36026     36025     36027     36026     36025     36028     36026     36025     36029
     36027     36025     36028     36027     36025     36029     36028     36025     36029
     36028     36030     36031     36028     36030     36032     36028     36030     36033
     36030     36033     36034     36030     36033     36035     36030     36033     36041
     36031     36030     36032     36031     36030     36033     36032     36030     36033
     36033     36035     36036     36033     36041     36042     36033     36041     36043
     36033     36041     36044     36034     36033     36035     36034     36033     36041
     36035     36033     36041     36035     36036     36037     36035     36036     36038
     36036     36038     36039     36036     36038     36040     36036     36038     36050
     36037     36036     36038     36038     36050     36051     36038     36050     36052
     36038     36050     36053     36039     36038     36040     36039     36038     36050
     36040     36038     36050     36041     36044     36045     36042     36041     36043
     36042     36041     36044     36043     36041     36044     36044     36045     36046
     36044     36045     36047     36045     36047     36048     36045     36047     36049
     36045     36047     36097     36046     36045     36047     36047     36097     36098
     36047     36097     36099     36047     36097     36100     36048     36047     36049
     36048     36047     36097     36049     36047     36097     36050     36053     36054
     36050     36053     36055     36050     36053     36056     36051     36050     36052
     36051     36050     36053     36052     36050     36053     36053     36056     36057
     36053     36056     36058     36053     36056     36059     36054     36053     36055
     36054     36053     36056     36055     36053     36056     36056     36059     36060
     36056     36059     36061     36056     36059     36062     36057     36056     36058
     36057     36056     36059     36058     36056     36059     36059     36062     36063
     36059     36062     36064     36059     36062     36065     36060     36059     36061
     36060     36059     36062     36061     36059     36062     36062     36065     36066
     36062     36065     36067     36062     36065     36068     36063     36062     36064
     36063     36062     36065     36064     36062     36065     36065     36068     36069
     36065     36068     36070     36066     36065     36067     36066     36065     36068
     36067     36065     36068     36068     36070     36071     36068     36070     36072
     36069     36068     36070     36070     36072     36073     36070     36072     36074
     36070     36072     36075     36071     36070     36072     36072     36075     36076
     36072     36075     36077     36072     36075     36078     36073     36072     36074
     36073     36072     36075     36074     36072     36075     36075     36078     36079
     36075     36078     36080     36075     36078     36081     36076     36075     36077
     36076     36075     36078     36077     36075     36078     36078     36081     36082
     36078     36081     36083     36078     36081     36084     36079     36078     36080
     36079     36078     36081     36080     36078     36081     36081     36084     36085
     36081     36084     36086     36081     36084     36087     36082     36081     36083
     36082     36081     36084     36083     36081     36084     36084     36087     36088
     36084     36087     36089     36084     36087     36090     36085     36084     36086
     36085     36084     36087     36086     36084     36087     36087     36090     36091
     36087     36090     36092     36087     36090     36093     36088     36087     36089
     36088     36087     36090     36089     36087     36090     36090     36093     36094
     36090     36093     36095     36090     36093     36096     36091     36090     36092
     36091     36090     36093     36092     36090     36093     36094     36093     36095
     36094     36093     36096     36095     36093     36096     36097     36100     36101
     36097     36100     36102     36097     36100     36103     36098     36097     36099
     36098     36097     36100     36099     36097     36100     36100     36103     36104
     36100     36103     36105     36100     36103     36106     36101     36100     36102
     36101     36100     36103     36102     36100     36103     36103     36106     36107
     36103     36106     36108     36103     36106     36109     36104     36103     36105
     36104     36103     36106     36105     36103     36106     36106     36109     36110
     36106     36109     36111     36106     36109     36112     36107     36106     36108
     36107     36106     36109     36108     36106     36109     36109     36112     36113
     36109     36112     36114     36109     36112     36115     36110     36109     36111
     36110     36109     36112     36111     36109     36112     36112     36115     36116
     36112     36115     36117     36112     36115     36118     36113     36112     36114
     36113     36112     36115     36114     36112     36115     36115     36118     36119
     36115     36118     36120     36115     36118     36121     36116     36115     36117
     36116     36115     36118     36117     36115     36118     36118     36121     36122
     36118     36121     36123     36118     36121     36124     36119     36118     36120
     36119     36118     36121     36120     36118     36121     36121     36124     36125
     36121     36124     36126     36121     36124     36127     36122     36121     36123
     36122     36121     36124     36123     36121     36124     36124     36127     36128
     36124     36127     36129     36124     36127     36130     36125     36124     36126
     36125     36124     36127     36126     36124     36127     36127     36130     36131
     36127     36130     36132     36127     36130     36133     36128     36127     36129
     36128     36127     36130     36129     36127     36130     36130     36133     36134
     36130     36133     36135     36130     36133     36136     36131     36130     36132
     36131     36130     36133     36132     36130     36133     36133     36136     36137
     36133     36136     36138     36133     36136     36139     36134     36133     36135
     36134     36133     36136     36135     36133     36136     36137     36136     36138
     36137     36136     36139     36138     36136     36139     36140     36144     36145
     36140     36144     36146     36140     36144     36147     36141     36140     36142
     36141     36140     36143     36141     36140     36144     36142     36140     36143
     36142     36140     36144     36143     36140     36144     36144     36147     36148
     36144     36147     36149     36144     36147     36154     36145     36144     36146
     36145     36144     36147     36146     36144     36147     36147     36154     36150
     36148     36147     36149     36148     36147     36154     36149     36147     36154
     36150     36153     36155     36151     36150     36152     36151     36150     36153
     36151     36150     36154     36152     36150     36153     36152     36150     36154
     36153     36150     36154     36153     36155     36156     36153     36155     36157
     36153     36155     36158     36155     36158     36159     36155     36158     36160
     36155     36158     36166     36156     36155     36157     36156     36155     36158
     36157     36155     36158     36158     36160     36161     36158     36166     36167
     36158     36166     36168     36158     36166     36169     36159     36158     36160
     36159     36158     36166     36160     36158     36166     36160     36161     36162
     36160     36161     36163     36161     36163     36164     36161     36163     36165
     36161     36163     36175     36162     36161     36163     36163     36175     36176
     36163     36175     36177     36163     36175     36178     36164     36163     36165
     36164     36163     36175     36165     36163     36175     36166     36169     36170
     36167     36166     36168     36167     36166     36169     36168     36166     36169
     36169     36170     36171     36169     36170     36172     36170     36172     36173
     36170     36172     36174     36170     36172     36222     36171     36170     36172
     36172     36222     36223     36172     36222     36224     36172     36222     36225
     36173     36172     36174     36173     36172     36222     36174     36172     36222
     36175     36178     36179     36175     36178     36180     36175     36178     36181
     36176     36175     36177     36176     36175     36178     36177     36175     36178
     36178     36181     36182     36178     36181     36183     36178     36181     36184
     36179     36178     36180     36179     36178     36181     36180     36178     36181
     36181     36184     36185     36181     36184     36186     36181     36184     36187
     36182     36181     36183     36182     36181     36184     36183     36181     36184
     36184     36187     36188     36184     36187     36189     36184     36187     36190
     36185     36184     36186     36185     36184     36187     36186     36184     36187
     36187     36190     36191     36187     36190     36192     36187     36190     36193
     36188     36187     36189     36188     36187     36190     36189     36187     36190
     36190     36193     36194     36190     36193     36195     36191     36190     36192
     36191     36190     36193     36192     36190     36193     36193     36195     36196
     36193     36195     36197     36194     36193     36195     36195     36197     36198
     36195     36197     36199     36195     36197     36200     36196     36195     36197
     36197     36200     36201     36197     36200     36202     36197     36200     36203
     36198     36197     36199     36198     36197     36200     36199     36197     36200
     36200     36203     36204     36200     36203     36205     36200     36203     36206
     36201     36200     36202     36201     36200     36203     36202     36200     36203
     36203     36206     36207     36203     36206     36208     36203     36206     36209
     36204     36203     36205     36204     36203     36206     36205     36203     36206
     36206     36209     36210     36206     36209     36211     36206     36209     36212
     36207     36206     36208     36207     36206     36209     36208     36206     36209
     36209     36212     36213     36209     36212     36214     36209     36212     36215
     36210     36209     36211     36210     36209     36212     36211     36209     36212
     36212     36215     36216     36212     36215     36217     36212     36215     36218
     36213     36212     36214     36213     36212     36215     36214     36212     36215
     36215     36218     36219     36215     36218     36220     36215     36218     36221
     36216     36215     36217     36216     36215     36218     36217     36215     36218
     36219     36218     36220     36219     36218     36221     36220     36218     36221
     36222     36225     36226     36222     36225     36227     36222     36225     36228
     36223     36222     36224     36223     36222     36225     36224     36222     36225
     36225     36228     36229     36225     36228     36230     36225     36228     36231
     36226     36225     36227     36226     36225     36228     36227     36225     36228
     36228     36231     36232     36228     36231     36233     36228     36231     36234
     36229     36228     36230     36229     36228     36231     36230     36228     36231
     36231     36234     36235     36231     36234     36236     36231     36234     36237
     36232     36231     36233     36232     36231     36234     36233     36231     36234
     36234     36237     36238     36234     36237     36239     36234     36237     36240
     36235     36234     36236     36235     36234     36237     36236     36234     36237
     36237     36240     36241     36237     36240     36242     36237     36240     36243
     36238     36237     36239     36238     36237     36240     36239     36237     36240
     36240     36243     36244     36240     36243     36245     36240     36243     36246
     36241     36240     36242     36241     36240     36243     36242     36240     36243
     36243     36246     36247     36243     36246     36248     36243     36246     36249
     36244     36243     36245     36244     36243     36246     36245     36243     36246
     36246     36249     36250     36246     36249     36251     36246     36249     36252
     36247     36246     36248     36247     36246     36249     36248     36246     36249
     36249     36252     36253     36249     36252     36254     36249     36252     36255
     36250     36249     36251     36250     36249     36252     36251     36249     36252
     36252     36255     36256     36252     36255     36257     36252     36255     36258
     36253     36252     36254     36253     36252     36255     36254     36252     36255
     36255     36258     36259     36255     36258     36260     36255     36258     36261
     36256     36255     36257     36256     36255     36258     36257     36255     36258
     36258     36261     36262     36258     36261     36263     36258     36261     36264
     36259     36258     36260     36259     36258     36261     36260     36258     36261
     36262     36261     36263     36262     36261     36264     36263     36261     36264
     36265     36269     36270     36265     36269     36271     36265     36269     36272
     36266     36265     36267     36266     36265     36268     36266     36265     36269
     36267     36265     36268     36267     36265     36269     36268     36265     36269
     36269     36272     36273     36269     36272     36274     36269     36272     36279
     36270     36269     36271     36270     36269     36272     36271     36269     36272
     36272     36279     36275     36273     36272     36274     36273     36272     36279
     36274     36272     36279     36275     36278     36280     36276     36275     36277
     36276     36275     36278     36276     36275     36279     36277     36275     36278
     36277     36275     36279     36278     36275     36279     36278     36280     36281
     36278     36280     36282     36278     36280     36283     36280     36283     36284
     36280     36283     36285     36280     36283     36291     36281     36280     36282
     36281     36280     36283     36282     36280     36283     36283     36285     36286
     36283     36291     36292     36283     36291     36293     36283     36291     36294
     36284     36283     36285     36284     36283     36291     36285     36283     36291
     36285     36286     36287     36285     36286     36288     36286     36288     36289
     36286     36288     36290     36286     36288     36300     36287     36286     36288
     36288     36300     36301     36288     36300     36302     36288     36300     36303
     36289     36288     36290     36289     36288     36300     36290     36288     36300
     36291     36294     36295     36292     36291     36293     36292     36291     36294
     36293     36291     36294     36294     36295     36296     36294     36295     36297
     36295     36297     36298     36295     36297     36299     36295     36297     36347
     36296     36295     36297     36297     36347     36348     36297     36347     36349
     36297     36347     36350     36298     36297     36299     36298     36297     36347
     36299     36297     36347     36300     36303     36304     36300     36303     36305
     36300     36303     36306     36301     36300     36302     36301     36300     36303
     36302     36300     36303     36303     36306     36307     36303     36306     36308
     36303     36306     36309     36304     36303     36305     36304     36303     36306
     36305     36303     36306     36306     36309     36310     36306     36309     36311
     36306     36309     36312     36307     36306     36308     36307     36306     36309
     36308     36306     36309     36309     36312     36313     36309     36312     36314
     36309     36312     36315     36310     36309     36311     36310     36309     36312
     36311     36309     36312     36312     36315     36316     36312     36315     36317
     36312     36315     36318     36313     36312     36314     36313     36312     36315
     36314     36312     36315     36315     36318     36319     36315     36318     36320
     36316     36315     36317     36316     36315     36318     36317     36315     36318
     36318     36320     36321     36318     36320     36322     36319     36318     36320
     36320     36322     36323     36320     36322     36324     36320     36322     36325
     36321     36320     36322     36322     36325     36326     36322     36325     36327
     36322     36325     36328     36323     36322     36324     36323     36322     36325
     36324     36322     36325     36325     36328     36329     36325     36328     36330
     36325     36328     36331     36326     36325     36327     36326     36325     36328
     36327     36325     36328     36328     36331     36332     36328     36331     36333
     36328     36331     36334     36329     36328     36330     36329     36328     36331
     36330     36328     36331     36331     36334     36335     36331     36334     36336
     36331     36334     36337     36332     36331     36333     36332     36331     36334
     36333     36331     36334     36334     36337     36338     36334     36337     36339
     36334     36337     36340     36335     36334     36336     36335     36334     36337
     36336     36334     36337     36337     36340     36341     36337     36340     36342
     36337     36340     36343     36338     36337     36339     36338     36337     36340
     36339     36337     36340     36340     36343     36344     36340     36343     36345
     36340     36343     36346     36341     36340     36342     36341     36340     36343
     36342     36340     36343     36344     36343     36345     36344     36343     36346
     36345     36343     36346     36347     36350     36351     36347     36350     36352
     36347     36350     36353     36348     36347     36349     36348     36347     36350
     36349     36347     36350     36350     36353     36354     36350     36353     36355
     36350     36353     36356     36351     36350     36352     36351     36350     36353
     36352     36350     36353     36353     36356     36357     36353     36356     36358
     36353     36356     36359     36354     36353     36355     36354     36353     36356
     36355     36353     36356     36356     36359     36360     36356     36359     36361
     36356     36359     36362     36357     36356     36358     36357     36356     36359
     36358     36356     36359     36359     36362     36363     36359     36362     36364
     36359     36362     36365     36360     36359     36361     36360     36359     36362
     36361     36359     36362     36362     36365     36366     36362     36365     36367
     36362     36365     36368     36363     36362     36364     36363     36362     36365
     36364     36362     36365     36365     36368     36369     36365     36368     36370
     36365     36368     36371     36366     36365     36367     36366     36365     36368
     36367     36365     36368     36368     36371     36372     36368     36371     36373
     36368     36371     36374     36369     36368     36370     36369     36368     36371
     36370     36368     36371     36371     36374     36375     36371     36374     36376
     36371     36374     36377     36372     36371     36373     36372     36371     36374
     36373     36371     36374     36374     36377     36378     36374     36377     36379
     36374     36377     36380     36375     36374     36376     36375     36374     36377
     36376     36374     36377     36377     36380     36381     36377     36380     36382
     36377     36380     36383     36378     36377     36379     36378     36377     36380
     36379     36377     36380     36380     36383     36384     36380     36383     36385
     36380     36383     36386     36381     36380     36382     36381     36380     36383
     36382     36380     36383     36383     36386     36387     36383     36386     36388
     36383     36386     36389     36384     36383     36385     36384     36383     36386
     36385     36383     36386     36387     36386     36388     36387     36386     36389
     36388     36386     36389     36390     36394     36395     36390     36394     36396
     36390     36394     36397     36391     36390     36392     36391     36390     36393
     36391     36390     36394     36392     36390     36393     36392     36390     36394
     36393     36390     36394     36394     36397     36398     36394     36397     36399
     36394     36397     36404     36395     36394     36396     36395     36394     36397
     36396     36394     36397     36397     36404     36400     36398     36397     36399
     36398     36397     36404     36399     36397     36404     36400     36403     36405
     36401     36400     36402     36401     36400     36403     36401     36400     36404
     36402     36400     36403     36402     36400     36404     36403     36400     36404
     36403     36405     36406     36403     36405     36407     36403     36405     36408
     36405     36408     36409     36405     36408     36410     36405     36408     36416
     36406     36405     36407     36406     36405     36408     36407     36405     36408
     36408     36410     36411     36408     36416     36417     36408     36416     36418
     36408     36416     36419     36409     36408     36410     36409     36408     36416
     36410     36408     36416     36410     36411     36412     36410     36411     36413
     36411     36413     36414     36411     36413     36415     36411     36413     36425
     36412     36411     36413     36413     36425     36426     36413     36425     36427
     36413     36425     36428     36414     36413     36415     36414     36413     36425
     36415     36413     36425     36416     36419     36420     36417     36416     36418
     36417     36416     36419     36418     36416     36419     36419     36420     36421
     36419     36420     36422     36420     36422     36423     36420     36422     36424
     36420     36422     36472     36421     36420     36422     36422     36472     36473
     36422     36472     36474     36422     36472     36475     36423     36422     36424
     36423     36422     36472     36424     36422     36472     36425     36428     36429
     36425     36428     36430     36425     36428     36431     36426     36425     36427
     36426     36425     36428     36427     36425     36428     36428     36431     36432
     36428     36431     36433     36428     36431     36434     36429     36428     36430
     36429     36428     36431     36430     36428     36431     36431     36434     36435
     36431     36434     36436     36431     36434     36437     36432     36431     36433
     36432     36431     36434     36433     36431     36434     36434     36437     36438
     36434     36437     36439     36434     36437     36440     36435     36434     36436
     36435     36434     36437     36436     36434     36437     36437     36440     36441
     36437     36440     36442     36437     36440     36443     36438     36437     36439
     36438     36437     36440     36439     36437     36440     36440     36443     36444
     36440     36443     36445     36441     36440     36442     36441     36440     36443
     36442     36440     36443     36443     36445     36446     36443     36445     36447
     36444     36443     36445     36445     36447     36448     36445     36447     36449
     36445     36447     36450     36446     36445     36447     36447     36450     36451
     36447     36450     36452     36447     36450     36453     36448     36447     36449
     36448     36447     36450     36449     36447     36450     36450     36453     36454
     36450     36453     36455     36450     36453     36456     36451     36450     36452
     36451     36450     36453     36452     36450     36453     36453     36456     36457
     36453     36456     36458     36453     36456     36459     36454     36453     36455
     36454     36453     36456     36455     36453     36456     36456     36459     36460
     36456     36459     36461     36456     36459     36462     36457     36456     36458
     36457     36456     36459     36458     36456     36459     36459     36462     36463
     36459     36462     36464     36459     36462     36465     36460     36459     36461
     36460     36459     36462     36461     36459     36462     36462     36465     36466
     36462     36465     36467     36462     36465     36468     36463     36462     36464
     36463     36462     36465     36464     36462     36465     36465     36468     36469
     36465     36468     36470     36465     36468     36471     36466     36465     36467
     36466     36465     36468     36467     36465     36468     36469     36468     36470
     36469     36468     36471     36470     36468     36471     36472     36475     36476
     36472     36475     36477     36472     36475     36478     36473     36472     36474
     36473     36472     36475     36474     36472     36475     36475     36478     36479
     36475     36478     36480     36475     36478     36481     36476     36475     36477
     36476     36475     36478     36477     36475     36478     36478     36481     36482
     36478     36481     36483     36478     36481     36484     36479     36478     36480
     36479     36478     36481     36480     36478     36481     36481     36484     36485
     36481     36484     36486     36481     36484     36487     36482     36481     36483
     36482     36481     36484     36483     36481     36484     36484     36487     36488
     36484     36487     36489     36484     36487     36490     36485     36484     36486
     36485     36484     36487     36486     36484     36487     36487     36490     36491
     36487     36490     36492     36487     36490     36493     36488     36487     36489
     36488     36487     36490     36489     36487     36490     36490     36493     36494
     36490     36493     36495     36490     36493     36496     36491     36490     36492
     36491     36490     36493     36492     36490     36493     36493     36496     36497
     36493     36496     36498     36493     36496     36499     36494     36493     36495
     36494     36493     36496     36495     36493     36496     36496     36499     36500
     36496     36499     36501     36496     36499     36502     36497     36496     36498
     36497     36496     36499     36498     36496     36499     36499     36502     36503
     36499     36502     36504     36499     36502     36505     36500     36499     36501
     36500     36499     36502     36501     36499     36502     36502     36505     36506
     36502     36505     36507     36502     36505     36508     36503     36502     36504
     36503     36502     36505     36504     36502     36505     36505     36508     36509
     36505     36508     36510     36505     36508     36511     36506     36505     36507
     36506     36505     36508     36507     36505     36508     36508     36511     36512
     36508     36511     36513     36508     36511     36514     36509     36508     36510
     36509     36508     36511     36510     36508     36511     36512     36511     36513
     36512     36511     36514     36513     36511     36514     36515     36516     36517
     36515     36516     36518     36515     36516     36531     36515     36519     36520
     36515     36519     36521     36515     36519     36522     36515     36523     36524
     36515     36523     36525     36515     36523     36526     36515     36527     36528
     36515     36527     36529     36515     36527     36530     36516     36515     36519
     36516     36515     36523     36516     36515     36527     36516     36531     36532
     36516     36531     36533     36516     36531     36537     36517     36516     36518
     36517     36516     36531     36518     36516     36531     36519     36515     36523
     36519     36515     36527     36520     36519     36521     36520     36519     36522
     36521     36519     36522     36523     36515     36527     36524     36523     36525
     36524     36523     36526     36525     36523     36526     36528     36527     36529
     36528     36527     36530     36529     36527     36530     36531     36537     36534
     36532     36531     36533     36532     36531     36537     36533     36531     36537
     36534     36538     36539     36535     36534     36536     36535     36534     36537
     36535     36534     36538     36536     36534     36537     36536     36534     36538
     36537     36534     36538     36538     36539     36540     36538     36539     36541
     36538     36539     36542     36539     36542     36543     36539     36542     36544
     36539     36542     36550     36540     36539     36541     36540     36539     36542
     36541     36539     36542     36542     36544     36545     36542     36550     36551
     36542     36550     36552     36542     36550     36553     36543     36542     36544
     36543     36542     36550     36544     36542     36550     36544     36545     36546
     36544     36545     36547     36545     36547     36548     36545     36547     36549
     36545     36547     36559     36546     36545     36547     36547     36559     36560
     36547     36559     36561     36547     36559     36562     36548     36547     36549
     36548     36547     36559     36549     36547     36559     36550     36553     36554
     36551     36550     36552     36551     36550     36553     36552     36550     36553
     36553     36554     36555     36553     36554     36556     36554     36556     36557
     36554     36556     36558     36554     36556     36606     36555     36554     36556
     36556     36606     36607     36556     36606     36608     36556     36606     36609
     36557     36556     36558     36557     36556     36606     36558     36556     36606
     36559     36562     36563     36559     36562     36564     36559     36562     36565
     36560     36559     36561     36560     36559     36562     36561     36559     36562
     36562     36565     36566     36562     36565     36567     36562     36565     36568
     36563     36562     36564     36563     36562     36565     36564     36562     36565
     36565     36568     36569     36565     36568     36570     36565     36568     36571
     36566     36565     36567     36566     36565     36568     36567     36565     36568
     36568     36571     36572     36568     36571     36573     36568     36571     36574
     36569     36568     36570     36569     36568     36571     36570     36568     36571
     36571     36574     36575     36571     36574     36576     36571     36574     36577
     36572     36571     36573     36572     36571     36574     36573     36571     36574
     36574     36577     36578     36574     36577     36579     36575     36574     36576
     36575     36574     36577     36576     36574     36577     36577     36579     36580
     36577     36579     36581     36578     36577     36579     36579     36581     36582
     36579     36581     36583     36579     36581     36584     36580     36579     36581
     36581     36584     36585     36581     36584     36586     36581     36584     36587
     36582     36581     36583     36582     36581     36584     36583     36581     36584
     36584     36587     36588     36584     36587     36589     36584     36587     36590
     36585     36584     36586     36585     36584     36587     36586     36584     36587
     36587     36590     36591     36587     36590     36592     36587     36590     36593
     36588     36587     36589     36588     36587     36590     36589     36587     36590
     36590     36593     36594     36590     36593     36595     36590     36593     36596
     36591     36590     36592     36591     36590     36593     36592     36590     36593
     36593     36596     36597     36593     36596     36598     36593     36596     36599
     36594     36593     36595     36594     36593     36596     36595     36593     36596
     36596     36599     36600     36596     36599     36601     36596     36599     36602
     36597     36596     36598     36597     36596     36599     36598     36596     36599
     36599     36602     36603     36599     36602     36604     36599     36602     36605
     36600     36599     36601     36600     36599     36602     36601     36599     36602
     36603     36602     36604     36603     36602     36605     36604     36602     36605
     36606     36609     36610     36606     36609     36611     36606     36609     36612
     36607     36606     36608     36607     36606     36609     36608     36606     36609
     36609     36612     36613     36609     36612     36614     36609     36612     36615
     36610     36609     36611     36610     36609     36612     36611     36609     36612
     36612     36615     36616     36612     36615     36617     36612     36615     36618
     36613     36612     36614     36613     36612     36615     36614     36612     36615
     36615     36618     36619     36615     36618     36620     36615     36618     36621
     36616     36615     36617     36616     36615     36618     36617     36615     36618
     36618     36621     36622     36618     36621     36623     36618     36621     36624
     36619     36618     36620     36619     36618     36621     36620     36618     36621
     36621     36624     36625     36621     36624     36626     36621     36624     36627
     36622     36621     36623     36622     36621     36624     36623     36621     36624
     36624     36627     36628     36624     36627     36629     36624     36627     36630
     36625     36624     36626     36625     36624     36627     36626     36624     36627
     36627     36630     36631     36627     36630     36632     36627     36630     36633
     36628     36627     36629     36628     36627     36630     36629     36627     36630
     36630     36633     36634     36630     36633     36635     36630     36633     36636
     36631     36630     36632     36631     36630     36633     36632     36630     36633
     36633     36636     36637     36633     36636     36638     36633     36636     36639
     36634     36633     36635     36634     36633     36636     36635     36633     36636
     36636     36639     36640     36636     36639     36641     36636     36639     36642
     36637     36636     36638     36637     36636     36639     36638     36636     36639
     36639     36642     36643     36639     36642     36644     36639     36642     36645
     36640     36639     36641     36640     36639     36642     36641     36639     36642
     36642     36645     36646     36642     36645     36647     36642     36645     36648
     36643     36642     36644     36643     36642     36645     36644     36642     36645
     36646     36645     36647     36646     36645     36648     36647     36645     36648
     36649     36653     36654     36649     36653     36655     36649     36653     36656
     36650     36649     36651     36650     36649     36652     36650     36649     36653
     36651     36649     36652     36651     36649     36653     36652     36649     36653
     36653     36656     36657     36653     36656     36658     36653     36656     36663
     36654     36653     36655     36654     36653     36656     36655     36653     36656
     36656     36663     36659     36657     36656     36658     36657     36656     36663
     36658     36656     36663     36659     36662     36664     36660     36659     36661
     36660     36659     36662     36660     36659     36663     36661     36659     36662
     36661     36659     36663     36662     36659     36663     36662     36664     36665
     36662     36664     36666     36662     36664     36667     36664     36667     36668
     36664     36667     36669     36664     36667     36675     36665     36664     36666
     36665     36664     36667     36666     36664     36667     36667     36669     36670
     36667     36675     36676     36667     36675     36677     36667     36675     36678
     36668     36667     36669     36668     36667     36675     36669     36667     36675
     36669     36670     36671     36669     36670     36672     36670     36672     36673
     36670     36672     36674     36670     36672     36684     36671     36670     36672
     36672     36684     36685     36672     36684     36686     36672     36684     36687
     36673     36672     36674     36673     36672     36684     36674     36672     36684
     36675     36678     36679     36676     36675     36677     36676     36675     36678
     36677     36675     36678     36678     36679     36680     36678     36679     36681
     36679     36681     36682     36679     36681     36683     36679     36681     36731
     36680     36679     36681     36681     36731     36732     36681     36731     36733
     36681     36731     36734     36682     36681     36683     36682     36681     36731
     36683     36681     36731     36684     36687     36688     36684     36687     36689
     36684     36687     36690     36685     36684     36686     36685     36684     36687
     36686     36684     36687     36687     36690     36691     36687     36690     36692
     36687     36690     36693     36688     36687     36689     36688     36687     36690
     36689     36687     36690     36690     36693     36694     36690     36693     36695
     36690     36693     36696     36691     36690     36692     36691     36690     36693
     36692     36690     36693     36693     36696     36697     36693     36696     36698
     36693     36696     36699     36694     36693     36695     36694     36693     36696
     36695     36693     36696     36696     36699     36700     36696     36699     36701
     36696     36699     36702     36697     36696     36698     36697     36696     36699
     36698     36696     36699     36699     36702     36703     36699     36702     36704
     36700     36699     36701     36700     36699     36702     36701     36699     36702
     36702     36704     36705     36702     36704     36706     36703     36702     36704
     36704     36706     36707     36704     36706     36708     36704     36706     36709
     36705     36704     36706     36706     36709     36710     36706     36709     36711
     36706     36709     36712     36707     36706     36708     36707     36706     36709
     36708     36706     36709     36709     36712     36713     36709     36712     36714
     36709     36712     36715     36710     36709     36711     36710     36709     36712
     36711     36709     36712     36712     36715     36716     36712     36715     36717
     36712     36715     36718     36713     36712     36714     36713     36712     36715
     36714     36712     36715     36715     36718     36719     36715     36718     36720
     36715     36718     36721     36716     36715     36717     36716     36715     36718
     36717     36715     36718     36718     36721     36722     36718     36721     36723
     36718     36721     36724     36719     36718     36720     36719     36718     36721
     36720     36718     36721     36721     36724     36725     36721     36724     36726
     36721     36724     36727     36722     36721     36723     36722     36721     36724
     36723     36721     36724     36724     36727     36728     36724     36727     36729
     36724     36727     36730     36725     36724     36726     36725     36724     36727
     36726     36724     36727     36728     36727     36729     36728     36727     36730
     36729     36727     36730     36731     36734     36735     36731     36734     36736
     36731     36734     36737     36732     36731     36733     36732     36731     36734
     36733     36731     36734     36734     36737     36738     36734     36737     36739
     36734     36737     36740     36735     36734     36736     36735     36734     36737
     36736     36734     36737     36737     36740     36741     36737     36740     36742
     36737     36740     36743     36738     36737     36739     36738     36737     36740
     36739     36737     36740     36740     36743     36744     36740     36743     36745
     36740     36743     36746     36741     36740     36742     36741     36740     36743
     36742     36740     36743     36743     36746     36747     36743     36746     36748
     36743     36746     36749     36744     36743     36745     36744     36743     36746
     36745     36743     36746     36746     36749     36750     36746     36749     36751
     36746     36749     36752     36747     36746     36748     36747     36746     36749
     36748     36746     36749     36749     36752     36753     36749     36752     36754
     36749     36752     36755     36750     36749     36751     36750     36749     36752
     36751     36749     36752     36752     36755     36756     36752     36755     36757
     36752     36755     36758     36753     36752     36754     36753     36752     36755
     36754     36752     36755     36755     36758     36759     36755     36758     36760
     36755     36758     36761     36756     36755     36757     36756     36755     36758
     36757     36755     36758     36758     36761     36762     36758     36761     36763
     36758     36761     36764     36759     36758     36760     36759     36758     36761
     36760     36758     36761     36761     36764     36765     36761     36764     36766
     36761     36764     36767     36762     36761     36763     36762     36761     36764
     36763     36761     36764     36764     36767     36768     36764     36767     36769
     36764     36767     36770     36765     36764     36766     36765     36764     36767
     36766     36764     36767     36767     36770     36771     36767     36770     36772
     36767     36770     36773     36768     36767     36769     36768     36767     36770
     36769     36767     36770     36771     36770     36772     36771     36770     36773
     36772     36770     36773     36774     36778     36779     36774     36778     36780
     36774     36778     36781     36775     36774     36776     36775     36774     36777
     36775     36774     36778     36776     36774     36777     36776     36774     36778
     36777     36774     36778     36778     36781     36782     36778     36781     36783
     36778     36781     36788     36779     36778     36780     36779     36778     36781
     36780     36778     36781     36781     36788     36784     36782     36781     36783
     36782     36781     36788     36783     36781     36788     36784     36787     36789
     36785     36784     36786     36785     36784     36787     36785     36784     36788
     36786     36784     36787     36786     36784     36788     36787     36784     36788
     36787     36789     36790     36787     36789     36791     36787     36789     36792
     36789     36792     36793     36789     36792     36794     36789     36792     36800
     36790     36789     36791     36790     36789     36792     36791     36789     36792
     36792     36794     36795     36792     36800     36801     36792     36800     36802
     36792     36800     36803     36793     36792     36794     36793     36792     36800
     36794     36792     36800     36794     36795     36796     36794     36795     36797
     36795     36797     36798     36795     36797     36799     36795     36797     36809
     36796     36795     36797     36797     36809     36810     36797     36809     36811
     36797     36809     36812     36798     36797     36799     36798     36797     36809
     36799     36797     36809     36800     36803     36804     36801     36800     36802
     36801     36800     36803     36802     36800     36803     36803     36804     36805
     36803     36804     36806     36804     36806     36807     36804     36806     36808
     36804     36806     36856     36805     36804     36806     36806     36856     36857
     36806     36856     36858     36806     36856     36859     36807     36806     36808
     36807     36806     36856     36808     36806     36856     36809     36812     36813
     36809     36812     36814     36809     36812     36815     36810     36809     36811
     36810     36809     36812     36811     36809     36812     36812     36815     36816
     36812     36815     36817     36812     36815     36818     36813     36812     36814
     36813     36812     36815     36814     36812     36815     36815     36818     36819
     36815     36818     36820     36815     36818     36821     36816     36815     36817
     36816     36815     36818     36817     36815     36818     36818     36821     36822
     36818     36821     36823     36818     36821     36824     36819     36818     36820
     36819     36818     36821     36820     36818     36821     36821     36824     36825
     36821     36824     36826     36821     36824     36827     36822     36821     36823
     36822     36821     36824     36823     36821     36824     36824     36827     36828
     36824     36827     36829     36825     36824     36826     36825     36824     36827
     36826     36824     36827     36827     36829     36830     36827     36829     36831
     36828     36827     36829     36829     36831     36832     36829     36831     36833
     36829     36831     36834     36830     36829     36831     36831     36834     36835
     36831     36834     36836     36831     36834     36837     36832     36831     36833
     36832     36831     36834     36833     36831     36834     36834     36837     36838
     36834     36837     36839     36834     36837     36840     36835     36834     36836
     36835     36834     36837     36836     36834     36837     36837     36840     36841
     36837     36840     36842     36837     36840     36843     36838     36837     36839
     36838     36837     36840     36839     36837     36840     36840     36843     36844
     36840     36843     36845     36840     36843     36846     36841     36840     36842
     36841     36840     36843     36842     36840     36843     36843     36846     36847
     36843     36846     36848     36843     36846     36849     36844     36843     36845
     36844     36843     36846     36845     36843     36846     36846     36849     36850
     36846     36849     36851     36846     36849     36852     36847     36846     36848
     36847     36846     36849     36848     36846     36849     36849     36852     36853
     36849     36852     36854     36849     36852     36855     36850     36849     36851
     36850     36849     36852     36851     36849     36852     36853     36852     36854
     36853     36852     36855     36854     36852     36855     36856     36859     36860
     36856     36859     36861     36856     36859     36862     36857     36856     36858
     36857     36856     36859     36858     36856     36859     36859     36862     36863
     36859     36862     36864     36859     36862     36865     36860     36859     36861
     36860     36859     36862     36861     36859     36862     36862     36865     36866
     36862     36865     36867     36862     36865     36868     36863     36862     36864
     36863     36862     36865     36864     36862     36865     36865     36868     36869
     36865     36868     36870     36865     36868     36871     36866     36865     36867
     36866     36865     36868     36867     36865     36868     36868     36871     36872
     36868     36871     36873     36868     36871     36874     36869     36868     36870
     36869     36868     36871     36870     36868     36871     36871     36874     36875
     36871     36874     36876     36871     36874     36877     36872     36871     36873
     36872     36871     36874     36873     36871     36874     36874     36877     36878
     36874     36877     36879     36874     36877     36880     36875     36874     36876
     36875     36874     36877     36876     36874     36877     36877     36880     36881
     36877     36880     36882     36877     36880     36883     36878     36877     36879
     36878     36877     36880     36879     36877     36880     36880     36883     36884
     36880     36883     36885     36880     36883     36886     36881     36880     36882
     36881     36880     36883     36882     36880     36883     36883     36886     36887
     36883     36886     36888     36883     36886     36889     36884     36883     36885
     36884     36883     36886     36885     36883     36886     36886     36889     36890
     36886     36889     36891     36886     36889     36892     36887     36886     36888
     36887     36886     36889     36888     36886     36889     36889     36892     36893
     36889     36892     36894     36889     36892     36895     36890     36889     36891
     36890     36889     36892     36891     36889     36892     36892     36895     36896
     36892     36895     36897     36892     36895     36898     36893     36892     36894
     36893     36892     36895     36894     36892     36895     36896     36895     36897
     36896     36895     36898     36897     36895     36898     36899     36903     36904
     36899     36903     36905     36899     36903     36906     36900     36899     36901
     36900     36899     36902     36900     36899     36903     36901     36899     36902
     36901     36899     36903     36902     36899     36903     36903     36906     36907
     36903     36906     36908     36903     36906     36913     36904     36903     36905
     36904     36903     36906     36905     36903     36906     36906     36913     36909
     36907     36906     36908     36907     36906     36913     36908     36906     36913
     36909     36912     36914     36910     36909     36911     36910     36909     36912
     36910     36909     36913     36911     36909     36912     36911     36909     36913
     36912     36909     36913     36912     36914     36915     36912     36914     36916
     36912     36914     36917     36914     36917     36918     36914     36917     36919
     36914     36917     36925     36915     36914     36916     36915     36914     36917
     36916     36914     36917     36917     36919     36920     36917     36925     36926
     36917     36925     36927     36917     36925     36928     36918     36917     36919
     36918     36917     36925     36919     36917     36925     36919     36920     36921
     36919     36920     36922     36920     36922     36923     36920     36922     36924
     36920     36922     36934     36921     36920     36922     36922     36934     36935
     36922     36934     36936     36922     36934     36937     36923     36922     36924
     36923     36922     36934     36924     36922     36934     36925     36928     36929
     36926     36925     36927     36926     36925     36928     36927     36925     36928
     36928     36929     36930     36928     36929     36931     36929     36931     36932
     36929     36931     36933     36929     36931     36981     36930     36929     36931
     36931     36981     36982     36931     36981     36983     36931     36981     36984
     36932     36931     36933     36932     36931     36981     36933     36931     36981
     36934     36937     36938     36934     36937     36939     36934     36937     36940
     36935     36934     36936     36935     36934     36937     36936     36934     36937
     36937     36940     36941     36937     36940     36942     36937     36940     36943
     36938     36937     36939     36938     36937     36940     36939     36937     36940
     36940     36943     36944     36940     36943     36945     36940     36943     36946
     36941     36940     36942     36941     36940     36943     36942     36940     36943
     36943     36946     36947     36943     36946     36948     36943     36946     36949
     36944     36943     36945     36944     36943     36946     36945     36943     36946
     36946     36949     36950     36946     36949     36951     36946     36949     36952
     36947     36946     36948     36947     36946     36949     36948     36946     36949
     36949     36952     36953     36949     36952     36954     36950     36949     36951
     36950     36949     36952     36951     36949     36952     36952     36954     36955
     36952     36954     36956     36953     36952     36954     36954     36956     36957
     36954     36956     36958     36954     36956     36959     36955     36954     36956
     36956     36959     36960     36956     36959     36961     36956     36959     36962
     36957     36956     36958     36957     36956     36959     36958     36956     36959
     36959     36962     36963     36959     36962     36964     36959     36962     36965
     36960     36959     36961     36960     36959     36962     36961     36959     36962
     36962     36965     36966     36962     36965     36967     36962     36965     36968
     36963     36962     36964     36963     36962     36965     36964     36962     36965
     36965     36968     36969     36965     36968     36970     36965     36968     36971
     36966     36965     36967     36966     36965     36968     36967     36965     36968
     36968     36971     36972     36968     36971     36973     36968     36971     36974
     36969     36968     36970     36969     36968     36971     36970     36968     36971
     36971     36974     36975     36971     36974     36976     36971     36974     36977
     36972     36971     36973     36972     36971     36974     36973     36971     36974
     36974     36977     36978     36974     36977     36979     36974     36977     36980
     36975     36974     36976     36975     36974     36977     36976     36974     36977
     36978     36977     36979     36978     36977     36980     36979     36977     36980
     36981     36984     36985     36981     36984     36986     36981     36984     36987
     36982     36981     36983     36982     36981     36984     36983     36981     36984
     36984     36987     36988     36984     36987     36989     36984     36987     36990
     36985     36984     36986     36985     36984     36987     36986     36984     36987
     36987     36990     36991     36987     36990     36992     36987     36990     36993
     36988     36987     36989     36988     36987     36990     36989     36987     36990
     36990     36993     36994     36990     36993     36995     36990     36993     36996
     36991     36990     36992     36991     36990     36993     36992     36990     36993
     36993     36996     36997     36993     36996     36998     36993     36996     36999
     36994     36993     36995     36994     36993     36996     36995     36993     36996
     36996     36999     37000     36996     36999     37001     36996     36999     37002
     36997     36996     36998     36997     36996     36999     36998     36996     36999
     36999     37002     37003     36999     37002     37004     36999     37002     37005
     37000     36999     37001     37000     36999     37002     37001     36999     37002
     37002     37005     37006     37002     37005     37007     37002     37005     37008
     37003     37002     37004     37003     37002     37005     37004     37002     37005
     37005     37008     37009     37005     37008     37010     37005     37008     37011
     37006     37005     37007     37006     37005     37008     37007     37005     37008
     37008     37011     37012     37008     37011     37013     37008     37011     37014
     37009     37008     37010     37009     37008     37011     37010     37008     37011
     37011     37014     37015     37011     37014     37016     37011     37014     37017
     37012     37011     37013     37012     37011     37014     37013     37011     37014
     37014     37017     37018     37014     37017     37019     37014     37017     37020
     37015     37014     37016     37015     37014     37017     37016     37014     37017
     37017     37020     37021     37017     37020     37022     37017     37020     37023
     37018     37017     37019     37018     37017     37020     37019     37017     37020
     37021     37020     37022     37021     37020     37023     37022     37020     37023
     37024     37028     37029     37024     37028     37030     37024     37028     37031
     37025     37024     37026     37025     37024     37027     37025     37024     37028
     37026     37024     37027     37026     37024     37028     37027     37024     37028
     37028     37031     37032     37028     37031     37033     37028     37031     37038
     37029     37028     37030     37029     37028     37031     37030     37028     37031
     37031     37038     37034     37032     37031     37033     37032     37031     37038
     37033     37031     37038     37034     37037     37039     37035     37034     37036
     37035     37034     37037     37035     37034     37038     37036     37034     37037
     37036     37034     37038     37037     37034     37038     37037     37039     37040
     37037     37039     37041     37037     37039     37042     37039     37042     37043
     37039     37042     37044     37039     37042     37050     37040     37039     37041
     37040     37039     37042     37041     37039     37042     37042     37044     37045
     37042     37050     37051     37042     37050     37052     37042     37050     37053
     37043     37042     37044     37043     37042     37050     37044     37042     37050
     37044     37045     37046     37044     37045     37047     37045     37047     37048
     37045     37047     37049     37045     37047     37059     37046     37045     37047
     37047     37059     37060     37047     37059     37061     37047     37059     37062
     37048     37047     37049     37048     37047     37059     37049     37047     37059
     37050     37053     37054     37051     37050     37052     37051     37050     37053
     37052     37050     37053     37053     37054     37055     37053     37054     37056
     37054     37056     37057     37054     37056     37058     37054     37056     37106
     37055     37054     37056     37056     37106     37107     37056     37106     37108
     37056     37106     37109     37057     37056     37058     37057     37056     37106
     37058     37056     37106     37059     37062     37063     37059     37062     37064
     37059     37062     37065     37060     37059     37061     37060     37059     37062
     37061     37059     37062     37062     37065     37066     37062     37065     37067
     37062     37065     37068     37063     37062     37064     37063     37062     37065
     37064     37062     37065     37065     37068     37069     37065     37068     37070
     37065     37068     37071     37066     37065     37067     37066     37065     37068
     37067     37065     37068     37068     37071     37072     37068     37071     37073
     37068     37071     37074     37069     37068     37070     37069     37068     37071
     37070     37068     37071     37071     37074     37075     37071     37074     37076
     37071     37074     37077     37072     37071     37073     37072     37071     37074
     37073     37071     37074     37074     37077     37078     37074     37077     37079
     37075     37074     37076     37075     37074     37077     37076     37074     37077
     37077     37079     37080     37077     37079     37081     37078     37077     37079
     37079     37081     37082     37079     37081     37083     37079     37081     37084
     37080     37079     37081     37081     37084     37085     37081     37084     37086
     37081     37084     37087     37082     37081     37083     37082     37081     37084
     37083     37081     37084     37084     37087     37088     37084     37087     37089
     37084     37087     37090     37085     37084     37086     37085     37084     37087
     37086     37084     37087     37087     37090     37091     37087     37090     37092
     37087     37090     37093     37088     37087     37089     37088     37087     37090
     37089     37087     37090     37090     37093     37094     37090     37093     37095
     37090     37093     37096     37091     37090     37092     37091     37090     37093
     37092     37090     37093     37093     37096     37097     37093     37096     37098
     37093     37096     37099     37094     37093     37095     37094     37093     37096
     37095     37093     37096     37096     37099     37100     37096     37099     37101
     37096     37099     37102     37097     37096     37098     37097     37096     37099
     37098     37096     37099     37099     37102     37103     37099     37102     37104
     37099     37102     37105     37100     37099     37101     37100     37099     37102
     37101     37099     37102     37103     37102     37104     37103     37102     37105
     37104     37102     37105     37106     37109     37110     37106     37109     37111
     37106     37109     37112     37107     37106     37108     37107     37106     37109
     37108     37106     37109     37109     37112     37113     37109     37112     37114
     37109     37112     37115     37110     37109     37111     37110     37109     37112
     37111     37109     37112     37112     37115     37116     37112     37115     37117
     37112     37115     37118     37113     37112     37114     37113     37112     37115
     37114     37112     37115     37115     37118     37119     37115     37118     37120
     37115     37118     37121     37116     37115     37117     37116     37115     37118
     37117     37115     37118     37118     37121     37122     37118     37121     37123
     37118     37121     37124     37119     37118     37120     37119     37118     37121
     37120     37118     37121     37121     37124     37125     37121     37124     37126
     37121     37124     37127     37122     37121     37123     37122     37121     37124
     37123     37121     37124     37124     37127     37128     37124     37127     37129
     37124     37127     37130     37125     37124     37126     37125     37124     37127
     37126     37124     37127     37127     37130     37131     37127     37130     37132
     37127     37130     37133     37128     37127     37129     37128     37127     37130
     37129     37127     37130     37130     37133     37134     37130     37133     37135
     37130     37133     37136     37131     37130     37132     37131     37130     37133
     37132     37130     37133     37133     37136     37137     37133     37136     37138
     37133     37136     37139     37134     37133     37135     37134     37133     37136
     37135     37133     37136     37136     37139     37140     37136     37139     37141
     37136     37139     37142     37137     37136     37138     37137     37136     37139
     37138     37136     37139     37139     37142     37143     37139     37142     37144
     37139     37142     37145     37140     37139     37141     37140     37139     37142
     37141     37139     37142     37142     37145     37146     37142     37145     37147
     37142     37145     37148     37143     37142     37144     37143     37142     37145
     37144     37142     37145     37146     37145     37147     37146     37145     37148
     37147     37145     37148     37149     37150     37151     37149     37150     37152
     37149     37150     37165     37149     37153     37154     37149     37153     37155
     37149     37153     37156     37149     37157     37158     37149     37157     37159
     37149     37157     37160     37149     37161     37162     37149     37161     37163
     37149     37161     37164     37150     37149     37153     37150     37149     37157
     37150     37149     37161     37150     37165     37166     37150     37165     37167
     37150     37165     37171     37151     37150     37152     37151     37150     37165
     37152     37150     37165     37153     37149     37157     37153     37149     37161
     37154     37153     37155     37154     37153     37156     37155     37153     37156
     37157     37149     37161     37158     37157     37159     37158     37157     37160
     37159     37157     37160     37162     37161     37163     37162     37161     37164
     37163     37161     37164     37165     37171     37168     37166     37165     37167
     37166     37165     37171     37167     37165     37171     37168     37172     37173
     37169     37168     37170     37169     37168     37171     37169     37168     37172
     37170     37168     37171     37170     37168     37172     37171     37168     37172
     37172     37173     37174     37172     37173     37175     37172     37173     37176
     37173     37176     37177     37173     37176     37178     37173     37176     37184
     37174     37173     37175     37174     37173     37176     37175     37173     37176
     37176     37178     37179     37176     37184     37185     37176     37184     37186
     37176     37184     37187     37177     37176     37178     37177     37176     37184
     37178     37176     37184     37178     37179     37180     37178     37179     37181
     37179     37181     37182     37179     37181     37183     37179     37181     37193
     37180     37179     37181     37181     37193     37194     37181     37193     37195
     37181     37193     37196     37182     37181     37183     37182     37181     37193
     37183     37181     37193     37184     37187     37188     37185     37184     37186
     37185     37184     37187     37186     37184     37187     37187     37188     37189
     37187     37188     37190     37188     37190     37191     37188     37190     37192
     37188     37190     37240     37189     37188     37190     37190     37240     37241
     37190     37240     37242     37190     37240     37243     37191     37190     37192
     37191     37190     37240     37192     37190     37240     37193     37196     37197
     37193     37196     37198     37193     37196     37199     37194     37193     37195
     37194     37193     37196     37195     37193     37196     37196     37199     37200
     37196     37199     37201     37196     37199     37202     37197     37196     37198
     37197     37196     37199     37198     37196     37199     37199     37202     37203
     37199     37202     37204     37199     37202     37205     37200     37199     37201
     37200     37199     37202     37201     37199     37202     37202     37205     37206
     37202     37205     37207     37202     37205     37208     37203     37202     37204
     37203     37202     37205     37204     37202     37205     37205     37208     37209
     37205     37208     37210     37205     37208     37211     37206     37205     37207
     37206     37205     37208     37207     37205     37208     37208     37211     37212
     37208     37211     37213     37209     37208     37210     37209     37208     37211
     37210     37208     37211     37211     37213     37214     37211     37213     37215
     37212     37211     37213     37213     37215     37216     37213     37215     37217
     37213     37215     37218     37214     37213     37215     37215     37218     37219
     37215     37218     37220     37215     37218     37221     37216     37215     37217
     37216     37215     37218     37217     37215     37218     37218     37221     37222
     37218     37221     37223     37218     37221     37224     37219     37218     37220
     37219     37218     37221     37220     37218     37221     37221     37224     37225
     37221     37224     37226     37221     37224     37227     37222     37221     37223
     37222     37221     37224     37223     37221     37224     37224     37227     37228
     37224     37227     37229     37224     37227     37230     37225     37224     37226
     37225     37224     37227     37226     37224     37227     37227     37230     37231
     37227     37230     37232     37227     37230     37233     37228     37227     37229
     37228     37227     37230     37229     37227     37230     37230     37233     37234
     37230     37233     37235     37230     37233     37236     37231     37230     37232
     37231     37230     37233     37232     37230     37233     37233     37236     37237
     37233     37236     37238     37233     37236     37239     37234     37233     37235
     37234     37233     37236     37235     37233     37236     37237     37236     37238
     37237     37236     37239     37238     37236     37239     37240     37243     37244
     37240     37243     37245     37240     37243     37246     37241     37240     37242
     37241     37240     37243     37242     37240     37243     37243     37246     37247
     37243     37246     37248     37243     37246     37249     37244     37243     37245
     37244     37243     37246     37245     37243     37246     37246     37249     37250
     37246     37249     37251     37246     37249     37252     37247     37246     37248
     37247     37246     37249     37248     37246     37249     37249     37252     37253
     37249     37252     37254     37249     37252     37255     37250     37249     37251
     37250     37249     37252     37251     37249     37252     37252     37255     37256
     37252     37255     37257     37252     37255     37258     37253     37252     37254
     37253     37252     37255     37254     37252     37255     37255     37258     37259
     37255     37258     37260     37255     37258     37261     37256     37255     37257
     37256     37255     37258     37257     37255     37258     37258     37261     37262
     37258     37261     37263     37258     37261     37264     37259     37258     37260
     37259     37258     37261     37260     37258     37261     37261     37264     37265
     37261     37264     37266     37261     37264     37267     37262     37261     37263
     37262     37261     37264     37263     37261     37264     37264     37267     37268
     37264     37267     37269     37264     37267     37270     37265     37264     37266
     37265     37264     37267     37266     37264     37267     37267     37270     37271
     37267     37270     37272     37267     37270     37273     37268     37267     37269
     37268     37267     37270     37269     37267     37270     37270     37273     37274
     37270     37273     37275     37270     37273     37276     37271     37270     37272
     37271     37270     37273     37272     37270     37273     37273     37276     37277
     37273     37276     37278     37273     37276     37279     37274     37273     37275
     37274     37273     37276     37275     37273     37276     37276     37279     37280
     37276     37279     37281     37276     37279     37282     37277     37276     37278
     37277     37276     37279     37278     37276     37279     37280     37279     37281
     37280     37279     37282     37281     37279     37282     37283     37287     37288
     37283     37287     37289     37283     37287     37290     37284     37283     37285
     37284     37283     37286     37284     37283     37287     37285     37283     37286
     37285     37283     37287     37286     37283     37287     37287     37290     37291
     37287     37290     37292     37287     37290     37297     37288     37287     37289
     37288     37287     37290     37289     37287     37290     37290     37297     37293
     37291     37290     37292     37291     37290     37297     37292     37290     37297
     37293     37296     37298     37294     37293     37295     37294     37293     37296
     37294     37293     37297     37295     37293     37296     37295     37293     37297
     37296     37293     37297     37296     37298     37299     37296     37298     37300
     37296     37298     37301     37298     37301     37302     37298     37301     37303
     37298     37301     37309     37299     37298     37300     37299     37298     37301
     37300     37298     37301     37301     37303     37304     37301     37309     37310
     37301     37309     37311     37301     37309     37312     37302     37301     37303
     37302     37301     37309     37303     37301     37309     37303     37304     37305
     37303     37304     37306     37304     37306     37307     37304     37306     37308
     37304     37306     37318     37305     37304     37306     37306     37318     37319
     37306     37318     37320     37306     37318     37321     37307     37306     37308
     37307     37306     37318     37308     37306     37318     37309     37312     37313
     37310     37309     37311     37310     37309     37312     37311     37309     37312
     37312     37313     37314     37312     37313     37315     37313     37315     37316
     37313     37315     37317     37313     37315     37365     37314     37313     37315
     37315     37365     37366     37315     37365     37367     37315     37365     37368
     37316     37315     37317     37316     37315     37365     37317     37315     37365
     37318     37321     37322     37318     37321     37323     37318     37321     37324
     37319     37318     37320     37319     37318     37321     37320     37318     37321
     37321     37324     37325     37321     37324     37326     37321     37324     37327
     37322     37321     37323     37322     37321     37324     37323     37321     37324
     37324     37327     37328     37324     37327     37329     37324     37327     37330
     37325     37324     37326     37325     37324     37327     37326     37324     37327
     37327     37330     37331     37327     37330     37332     37327     37330     37333
     37328     37327     37329     37328     37327     37330     37329     37327     37330
     37330     37333     37334     37330     37333     37335     37330     37333     37336
     37331     37330     37332     37331     37330     37333     37332     37330     37333
     37333     37336     37337     37333     37336     37338     37334     37333     37335
     37334     37333     37336     37335     37333     37336     37336     37338     37339
     37336     37338     37340     37337     37336     37338     37338     37340     37341
     37338     37340     37342     37338     37340     37343     37339     37338     37340
     37340     37343     37344     37340     37343     37345     37340     37343     37346
     37341     37340     37342     37341     37340     37343     37342     37340     37343
     37343     37346     37347     37343     37346     37348     37343     37346     37349
     37344     37343     37345     37344     37343     37346     37345     37343     37346
     37346     37349     37350     37346     37349     37351     37346     37349     37352
     37347     37346     37348     37347     37346     37349     37348     37346     37349
     37349     37352     37353     37349     37352     37354     37349     37352     37355
     37350     37349     37351     37350     37349     37352     37351     37349     37352
     37352     37355     37356     37352     37355     37357     37352     37355     37358
     37353     37352     37354     37353     37352     37355     37354     37352     37355
     37355     37358     37359     37355     37358     37360     37355     37358     37361
     37356     37355     37357     37356     37355     37358     37357     37355     37358
     37358     37361     37362     37358     37361     37363     37358     37361     37364
     37359     37358     37360     37359     37358     37361     37360     37358     37361
     37362     37361     37363     37362     37361     37364     37363     37361     37364
     37365     37368     37369     37365     37368     37370     37365     37368     37371
     37366     37365     37367     37366     37365     37368     37367     37365     37368
     37368     37371     37372     37368     37371     37373     37368     37371     37374
     37369     37368     37370     37369     37368     37371     37370     37368     37371
     37371     37374     37375     37371     37374     37376     37371     37374     37377
     37372     37371     37373     37372     37371     37374     37373     37371     37374
     37374     37377     37378     37374     37377     37379     37374     37377     37380
     37375     37374     37376     37375     37374     37377     37376     37374     37377
     37377     37380     37381     37377     37380     37382     37377     37380     37383
     37378     37377     37379     37378     37377     37380     37379     37377     37380
     37380     37383     37384     37380     37383     37385     37380     37383     37386
     37381     37380     37382     37381     37380     37383     37382     37380     37383
     37383     37386     37387     37383     37386     37388     37383     37386     37389
     37384     37383     37385     37384     37383     37386     37385     37383     37386
     37386     37389     37390     37386     37389     37391     37386     37389     37392
     37387     37386     37388     37387     37386     37389     37388     37386     37389
     37389     37392     37393     37389     37392     37394     37389     37392     37395
     37390     37389     37391     37390     37389     37392     37391     37389     37392
     37392     37395     37396     37392     37395     37397     37392     37395     37398
     37393     37392     37394     37393     37392     37395     37394     37392     37395
     37395     37398     37399     37395     37398     37400     37395     37398     37401
     37396     37395     37397     37396     37395     37398     37397     37395     37398
     37398     37401     37402     37398     37401     37403     37398     37401     37404
     37399     37398     37400     37399     37398     37401     37400     37398     37401
     37401     37404     37405     37401     37404     37406     37401     37404     37407
     37402     37401     37403     37402     37401     37404     37403     37401     37404
     37405     37404     37406     37405     37404     37407     37406     37404     37407
     37408     37409     37410     37408     37409     37411     37408     37409     37424
     37408     37412     37413     37408     37412     37414     37408     37412     37415
     37408     37416     37417     37408     37416     37418     37408     37416     37419
     37408     37420     37421     37408     37420     37422     37408     37420     37423
     37409     37408     37412     37409     37408     37416     37409     37408     37420
     37409     37424     37425     37409     37424     37426     37409     37424     37430
     37410     37409     37411     37410     37409     37424     37411     37409     37424
     37412     37408     37416     37412     37408     37420     37413     37412     37414
     37413     37412     37415     37414     37412     37415     37416     37408     37420
     37417     37416     37418     37417     37416     37419     37418     37416     37419
     37421     37420     37422     37421     37420     37423     37422     37420     37423
     37424     37430     37427     37425     37424     37426     37425     37424     37430
     37426     37424     37430     37427     37431     37432     37428     37427     37429
     37428     37427     37430     37428     37427     37431     37429     37427     37430
     37429     37427     37431     37430     37427     37431     37431     37432     37433
     37431     37432     37434     37431     37432     37435     37432     37435     37436
     37432     37435     37437     37432     37435     37443     37433     37432     37434
     37433     37432     37435     37434     37432     37435     37435     37437     37438
     37435     37443     37444     37435     37443     37445     37435     37443     37446
     37436     37435     37437     37436     37435     37443     37437     37435     37443
     37437     37438     37439     37437     37438     37440     37438     37440     37441
     37438     37440     37442     37438     37440     37452     37439     37438     37440
     37440     37452     37453     37440     37452     37454     37440     37452     37455
     37441     37440     37442     37441     37440     37452     37442     37440     37452
     37443     37446     37447     37444     37443     37445     37444     37443     37446
     37445     37443     37446     37446     37447     37448     37446     37447     37449
     37447     37449     37450     37447     37449     37451     37447     37449     37499
     37448     37447     37449     37449     37499     37500     37449     37499     37501
     37449     37499     37502     37450     37449     37451     37450     37449     37499
     37451     37449     37499     37452     37455     37456     37452     37455     37457
     37452     37455     37458     37453     37452     37454     37453     37452     37455
     37454     37452     37455     37455     37458     37459     37455     37458     37460
     37455     37458     37461     37456     37455     37457     37456     37455     37458
     37457     37455     37458     37458     37461     37462     37458     37461     37463
     37458     37461     37464     37459     37458     37460     37459     37458     37461
     37460     37458     37461     37461     37464     37465     37461     37464     37466
     37461     37464     37467     37462     37461     37463     37462     37461     37464
     37463     37461     37464     37464     37467     37468     37464     37467     37469
     37464     37467     37470     37465     37464     37466     37465     37464     37467
     37466     37464     37467     37467     37470     37471     37467     37470     37472
     37468     37467     37469     37468     37467     37470     37469     37467     37470
     37470     37472     37473     37470     37472     37474     37471     37470     37472
     37472     37474     37475     37472     37474     37476     37472     37474     37477
     37473     37472     37474     37474     37477     37478     37474     37477     37479
     37474     37477     37480     37475     37474     37476     37475     37474     37477
     37476     37474     37477     37477     37480     37481     37477     37480     37482
     37477     37480     37483     37478     37477     37479     37478     37477     37480
     37479     37477     37480     37480     37483     37484     37480     37483     37485
     37480     37483     37486     37481     37480     37482     37481     37480     37483
     37482     37480     37483     37483     37486     37487     37483     37486     37488
     37483     37486     37489     37484     37483     37485     37484     37483     37486
     37485     37483     37486     37486     37489     37490     37486     37489     37491
     37486     37489     37492     37487     37486     37488     37487     37486     37489
     37488     37486     37489     37489     37492     37493     37489     37492     37494
     37489     37492     37495     37490     37489     37491     37490     37489     37492
     37491     37489     37492     37492     37495     37496     37492     37495     37497
     37492     37495     37498     37493     37492     37494     37493     37492     37495
     37494     37492     37495     37496     37495     37497     37496     37495     37498
     37497     37495     37498     37499     37502     37503     37499     37502     37504
     37499     37502     37505     37500     37499     37501     37500     37499     37502
     37501     37499     37502     37502     37505     37506     37502     37505     37507
     37502     37505     37508     37503     37502     37504     37503     37502     37505
     37504     37502     37505     37505     37508     37509     37505     37508     37510
     37505     37508     37511     37506     37505     37507     37506     37505     37508
     37507     37505     37508     37508     37511     37512     37508     37511     37513
     37508     37511     37514     37509     37508     37510     37509     37508     37511
     37510     37508     37511     37511     37514     37515     37511     37514     37516
     37511     37514     37517     37512     37511     37513     37512     37511     37514
     37513     37511     37514     37514     37517     37518     37514     37517     37519
     37514     37517     37520     37515     37514     37516     37515     37514     37517
     37516     37514     37517     37517     37520     37521     37517     37520     37522
     37517     37520     37523     37518     37517     37519     37518     37517     37520
     37519     37517     37520     37520     37523     37524     37520     37523     37525
     37520     37523     37526     37521     37520     37522     37521     37520     37523
     37522     37520     37523     37523     37526     37527     37523     37526     37528
     37523     37526     37529     37524     37523     37525     37524     37523     37526
     37525     37523     37526     37526     37529     37530     37526     37529     37531
     37526     37529     37532     37527     37526     37528     37527     37526     37529
     37528     37526     37529     37529     37532     37533     37529     37532     37534
     37529     37532     37535     37530     37529     37531     37530     37529     37532
     37531     37529     37532     37532     37535     37536     37532     37535     37537
     37532     37535     37538     37533     37532     37534     37533     37532     37535
     37534     37532     37535     37535     37538     37539     37535     37538     37540
     37535     37538     37541     37536     37535     37537     37536     37535     37538
     37537     37535     37538     37539     37538     37540     37539     37538     37541
     37540     37538     37541     37542     37543     37544     37542     37543     37545
     37542     37543     37558     37542     37546     37547     37542     37546     37548
     37542     37546     37549     37542     37550     37551     37542     37550     37552
     37542     37550     37553     37542     37554     37555     37542     37554     37556
     37542     37554     37557     37543     37542     37546     37543     37542     37550
     37543     37542     37554     37543     37558     37559     37543     37558     37560
     37543     37558     37564     37544     37543     37545     37544     37543     37558
     37545     37543     37558     37546     37542     37550     37546     37542     37554
     37547     37546     37548     37547     37546     37549     37548     37546     37549
     37550     37542     37554     37551     37550     37552     37551     37550     37553
     37552     37550     37553     37555     37554     37556     37555     37554     37557
     37556     37554     37557     37558     37564     37561     37559     37558     37560
     37559     37558     37564     37560     37558     37564     37561     37565     37566
     37562     37561     37563     37562     37561     37564     37562     37561     37565
     37563     37561     37564     37563     37561     37565     37564     37561     37565
     37565     37566     37567     37565     37566     37568     37565     37566     37569
     37566     37569     37570     37566     37569     37571     37566     37569     37577
     37567     37566     37568     37567     37566     37569     37568     37566     37569
     37569     37571     37572     37569     37577     37578     37569     37577     37579
     37569     37577     37580     37570     37569     37571     37570     37569     37577
     37571     37569     37577     37571     37572     37573     37571     37572     37574
     37572     37574     37575     37572     37574     37576     37572     37574     37586
     37573     37572     37574     37574     37586     37587     37574     37586     37588
     37574     37586     37589     37575     37574     37576     37575     37574     37586
     37576     37574     37586     37577     37580     37581     37578     37577     37579
     37578     37577     37580     37579     37577     37580     37580     37581     37582
     37580     37581     37583     37581     37583     37584     37581     37583     37585
     37581     37583     37633     37582     37581     37583     37583     37633     37634
     37583     37633     37635     37583     37633     37636     37584     37583     37585
     37584     37583     37633     37585     37583     37633     37586     37589     37590
     37586     37589     37591     37586     37589     37592     37587     37586     37588
     37587     37586     37589     37588     37586     37589     37589     37592     37593
     37589     37592     37594     37589     37592     37595     37590     37589     37591
     37590     37589     37592     37591     37589     37592     37592     37595     37596
     37592     37595     37597     37592     37595     37598     37593     37592     37594
     37593     37592     37595     37594     37592     37595     37595     37598     37599
     37595     37598     37600     37595     37598     37601     37596     37595     37597
     37596     37595     37598     37597     37595     37598     37598     37601     37602
     37598     37601     37603     37598     37601     37604     37599     37598     37600
     37599     37598     37601     37600     37598     37601     37601     37604     37605
     37601     37604     37606     37602     37601     37603     37602     37601     37604
     37603     37601     37604     37604     37606     37607     37604     37606     37608
     37605     37604     37606     37606     37608     37609     37606     37608     37610
     37606     37608     37611     37607     37606     37608     37608     37611     37612
     37608     37611     37613     37608     37611     37614     37609     37608     37610
     37609     37608     37611     37610     37608     37611     37611     37614     37615
     37611     37614     37616     37611     37614     37617     37612     37611     37613
     37612     37611     37614     37613     37611     37614     37614     37617     37618
     37614     37617     37619     37614     37617     37620     37615     37614     37616
     37615     37614     37617     37616     37614     37617     37617     37620     37621
     37617     37620     37622     37617     37620     37623     37618     37617     37619
     37618     37617     37620     37619     37617     37620     37620     37623     37624
     37620     37623     37625     37620     37623     37626     37621     37620     37622
     37621     37620     37623     37622     37620     37623     37623     37626     37627
     37623     37626     37628     37623     37626     37629     37624     37623     37625
     37624     37623     37626     37625     37623     37626     37626     37629     37630
     37626     37629     37631     37626     37629     37632     37627     37626     37628
     37627     37626     37629     37628     37626     37629     37630     37629     37631
     37630     37629     37632     37631     37629     37632     37633     37636     37637
     37633     37636     37638     37633     37636     37639     37634     37633     37635
     37634     37633     37636     37635     37633     37636     37636     37639     37640
     37636     37639     37641     37636     37639     37642     37637     37636     37638
     37637     37636     37639     37638     37636     37639     37639     37642     37643
     37639     37642     37644     37639     37642     37645     37640     37639     37641
     37640     37639     37642     37641     37639     37642     37642     37645     37646
     37642     37645     37647     37642     37645     37648     37643     37642     37644
     37643     37642     37645     37644     37642     37645     37645     37648     37649
     37645     37648     37650     37645     37648     37651     37646     37645     37647
     37646     37645     37648     37647     37645     37648     37648     37651     37652
     37648     37651     37653     37648     37651     37654     37649     37648     37650
     37649     37648     37651     37650     37648     37651     37651     37654     37655
     37651     37654     37656     37651     37654     37657     37652     37651     37653
     37652     37651     37654     37653     37651     37654     37654     37657     37658
     37654     37657     37659     37654     37657     37660     37655     37654     37656
     37655     37654     37657     37656     37654     37657     37657     37660     37661
     37657     37660     37662     37657     37660     37663     37658     37657     37659
     37658     37657     37660     37659     37657     37660     37660     37663     37664
     37660     37663     37665     37660     37663     37666     37661     37660     37662
     37661     37660     37663     37662     37660     37663     37663     37666     37667
     37663     37666     37668     37663     37666     37669     37664     37663     37665
     37664     37663     37666     37665     37663     37666     37666     37669     37670
     37666     37669     37671     37666     37669     37672     37667     37666     37668
     37667     37666     37669     37668     37666     37669     37669     37672     37673
     37669     37672     37674     37669     37672     37675     37670     37669     37671
     37670     37669     37672     37671     37669     37672     37673     37672     37674
     37673     37672     37675     37674     37672     37675     37676     37677     37678
     37676     37677     37679     37676     37677     37692     37676     37680     37681
     37676     37680     37682     37676     37680     37683     37676     37684     37685
     37676     37684     37686     37676     37684     37687     37676     37688     37689
     37676     37688     37690     37676     37688     37691     37677     37676     37680
     37677     37676     37684     37677     37676     37688     37677     37692     37693
     37677     37692     37694     37677     37692     37698     37678     37677     37679
     37678     37677     37692     37679     37677     37692     37680     37676     37684
     37680     37676     37688     37681     37680     37682     37681     37680     37683
     37682     37680     37683     37684     37676     37688     37685     37684     37686
     37685     37684     37687     37686     37684     37687     37689     37688     37690
     37689     37688     37691     37690     37688     37691     37692     37698     37695
     37693     37692     37694     37693     37692     37698     37694     37692     37698
     37695     37699     37700     37696     37695     37697     37696     37695     37698
     37696     37695     37699     37697     37695     37698     37697     37695     37699
     37698     37695     37699     37699     37700     37701     37699     37700     37702
     37699     37700     37703     37700     37703     37704     37700     37703     37705
     37700     37703     37711     37701     37700     37702     37701     37700     37703
     37702     37700     37703     37703     37705     37706     37703     37711     37712
     37703     37711     37713     37703     37711     37714     37704     37703     37705
     37704     37703     37711     37705     37703     37711     37705     37706     37707
     37705     37706     37708     37706     37708     37709     37706     37708     37710
     37706     37708     37720     37707     37706     37708     37708     37720     37721
     37708     37720     37722     37708     37720     37723     37709     37708     37710
     37709     37708     37720     37710     37708     37720     37711     37714     37715
     37712     37711     37713     37712     37711     37714     37713     37711     37714
     37714     37715     37716     37714     37715     37717     37715     37717     37718
     37715     37717     37719     37715     37717     37767     37716     37715     37717
     37717     37767     37768     37717     37767     37769     37717     37767     37770
     37718     37717     37719     37718     37717     37767     37719     37717     37767
     37720     37723     37724     37720     37723     37725     37720     37723     37726
     37721     37720     37722     37721     37720     37723     37722     37720     37723
     37723     37726     37727     37723     37726     37728     37723     37726     37729
     37724     37723     37725     37724     37723     37726     37725     37723     37726
     37726     37729     37730     37726     37729     37731     37726     37729     37732
     37727     37726     37728     37727     37726     37729     37728     37726     37729
     37729     37732     37733     37729     37732     37734     37729     37732     37735
     37730     37729     37731     37730     37729     37732     37731     37729     37732
     37732     37735     37736     37732     37735     37737     37732     37735     37738
     37733     37732     37734     37733     37732     37735     37734     37732     37735
     37735     37738     37739     37735     37738     37740     37736     37735     37737
     37736     37735     37738     37737     37735     37738     37738     37740     37741
     37738     37740     37742     37739     37738     37740     37740     37742     37743
     37740     37742     37744     37740     37742     37745     37741     37740     37742
     37742     37745     37746     37742     37745     37747     37742     37745     37748
     37743     37742     37744     37743     37742     37745     37744     37742     37745
     37745     37748     37749     37745     37748     37750     37745     37748     37751
     37746     37745     37747     37746     37745     37748     37747     37745     37748
     37748     37751     37752     37748     37751     37753     37748     37751     37754
     37749     37748     37750     37749     37748     37751     37750     37748     37751
     37751     37754     37755     37751     37754     37756     37751     37754     37757
     37752     37751     37753     37752     37751     37754     37753     37751     37754
     37754     37757     37758     37754     37757     37759     37754     37757     37760
     37755     37754     37756     37755     37754     37757     37756     37754     37757
     37757     37760     37761     37757     37760     37762     37757     37760     37763
     37758     37757     37759     37758     37757     37760     37759     37757     37760
     37760     37763     37764     37760     37763     37765     37760     37763     37766
     37761     37760     37762     37761     37760     37763     37762     37760     37763
     37764     37763     37765     37764     37763     37766     37765     37763     37766
     37767     37770     37771     37767     37770     37772     37767     37770     37773
     37768     37767     37769     37768     37767     37770     37769     37767     37770
     37770     37773     37774     37770     37773     37775     37770     37773     37776
     37771     37770     37772     37771     37770     37773     37772     37770     37773
     37773     37776     37777     37773     37776     37778     37773     37776     37779
     37774     37773     37775     37774     37773     37776     37775     37773     37776
     37776     37779     37780     37776     37779     37781     37776     37779     37782
     37777     37776     37778     37777     37776     37779     37778     37776     37779
     37779     37782     37783     37779     37782     37784     37779     37782     37785
     37780     37779     37781     37780     37779     37782     37781     37779     37782
     37782     37785     37786     37782     37785     37787     37782     37785     37788
     37783     37782     37784     37783     37782     37785     37784     37782     37785
     37785     37788     37789     37785     37788     37790     37785     37788     37791
     37786     37785     37787     37786     37785     37788     37787     37785     37788
     37788     37791     37792     37788     37791     37793     37788     37791     37794
     37789     37788     37790     37789     37788     37791     37790     37788     37791
     37791     37794     37795     37791     37794     37796     37791     37794     37797
     37792     37791     37793     37792     37791     37794     37793     37791     37794
     37794     37797     37798     37794     37797     37799     37794     37797     37800
     37795     37794     37796     37795     37794     37797     37796     37794     37797
     37797     37800     37801     37797     37800     37802     37797     37800     37803
     37798     37797     37799     37798     37797     37800     37799     37797     37800
     37800     37803     37804     37800     37803     37805     37800     37803     37806
     37801     37800     37802     37801     37800     37803     37802     37800     37803
     37803     37806     37807     37803     37806     37808     37803     37806     37809
     37804     37803     37805     37804     37803     37806     37805     37803     37806
     37807     37806     37808     37807     37806     37809     37808     37806     37809
     37810     37811     37812     37810     37811     37813     37810     37811     37826
     37810     37814     37815     37810     37814     37816     37810     37814     37817
     37810     37818     37819     37810     37818     37820     37810     37818     37821
     37810     37822     37823     37810     37822     37824     37810     37822     37825
     37811     37810     37814     37811     37810     37818     37811     37810     37822
     37811     37826     37827     37811     37826     37828     37811     37826     37832
     37812     37811     37813     37812     37811     37826     37813     37811     37826
     37814     37810     37818     37814     37810     37822     37815     37814     37816
     37815     37814     37817     37816     37814     37817     37818     37810     37822
     37819     37818     37820     37819     37818     37821     37820     37818     37821
     37823     37822     37824     37823     37822     37825     37824     37822     37825
     37826     37832     37829     37827     37826     37828     37827     37826     37832
     37828     37826     37832     37829     37833     37834     37830     37829     37831
     37830     37829     37832     37830     37829     37833     37831     37829     37832
     37831     37829     37833     37832     37829     37833     37833     37834     37835
     37833     37834     37836     37833     37834     37837     37834     37837     37838
     37834     37837     37839     37834     37837     37845     37835     37834     37836
     37835     37834     37837     37836     37834     37837     37837     37839     37840
     37837     37845     37846     37837     37845     37847     37837     37845     37848
     37838     37837     37839     37838     37837     37845     37839     37837     37845
     37839     37840     37841     37839     37840     37842     37840     37842     37843
     37840     37842     37844     37840     37842     37854     37841     37840     37842
     37842     37854     37855     37842     37854     37856     37842     37854     37857
     37843     37842     37844     37843     37842     37854     37844     37842     37854
     37845     37848     37849     37846     37845     37847     37846     37845     37848
     37847     37845     37848     37848     37849     37850     37848     37849     37851
     37849     37851     37852     37849     37851     37853     37849     37851     37901
     37850     37849     37851     37851     37901     37902     37851     37901     37903
     37851     37901     37904     37852     37851     37853     37852     37851     37901
     37853     37851     37901     37854     37857     37858     37854     37857     37859
     37854     37857     37860     37855     37854     37856     37855     37854     37857
     37856     37854     37857     37857     37860     37861     37857     37860     37862
     37857     37860     37863     37858     37857     37859     37858     37857     37860
     37859     37857     37860     37860     37863     37864     37860     37863     37865
     37860     37863     37866     37861     37860     37862     37861     37860     37863
     37862     37860     37863     37863     37866     37867     37863     37866     37868
     37863     37866     37869     37864     37863     37865     37864     37863     37866
     37865     37863     37866     37866     37869     37870     37866     37869     37871
     37866     37869     37872     37867     37866     37868     37867     37866     37869
     37868     37866     37869     37869     37872     37873     37869     37872     37874
     37870     37869     37871     37870     37869     37872     37871     37869     37872
     37872     37874     37875     37872     37874     37876     37873     37872     37874
     37874     37876     37877     37874     37876     37878     37874     37876     37879
     37875     37874     37876     37876     37879     37880     37876     37879     37881
     37876     37879     37882     37877     37876     37878     37877     37876     37879
     37878     37876     37879     37879     37882     37883     37879     37882     37884
     37879     37882     37885     37880     37879     37881     37880     37879     37882
     37881     37879     37882     37882     37885     37886     37882     37885     37887
     37882     37885     37888     37883     37882     37884     37883     37882     37885
     37884     37882     37885     37885     37888     37889     37885     37888     37890
     37885     37888     37891     37886     37885     37887     37886     37885     37888
     37887     37885     37888     37888     37891     37892     37888     37891     37893
     37888     37891     37894     37889     37888     37890     37889     37888     37891
     37890     37888     37891     37891     37894     37895     37891     37894     37896
     37891     37894     37897     37892     37891     37893     37892     37891     37894
     37893     37891     37894     37894     37897     37898     37894     37897     37899
     37894     37897     37900     37895     37894     37896     37895     37894     37897
     37896     37894     37897     37898     37897     37899     37898     37897     37900
     37899     37897     37900     37901     37904     37905     37901     37904     37906
     37901     37904     37907     37902     37901     37903     37902     37901     37904
     37903     37901     37904     37904     37907     37908     37904     37907     37909
     37904     37907     37910     37905     37904     37906     37905     37904     37907
     37906     37904     37907     37907     37910     37911     37907     37910     37912
     37907     37910     37913     37908     37907     37909     37908     37907     37910
     37909     37907     37910     37910     37913     37914     37910     37913     37915
     37910     37913     37916     37911     37910     37912     37911     37910     37913
     37912     37910     37913     37913     37916     37917     37913     37916     37918
     37913     37916     37919     37914     37913     37915     37914     37913     37916
     37915     37913     37916     37916     37919     37920     37916     37919     37921
     37916     37919     37922     37917     37916     37918     37917     37916     37919
     37918     37916     37919     37919     37922     37923     37919     37922     37924
     37919     37922     37925     37920     37919     37921     37920     37919     37922
     37921     37919     37922     37922     37925     37926     37922     37925     37927
     37922     37925     37928     37923     37922     37924     37923     37922     37925
     37924     37922     37925     37925     37928     37929     37925     37928     37930
     37925     37928     37931     37926     37925     37927     37926     37925     37928
     37927     37925     37928     37928     37931     37932     37928     37931     37933
     37928     37931     37934     37929     37928     37930     37929     37928     37931
     37930     37928     37931     37931     37934     37935     37931     37934     37936
     37931     37934     37937     37932     37931     37933     37932     37931     37934
     37933     37931     37934     37934     37937     37938     37934     37937     37939
     37934     37937     37940     37935     37934     37936     37935     37934     37937
     37936     37934     37937     37937     37940     37941     37937     37940     37942
     37937     37940     37943     37938     37937     37939     37938     37937     37940
     37939     37937     37940     37941     37940     37942     37941     37940     37943
     37942     37940     37943     37944     37945     37946     37944     37945     37947
     37944     37945     37960     37944     37948     37949     37944     37948     37950
     37944     37948     37951     37944     37952     37953     37944     37952     37954
     37944     37952     37955     37944     37956     37957     37944     37956     37958
     37944     37956     37959     37945     37944     37948     37945     37944     37952
     37945     37944     37956     37945     37960     37961     37945     37960     37962
     37945     37960     37966     37946     37945     37947     37946     37945     37960
     37947     37945     37960     37948     37944     37952     37948     37944     37956
     37949     37948     37950     37949     37948     37951     37950     37948     37951
     37952     37944     37956     37953     37952     37954     37953     37952     37955
     37954     37952     37955     37957     37956     37958     37957     37956     37959
     37958     37956     37959     37960     37966     37963     37961     37960     37962
     37961     37960     37966     37962     37960     37966     37963     37967     37968
     37964     37963     37965     37964     37963     37966     37964     37963     37967
     37965     37963     37966     37965     37963     37967     37966     37963     37967
     37967     37968     37969     37967     37968     37970     37967     37968     37971
     37968     37971     37972     37968     37971     37973     37968     37971     37979
     37969     37968     37970     37969     37968     37971     37970     37968     37971
     37971     37973     37974     37971     37979     37980     37971     37979     37981
     37971     37979     37982     37972     37971     37973     37972     37971     37979
     37973     37971     37979     37973     37974     37975     37973     37974     37976
     37974     37976     37977     37974     37976     37978     37974     37976     37988
     37975     37974     37976     37976     37988     37989     37976     37988     37990
     37976     37988     37991     37977     37976     37978     37977     37976     37988
     37978     37976     37988     37979     37982     37983     37980     37979     37981
     37980     37979     37982     37981     37979     37982     37982     37983     37984
     37982     37983     37985     37983     37985     37986     37983     37985     37987
     37983     37985     38035     37984     37983     37985     37985     38035     38036
     37985     38035     38037     37985     38035     38038     37986     37985     37987
     37986     37985     38035     37987     37985     38035     37988     37991     37992
     37988     37991     37993     37988     37991     37994     37989     37988     37990
     37989     37988     37991     37990     37988     37991     37991     37994     37995
     37991     37994     37996     37991     37994     37997     37992     37991     37993
     37992     37991     37994     37993     37991     37994     37994     37997     37998
     37994     37997     37999     37994     37997     38000     37995     37994     37996
     37995     37994     37997     37996     37994     37997     37997     38000     38001
     37997     38000     38002     37997     38000     38003     37998     37997     37999
     37998     37997     38000     37999     37997     38000     38000     38003     38004
     38000     38003     38005     38000     38003     38006     38001     38000     38002
     38001     38000     38003     38002     38000     38003     38003     38006     38007
     38003     38006     38008     38004     38003     38005     38004     38003     38006
     38005     38003     38006     38006     38008     38009     38006     38008     38010
     38007     38006     38008     38008     38010     38011     38008     38010     38012
     38008     38010     38013     38009     38008     38010     38010     38013     38014
     38010     38013     38015     38010     38013     38016     38011     38010     38012
     38011     38010     38013     38012     38010     38013     38013     38016     38017
     38013     38016     38018     38013     38016     38019     38014     38013     38015
     38014     38013     38016     38015     38013     38016     38016     38019     38020
     38016     38019     38021     38016     38019     38022     38017     38016     38018
     38017     38016     38019     38018     38016     38019     38019     38022     38023
     38019     38022     38024     38019     38022     38025     38020     38019     38021
     38020     38019     38022     38021     38019     38022     38022     38025     38026
     38022     38025     38027     38022     38025     38028     38023     38022     38024
     38023     38022     38025     38024     38022     38025     38025     38028     38029
     38025     38028     38030     38025     38028     38031     38026     38025     38027
     38026     38025     38028     38027     38025     38028     38028     38031     38032
     38028     38031     38033     38028     38031     38034     38029     38028     38030
     38029     38028     38031     38030     38028     38031     38032     38031     38033
     38032     38031     38034     38033     38031     38034     38035     38038     38039
     38035     38038     38040     38035     38038     38041     38036     38035     38037
     38036     38035     38038     38037     38035     38038     38038     38041     38042
     38038     38041     38043     38038     38041     38044     38039     38038     38040
     38039     38038     38041     38040     38038     38041     38041     38044     38045
     38041     38044     38046     38041     38044     38047     38042     38041     38043
     38042     38041     38044     38043     38041     38044     38044     38047     38048
     38044     38047     38049     38044     38047     38050     38045     38044     38046
     38045     38044     38047     38046     38044     38047     38047     38050     38051
     38047     38050     38052     38047     38050     38053     38048     38047     38049
     38048     38047     38050     38049     38047     38050     38050     38053     38054
     38050     38053     38055     38050     38053     38056     38051     38050     38052
     38051     38050     38053     38052     38050     38053     38053     38056     38057
     38053     38056     38058     38053     38056     38059     38054     38053     38055
     38054     38053     38056     38055     38053     38056     38056     38059     38060
     38056     38059     38061     38056     38059     38062     38057     38056     38058
     38057     38056     38059     38058     38056     38059     38059     38062     38063
     38059     38062     38064     38059     38062     38065     38060     38059     38061
     38060     38059     38062     38061     38059     38062     38062     38065     38066
     38062     38065     38067     38062     38065     38068     38063     38062     38064
     38063     38062     38065     38064     38062     38065     38065     38068     38069
     38065     38068     38070     38065     38068     38071     38066     38065     38067
     38066     38065     38068     38067     38065     38068     38068     38071     38072
     38068     38071     38073     38068     38071     38074     38069     38068     38070
     38069     38068     38071     38070     38068     38071     38071     38074     38075
     38071     38074     38076     38071     38074     38077     38072     38071     38073
     38072     38071     38074     38073     38071     38074     38075     38074     38076
     38075     38074     38077     38076     38074     38077     38078     38082     38083
     38078     38082     38084     38078     38082     38085     38079     38078     38080
     38079     38078     38081     38079     38078     38082     38080     38078     38081
     38080     38078     38082     38081     38078     38082     38082     38085     38086
     38082     38085     38087     38082     38085     38092     38083     38082     38084
     38083     38082     38085     38084     38082     38085     38085     38092     38088
     38086     38085     38087     38086     38085     38092     38087     38085     38092
     38088     38091     38093     38089     38088     38090     38089     38088     38091
     38089     38088     38092     38090     38088     38091     38090     38088     38092
     38091     38088     38092     38091     38093     38094     38091     38093     38095
     38091     38093     38096     38093     38096     38097     38093     38096     38098
     38093     38096     38104     38094     38093     38095     38094     38093     38096
     38095     38093     38096     38096     38098     38099     38096     38104     38105
     38096     38104     38106     38096     38104     38107     38097     38096     38098
     38097     38096     38104     38098     38096     38104     38098     38099     38100
     38098     38099     38101     38099     38101     38102     38099     38101     38103
     38099     38101     38113     38100     38099     38101     38101     38113     38114
     38101     38113     38115     38101     38113     38116     38102     38101     38103
     38102     38101     38113     38103     38101     38113     38104     38107     38108
     38105     38104     38106     38105     38104     38107     38106     38104     38107
     38107     38108     38109     38107     38108     38110     38108     38110     38111
     38108     38110     38112     38108     38110     38160     38109     38108     38110
     38110     38160     38161     38110     38160     38162     38110     38160     38163
     38111     38110     38112     38111     38110     38160     38112     38110     38160
     38113     38116     38117     38113     38116     38118     38113     38116     38119
     38114     38113     38115     38114     38113     38116     38115     38113     38116
     38116     38119     38120     38116     38119     38121     38116     38119     38122
     38117     38116     38118     38117     38116     38119     38118     38116     38119
     38119     38122     38123     38119     38122     38124     38119     38122     38125
     38120     38119     38121     38120     38119     38122     38121     38119     38122
     38122     38125     38126     38122     38125     38127     38122     38125     38128
     38123     38122     38124     38123     38122     38125     38124     38122     38125
     38125     38128     38129     38125     38128     38130     38125     38128     38131
     38126     38125     38127     38126     38125     38128     38127     38125     38128
     38128     38131     38132     38128     38131     38133     38129     38128     38130
     38129     38128     38131     38130     38128     38131     38131     38133     38134
     38131     38133     38135     38132     38131     38133     38133     38135     38136
     38133     38135     38137     38133     38135     38138     38134     38133     38135
     38135     38138     38139     38135     38138     38140     38135     38138     38141
     38136     38135     38137     38136     38135     38138     38137     38135     38138
     38138     38141     38142     38138     38141     38143     38138     38141     38144
     38139     38138     38140     38139     38138     38141     38140     38138     38141
     38141     38144     38145     38141     38144     38146     38141     38144     38147
     38142     38141     38143     38142     38141     38144     38143     38141     38144
     38144     38147     38148     38144     38147     38149     38144     38147     38150
     38145     38144     38146     38145     38144     38147     38146     38144     38147
     38147     38150     38151     38147     38150     38152     38147     38150     38153
     38148     38147     38149     38148     38147     38150     38149     38147     38150
     38150     38153     38154     38150     38153     38155     38150     38153     38156
     38151     38150     38152     38151     38150     38153     38152     38150     38153
     38153     38156     38157     38153     38156     38158     38153     38156     38159
     38154     38153     38155     38154     38153     38156     38155     38153     38156
     38157     38156     38158     38157     38156     38159     38158     38156     38159
     38160     38163     38164     38160     38163     38165     38160     38163     38166
     38161     38160     38162     38161     38160     38163     38162     38160     38163
     38163     38166     38167     38163     38166     38168     38163     38166     38169
     38164     38163     38165     38164     38163     38166     38165     38163     38166
     38166     38169     38170     38166     38169     38171     38166     38169     38172
     38167     38166     38168     38167     38166     38169     38168     38166     38169
     38169     38172     38173     38169     38172     38174     38169     38172     38175
     38170     38169     38171     38170     38169     38172     38171     38169     38172
     38172     38175     38176     38172     38175     38177     38172     38175     38178
     38173     38172     38174     38173     38172     38175     38174     38172     38175
     38175     38178     38179     38175     38178     38180     38175     38178     38181
     38176     38175     38177     38176     38175     38178     38177     38175     38178
     38178     38181     38182     38178     38181     38183     38178     38181     38184
     38179     38178     38180     38179     38178     38181     38180     38178     38181
     38181     38184     38185     38181     38184     38186     38181     38184     38187
     38182     38181     38183     38182     38181     38184     38183     38181     38184
     38184     38187     38188     38184     38187     38189     38184     38187     38190
     38185     38184     38186     38185     38184     38187     38186     38184     38187
     38187     38190     38191     38187     38190     38192     38187     38190     38193
     38188     38187     38189     38188     38187     38190     38189     38187     38190
     38190     38193     38194     38190     38193     38195     38190     38193     38196
     38191     38190     38192     38191     38190     38193     38192     38190     38193
     38193     38196     38197     38193     38196     38198     38193     38196     38199
     38194     38193     38195     38194     38193     38196     38195     38193     38196
     38196     38199     38200     38196     38199     38201     38196     38199     38202
     38197     38196     38198     38197     38196     38199     38198     38196     38199
     38200     38199     38201     38200     38199     38202     38201     38199     38202
     38203     38207     38208     38203     38207     38209     38203     38207     38210
     38204     38203     38205     38204     38203     38206     38204     38203     38207
     38205     38203     38206     38205     38203     38207     38206     38203     38207
     38207     38210     38211     38207     38210     38212     38207     38210     38217
     38208     38207     38209     38208     38207     38210     38209     38207     38210
     38210     38217     38213     38211     38210     38212     38211     38210     38217
     38212     38210     38217     38213     38216     38218     38214     38213     38215
     38214     38213     38216     38214     38213     38217     38215     38213     38216
     38215     38213     38217     38216     38213     38217     38216     38218     38219
     38216     38218     38220     38216     38218     38221     38218     38221     38222
     38218     38221     38223     38218     38221     38229     38219     38218     38220
     38219     38218     38221     38220     38218     38221     38221     38223     38224
     38221     38229     38230     38221     38229     38231     38221     38229     38232
     38222     38221     38223     38222     38221     38229     38223     38221     38229
     38223     38224     38225     38223     38224     38226     38224     38226     38227
     38224     38226     38228     38224     38226     38238     38225     38224     38226
     38226     38238     38239     38226     38238     38240     38226     38238     38241
     38227     38226     38228     38227     38226     38238     38228     38226     38238
     38229     38232     38233     38230     38229     38231     38230     38229     38232
     38231     38229     38232     38232     38233     38234     38232     38233     38235
     38233     38235     38236     38233     38235     38237     38233     38235     38285
     38234     38233     38235     38235     38285     38286     38235     38285     38287
     38235     38285     38288     38236     38235     38237     38236     38235     38285
     38237     38235     38285     38238     38241     38242     38238     38241     38243
     38238     38241     38244     38239     38238     38240     38239     38238     38241
     38240     38238     38241     38241     38244     38245     38241     38244     38246
     38241     38244     38247     38242     38241     38243     38242     38241     38244
     38243     38241     38244     38244     38247     38248     38244     38247     38249
     38244     38247     38250     38245     38244     38246     38245     38244     38247
     38246     38244     38247     38247     38250     38251     38247     38250     38252
     38247     38250     38253     38248     38247     38249     38248     38247     38250
     38249     38247     38250     38250     38253     38254     38250     38253     38255
     38250     38253     38256     38251     38250     38252     38251     38250     38253
     38252     38250     38253     38253     38256     38257     38253     38256     38258
     38254     38253     38255     38254     38253     38256     38255     38253     38256
     38256     38258     38259     38256     38258     38260     38257     38256     38258
     38258     38260     38261     38258     38260     38262     38258     38260     38263
     38259     38258     38260     38260     38263     38264     38260     38263     38265
     38260     38263     38266     38261     38260     38262     38261     38260     38263
     38262     38260     38263     38263     38266     38267     38263     38266     38268
     38263     38266     38269     38264     38263     38265     38264     38263     38266
     38265     38263     38266     38266     38269     38270     38266     38269     38271
     38266     38269     38272     38267     38266     38268     38267     38266     38269
     38268     38266     38269     38269     38272     38273     38269     38272     38274
     38269     38272     38275     38270     38269     38271     38270     38269     38272
     38271     38269     38272     38272     38275     38276     38272     38275     38277
     38272     38275     38278     38273     38272     38274     38273     38272     38275
     38274     38272     38275     38275     38278     38279     38275     38278     38280
     38275     38278     38281     38276     38275     38277     38276     38275     38278
     38277     38275     38278     38278     38281     38282     38278     38281     38283
     38278     38281     38284     38279     38278     38280     38279     38278     38281
     38280     38278     38281     38282     38281     38283     38282     38281     38284
     38283     38281     38284     38285     38288     38289     38285     38288     38290
     38285     38288     38291     38286     38285     38287     38286     38285     38288
     38287     38285     38288     38288     38291     38292     38288     38291     38293
     38288     38291     38294     38289     38288     38290     38289     38288     38291
     38290     38288     38291     38291     38294     38295     38291     38294     38296
     38291     38294     38297     38292     38291     38293     38292     38291     38294
     38293     38291     38294     38294     38297     38298     38294     38297     38299
     38294     38297     38300     38295     38294     38296     38295     38294     38297
     38296     38294     38297     38297     38300     38301     38297     38300     38302
     38297     38300     38303     38298     38297     38299     38298     38297     38300
     38299     38297     38300     38300     38303     38304     38300     38303     38305
     38300     38303     38306     38301     38300     38302     38301     38300     38303
     38302     38300     38303     38303     38306     38307     38303     38306     38308
     38303     38306     38309     38304     38303     38305     38304     38303     38306
     38305     38303     38306     38306     38309     38310     38306     38309     38311
     38306     38309     38312     38307     38306     38308     38307     38306     38309
     38308     38306     38309     38309     38312     38313     38309     38312     38314
     38309     38312     38315     38310     38309     38311     38310     38309     38312
     38311     38309     38312     38312     38315     38316     38312     38315     38317
     38312     38315     38318     38313     38312     38314     38313     38312     38315
     38314     38312     38315     38315     38318     38319     38315     38318     38320
     38315     38318     38321     38316     38315     38317     38316     38315     38318
     38317     38315     38318     38318     38321     38322     38318     38321     38323
     38318     38321     38324     38319     38318     38320     38319     38318     38321
     38320     38318     38321     38321     38324     38325     38321     38324     38326
     38321     38324     38327     38322     38321     38323     38322     38321     38324
     38323     38321     38324     38325     38324     38326     38325     38324     38327
     38326     38324     38327     38328     38329     38330     38328     38329     38331
     38328     38329     38344     38328     38332     38333     38328     38332     38334
     38328     38332     38335     38328     38336     38337     38328     38336     38338
     38328     38336     38339     38328     38340     38341     38328     38340     38342
     38328     38340     38343     38329     38328     38332     38329     38328     38336
     38329     38328     38340     38329     38344     38345     38329     38344     38346
     38329     38344     38350     38330     38329     38331     38330     38329     38344
     38331     38329     38344     38332     38328     38336     38332     38328     38340
     38333     38332     38334     38333     38332     38335     38334     38332     38335
     38336     38328     38340     38337     38336     38338     38337     38336     38339
     38338     38336     38339     38341     38340     38342     38341     38340     38343
     38342     38340     38343     38344     38350     38347     38345     38344     38346
     38345     38344     38350     38346     38344     38350     38347     38351     38352
     38348     38347     38349     38348     38347     38350     38348     38347     38351
     38349     38347     38350     38349     38347     38351     38350     38347     38351
     38351     38352     38353     38351     38352     38354     38351     38352     38355
     38352     38355     38356     38352     38355     38357     38352     38355     38363
     38353     38352     38354     38353     38352     38355     38354     38352     38355
     38355     38357     38358     38355     38363     38364     38355     38363     38365
     38355     38363     38366     38356     38355     38357     38356     38355     38363
     38357     38355     38363     38357     38358     38359     38357     38358     38360
     38358     38360     38361     38358     38360     38362     38358     38360     38372
     38359     38358     38360     38360     38372     38373     38360     38372     38374
     38360     38372     38375     38361     38360     38362     38361     38360     38372
     38362     38360     38372     38363     38366     38367     38364     38363     38365
     38364     38363     38366     38365     38363     38366     38366     38367     38368
     38366     38367     38369     38367     38369     38370     38367     38369     38371
     38367     38369     38419     38368     38367     38369     38369     38419     38420
     38369     38419     38421     38369     38419     38422     38370     38369     38371
     38370     38369     38419     38371     38369     38419     38372     38375     38376
     38372     38375     38377     38372     38375     38378     38373     38372     38374
     38373     38372     38375     38374     38372     38375     38375     38378     38379
     38375     38378     38380     38375     38378     38381     38376     38375     38377
     38376     38375     38378     38377     38375     38378     38378     38381     38382
     38378     38381     38383     38378     38381     38384     38379     38378     38380
     38379     38378     38381     38380     38378     38381     38381     38384     38385
     38381     38384     38386     38381     38384     38387     38382     38381     38383
     38382     38381     38384     38383     38381     38384     38384     38387     38388
     38384     38387     38389     38384     38387     38390     38385     38384     38386
     38385     38384     38387     38386     38384     38387     38387     38390     38391
     38387     38390     38392     38388     38387     38389     38388     38387     38390
     38389     38387     38390     38390     38392     38393     38390     38392     38394
     38391     38390     38392     38392     38394     38395     38392     38394     38396
     38392     38394     38397     38393     38392     38394     38394     38397     38398
     38394     38397     38399     38394     38397     38400     38395     38394     38396
     38395     38394     38397     38396     38394     38397     38397     38400     38401
     38397     38400     38402     38397     38400     38403     38398     38397     38399
     38398     38397     38400     38399     38397     38400     38400     38403     38404
     38400     38403     38405     38400     38403     38406     38401     38400     38402
     38401     38400     38403     38402     38400     38403     38403     38406     38407
     38403     38406     38408     38403     38406     38409     38404     38403     38405
     38404     38403     38406     38405     38403     38406     38406     38409     38410
     38406     38409     38411     38406     38409     38412     38407     38406     38408
     38407     38406     38409     38408     38406     38409     38409     38412     38413
     38409     38412     38414     38409     38412     38415     38410     38409     38411
     38410     38409     38412     38411     38409     38412     38412     38415     38416
     38412     38415     38417     38412     38415     38418     38413     38412     38414
     38413     38412     38415     38414     38412     38415     38416     38415     38417
     38416     38415     38418     38417     38415     38418     38419     38422     38423
     38419     38422     38424     38419     38422     38425     38420     38419     38421
     38420     38419     38422     38421     38419     38422     38422     38425     38426
     38422     38425     38427     38422     38425     38428     38423     38422     38424
     38423     38422     38425     38424     38422     38425     38425     38428     38429
     38425     38428     38430     38425     38428     38431     38426     38425     38427
     38426     38425     38428     38427     38425     38428     38428     38431     38432
     38428     38431     38433     38428     38431     38434     38429     38428     38430
     38429     38428     38431     38430     38428     38431     38431     38434     38435
     38431     38434     38436     38431     38434     38437     38432     38431     38433
     38432     38431     38434     38433     38431     38434     38434     38437     38438
     38434     38437     38439     38434     38437     38440     38435     38434     38436
     38435     38434     38437     38436     38434     38437     38437     38440     38441
     38437     38440     38442     38437     38440     38443     38438     38437     38439
     38438     38437     38440     38439     38437     38440     38440     38443     38444
     38440     38443     38445     38440     38443     38446     38441     38440     38442
     38441     38440     38443     38442     38440     38443     38443     38446     38447
     38443     38446     38448     38443     38446     38449     38444     38443     38445
     38444     38443     38446     38445     38443     38446     38446     38449     38450
     38446     38449     38451     38446     38449     38452     38447     38446     38448
     38447     38446     38449     38448     38446     38449     38449     38452     38453
     38449     38452     38454     38449     38452     38455     38450     38449     38451
     38450     38449     38452     38451     38449     38452     38452     38455     38456
     38452     38455     38457     38452     38455     38458     38453     38452     38454
     38453     38452     38455     38454     38452     38455     38455     38458     38459
     38455     38458     38460     38455     38458     38461     38456     38455     38457
     38456     38455     38458     38457     38455     38458     38459     38458     38460
     38459     38458     38461     38460     38458     38461     38462     38463     38464
     38462     38463     38465     38462     38463     38478     38462     38466     38467
     38462     38466     38468     38462     38466     38469     38462     38470     38471
     38462     38470     38472     38462     38470     38473     38462     38474     38475
     38462     38474     38476     38462     38474     38477     38463     38462     38466
     38463     38462     38470     38463     38462     38474     38463     38478     38479
     38463     38478     38480     38463     38478     38484     38464     38463     38465
     38464     38463     38478     38465     38463     38478     38466     38462     38470
     38466     38462     38474     38467     38466     38468     38467     38466     38469
     38468     38466     38469     38470     38462     38474     38471     38470     38472
     38471     38470     38473     38472     38470     38473     38475     38474     38476
     38475     38474     38477     38476     38474     38477     38478     38484     38481
     38479     38478     38480     38479     38478     38484     38480     38478     38484
     38481     38485     38486     38482     38481     38483     38482     38481     38484
     38482     38481     38485     38483     38481     38484     38483     38481     38485
     38484     38481     38485     38485     38486     38487     38485     38486     38488
     38485     38486     38489     38486     38489     38490     38486     38489     38491
     38486     38489     38497     38487     38486     38488     38487     38486     38489
     38488     38486     38489     38489     38491     38492     38489     38497     38498
     38489     38497     38499     38489     38497     38500     38490     38489     38491
     38490     38489     38497     38491     38489     38497     38491     38492     38493
     38491     38492     38494     38492     38494     38495     38492     38494     38496
     38492     38494     38506     38493     38492     38494     38494     38506     38507
     38494     38506     38508     38494     38506     38509     38495     38494     38496
     38495     38494     38506     38496     38494     38506     38497     38500     38501
     38498     38497     38499     38498     38497     38500     38499     38497     38500
     38500     38501     38502     38500     38501     38503     38501     38503     38504
     38501     38503     38505     38501     38503     38553     38502     38501     38503
     38503     38553     38554     38503     38553     38555     38503     38553     38556
     38504     38503     38505     38504     38503     38553     38505     38503     38553
     38506     38509     38510     38506     38509     38511     38506     38509     38512
     38507     38506     38508     38507     38506     38509     38508     38506     38509
     38509     38512     38513     38509     38512     38514     38509     38512     38515
     38510     38509     38511     38510     38509     38512     38511     38509     38512
     38512     38515     38516     38512     38515     38517     38512     38515     38518
     38513     38512     38514     38513     38512     38515     38514     38512     38515
     38515     38518     38519     38515     38518     38520     38515     38518     38521
     38516     38515     38517     38516     38515     38518     38517     38515     38518
     38518     38521     38522     38518     38521     38523     38518     38521     38524
     38519     38518     38520     38519     38518     38521     38520     38518     38521
     38521     38524     38525     38521     38524     38526     38522     38521     38523
     38522     38521     38524     38523     38521     38524     38524     38526     38527
     38524     38526     38528     38525     38524     38526     38526     38528     38529
     38526     38528     38530     38526     38528     38531     38527     38526     38528
     38528     38531     38532     38528     38531     38533     38528     38531     38534
     38529     38528     38530     38529     38528     38531     38530     38528     38531
     38531     38534     38535     38531     38534     38536     38531     38534     38537
     38532     38531     38533     38532     38531     38534     38533     38531     38534
     38534     38537     38538     38534     38537     38539     38534     38537     38540
     38535     38534     38536     38535     38534     38537     38536     38534     38537
     38537     38540     38541     38537     38540     38542     38537     38540     38543
     38538     38537     38539     38538     38537     38540     38539     38537     38540
     38540     38543     38544     38540     38543     38545     38540     38543     38546
     38541     38540     38542     38541     38540     38543     38542     38540     38543
     38543     38546     38547     38543     38546     38548     38543     38546     38549
     38544     38543     38545     38544     38543     38546     38545     38543     38546
     38546     38549     38550     38546     38549     38551     38546     38549     38552
     38547     38546     38548     38547     38546     38549     38548     38546     38549
     38550     38549     38551     38550     38549     38552     38551     38549     38552
     38553     38556     38557     38553     38556     38558     38553     38556     38559
     38554     38553     38555     38554     38553     38556     38555     38553     38556
     38556     38559     38560     38556     38559     38561     38556     38559     38562
     38557     38556     38558     38557     38556     38559     38558     38556     38559
     38559     38562     38563     38559     38562     38564     38559     38562     38565
     38560     38559     38561     38560     38559     38562     38561     38559     38562
     38562     38565     38566     38562     38565     38567     38562     38565     38568
     38563     38562     38564     38563     38562     38565     38564     38562     38565
     38565     38568     38569     38565     38568     38570     38565     38568     38571
     38566     38565     38567     38566     38565     38568     38567     38565     38568
     38568     38571     38572     38568     38571     38573     38568     38571     38574
     38569     38568     38570     38569     38568     38571     38570     38568     38571
     38571     38574     38575     38571     38574     38576     38571     38574     38577
     38572     38571     38573     38572     38571     38574     38573     38571     38574
     38574     38577     38578     38574     38577     38579     38574     38577     38580
     38575     38574     38576     38575     38574     38577     38576     38574     38577
     38577     38580     38581     38577     38580     38582     38577     38580     38583
     38578     38577     38579     38578     38577     38580     38579     38577     38580
     38580     38583     38584     38580     38583     38585     38580     38583     38586
     38581     38580     38582     38581     38580     38583     38582     38580     38583
     38583     38586     38587     38583     38586     38588     38583     38586     38589
     38584     38583     38585     38584     38583     38586     38585     38583     38586
     38586     38589     38590     38586     38589     38591     38586     38589     38592
     38587     38586     38588     38587     38586     38589     38588     38586     38589
     38589     38592     38593     38589     38592     38594     38589     38592     38595
     38590     38589     38591     38590     38589     38592     38591     38589     38592
     38593     38592     38594     38593     38592     38595     38594     38592     38595
     38596     38597     38598     38596     38597     38599     38596     38597     38612
     38596     38600     38601     38596     38600     38602     38596     38600     38603
     38596     38604     38605     38596     38604     38606     38596     38604     38607
     38596     38608     38609     38596     38608     38610     38596     38608     38611
     38597     38596     38600     38597     38596     38604     38597     38596     38608
     38597     38612     38613     38597     38612     38614     38597     38612     38618
     38598     38597     38599     38598     38597     38612     38599     38597     38612
     38600     38596     38604     38600     38596     38608     38601     38600     38602
     38601     38600     38603     38602     38600     38603     38604     38596     38608
     38605     38604     38606     38605     38604     38607     38606     38604     38607
     38609     38608     38610     38609     38608     38611     38610     38608     38611
     38612     38618     38615     38613     38612     38614     38613     38612     38618
     38614     38612     38618     38615     38619     38620     38616     38615     38617
     38616     38615     38618     38616     38615     38619     38617     38615     38618
     38617     38615     38619     38618     38615     38619     38619     38620     38621
     38619     38620     38622     38619     38620     38623     38620     38623     38624
     38620     38623     38625     38620     38623     38631     38621     38620     38622
     38621     38620     38623     38622     38620     38623     38623     38625     38626
     38623     38631     38632     38623     38631     38633     38623     38631     38634
     38624     38623     38625     38624     38623     38631     38625     38623     38631
     38625     38626     38627     38625     38626     38628     38626     38628     38629
     38626     38628     38630     38626     38628     38640     38627     38626     38628
     38628     38640     38641     38628     38640     38642     38628     38640     38643
     38629     38628     38630     38629     38628     38640     38630     38628     38640
     38631     38634     38635     38632     38631     38633     38632     38631     38634
     38633     38631     38634     38634     38635     38636     38634     38635     38637
     38635     38637     38638     38635     38637     38639     38635     38637     38687
     38636     38635     38637     38637     38687     38688     38637     38687     38689
     38637     38687     38690     38638     38637     38639     38638     38637     38687
     38639     38637     38687     38640     38643     38644     38640     38643     38645
     38640     38643     38646     38641     38640     38642     38641     38640     38643
     38642     38640     38643     38643     38646     38647     38643     38646     38648
     38643     38646     38649     38644     38643     38645     38644     38643     38646
     38645     38643     38646     38646     38649     38650     38646     38649     38651
     38646     38649     38652     38647     38646     38648     38647     38646     38649
     38648     38646     38649     38649     38652     38653     38649     38652     38654
     38649     38652     38655     38650     38649     38651     38650     38649     38652
     38651     38649     38652     38652     38655     38656     38652     38655     38657
     38652     38655     38658     38653     38652     38654     38653     38652     38655
     38654     38652     38655     38655     38658     38659     38655     38658     38660
     38656     38655     38657     38656     38655     38658     38657     38655     38658
     38658     38660     38661     38658     38660     38662     38659     38658     38660
     38660     38662     38663     38660     38662     38664     38660     38662     38665
     38661     38660     38662     38662     38665     38666     38662     38665     38667
     38662     38665     38668     38663     38662     38664     38663     38662     38665
     38664     38662     38665     38665     38668     38669     38665     38668     38670
     38665     38668     38671     38666     38665     38667     38666     38665     38668
     38667     38665     38668     38668     38671     38672     38668     38671     38673
     38668     38671     38674     38669     38668     38670     38669     38668     38671
     38670     38668     38671     38671     38674     38675     38671     38674     38676
     38671     38674     38677     38672     38671     38673     38672     38671     38674
     38673     38671     38674     38674     38677     38678     38674     38677     38679
     38674     38677     38680     38675     38674     38676     38675     38674     38677
     38676     38674     38677     38677     38680     38681     38677     38680     38682
     38677     38680     38683     38678     38677     38679     38678     38677     38680
     38679     38677     38680     38680     38683     38684     38680     38683     38685
     38680     38683     38686     38681     38680     38682     38681     38680     38683
     38682     38680     38683     38684     38683     38685     38684     38683     38686
     38685     38683     38686     38687     38690     38691     38687     38690     38692
     38687     38690     38693     38688     38687     38689     38688     38687     38690
     38689     38687     38690     38690     38693     38694     38690     38693     38695
     38690     38693     38696     38691     38690     38692     38691     38690     38693
     38692     38690     38693     38693     38696     38697     38693     38696     38698
     38693     38696     38699     38694     38693     38695     38694     38693     38696
     38695     38693     38696     38696     38699     38700     38696     38699     38701
     38696     38699     38702     38697     38696     38698     38697     38696     38699
     38698     38696     38699     38699     38702     38703     38699     38702     38704
     38699     38702     38705     38700     38699     38701     38700     38699     38702
     38701     38699     38702     38702     38705     38706     38702     38705     38707
     38702     38705     38708     38703     38702     38704     38703     38702     38705
     38704     38702     38705     38705     38708     38709     38705     38708     38710
     38705     38708     38711     38706     38705     38707     38706     38705     38708
     38707     38705     38708     38708     38711     38712     38708     38711     38713
     38708     38711     38714     38709     38708     38710     38709     38708     38711
     38710     38708     38711     38711     38714     38715     38711     38714     38716
     38711     38714     38717     38712     38711     38713     38712     38711     38714
     38713     38711     38714     38714     38717     38718     38714     38717     38719
     38714     38717     38720     38715     38714     38716     38715     38714     38717
     38716     38714     38717     38717     38720     38721     38717     38720     38722
     38717     38720     38723     38718     38717     38719     38718     38717     38720
     38719     38717     38720     38720     38723     38724     38720     38723     38725
     38720     38723     38726     38721     38720     38722     38721     38720     38723
     38722     38720     38723     38723     38726     38727     38723     38726     38728
     38723     38726     38729     38724     38723     38725     38724     38723     38726
     38725     38723     38726     38727     38726     38728     38727     38726     38729
     38728     38726     38729     38730     38731     38732     38730     38731     38733
     38730     38731     38746     38730     38734     38735     38730     38734     38736
     38730     38734     38737     38730     38738     38739     38730     38738     38740
     38730     38738     38741     38730     38742     38743     38730     38742     38744
     38730     38742     38745     38731     38730     38734     38731     38730     38738
     38731     38730     38742     38731     38746     38747     38731     38746     38748
     38731     38746     38752     38732     38731     38733     38732     38731     38746
     38733     38731     38746     38734     38730     38738     38734     38730     38742
     38735     38734     38736     38735     38734     38737     38736     38734     38737
     38738     38730     38742     38739     38738     38740     38739     38738     38741
     38740     38738     38741     38743     38742     38744     38743     38742     38745
     38744     38742     38745     38746     38752     38749     38747     38746     38748
     38747     38746     38752     38748     38746     38752     38749     38753     38754
     38750     38749     38751     38750     38749     38752     38750     38749     38753
     38751     38749     38752     38751     38749     38753     38752     38749     38753
     38753     38754     38755     38753     38754     38756     38753     38754     38757
     38754     38757     38758     38754     38757     38759     38754     38757     38765
     38755     38754     38756     38755     38754     38757     38756     38754     38757
     38757     38759     38760     38757     38765     38766     38757     38765     38767
     38757     38765     38768     38758     38757     38759     38758     38757     38765
     38759     38757     38765     38759     38760     38761     38759     38760     38762
     38760     38762     38763     38760     38762     38764     38760     38762     38774
     38761     38760     38762     38762     38774     38775     38762     38774     38776
     38762     38774     38777     38763     38762     38764     38763     38762     38774
     38764     38762     38774     38765     38768     38769     38766     38765     38767
     38766     38765     38768     38767     38765     38768     38768     38769     38770
     38768     38769     38771     38769     38771     38772     38769     38771     38773
     38769     38771     38821     38770     38769     38771     38771     38821     38822
     38771     38821     38823     38771     38821     38824     38772     38771     38773
     38772     38771     38821     38773     38771     38821     38774     38777     38778
     38774     38777     38779     38774     38777     38780     38775     38774     38776
     38775     38774     38777     38776     38774     38777     38777     38780     38781
     38777     38780     38782     38777     38780     38783     38778     38777     38779
     38778     38777     38780     38779     38777     38780     38780     38783     38784
     38780     38783     38785     38780     38783     38786     38781     38780     38782
     38781     38780     38783     38782     38780     38783     38783     38786     38787
     38783     38786     38788     38783     38786     38789     38784     38783     38785
     38784     38783     38786     38785     38783     38786     38786     38789     38790
     38786     38789     38791     38786     38789     38792     38787     38786     38788
     38787     38786     38789     38788     38786     38789     38789     38792     38793
     38789     38792     38794     38790     38789     38791     38790     38789     38792
     38791     38789     38792     38792     38794     38795     38792     38794     38796
     38793     38792     38794     38794     38796     38797     38794     38796     38798
     38794     38796     38799     38795     38794     38796     38796     38799     38800
     38796     38799     38801     38796     38799     38802     38797     38796     38798
     38797     38796     38799     38798     38796     38799     38799     38802     38803
     38799     38802     38804     38799     38802     38805     38800     38799     38801
     38800     38799     38802     38801     38799     38802     38802     38805     38806
     38802     38805     38807     38802     38805     38808     38803     38802     38804
     38803     38802     38805     38804     38802     38805     38805     38808     38809
     38805     38808     38810     38805     38808     38811     38806     38805     38807
     38806     38805     38808     38807     38805     38808     38808     38811     38812
     38808     38811     38813     38808     38811     38814     38809     38808     38810
     38809     38808     38811     38810     38808     38811     38811     38814     38815
     38811     38814     38816     38811     38814     38817     38812     38811     38813
     38812     38811     38814     38813     38811     38814     38814     38817     38818
     38814     38817     38819     38814     38817     38820     38815     38814     38816
     38815     38814     38817     38816     38814     38817     38818     38817     38819
     38818     38817     38820     38819     38817     38820     38821     38824     38825
     38821     38824     38826     38821     38824     38827     38822     38821     38823
     38822     38821     38824     38823     38821     38824     38824     38827     38828
     38824     38827     38829     38824     38827     38830     38825     38824     38826
     38825     38824     38827     38826     38824     38827     38827     38830     38831
     38827     38830     38832     38827     38830     38833     38828     38827     38829
     38828     38827     38830     38829     38827     38830     38830     38833     38834
     38830     38833     38835     38830     38833     38836     38831     38830     38832
     38831     38830     38833     38832     38830     38833     38833     38836     38837
     38833     38836     38838     38833     38836     38839     38834     38833     38835
     38834     38833     38836     38835     38833     38836     38836     38839     38840
     38836     38839     38841     38836     38839     38842     38837     38836     38838
     38837     38836     38839     38838     38836     38839     38839     38842     38843
     38839     38842     38844     38839     38842     38845     38840     38839     38841
     38840     38839     38842     38841     38839     38842     38842     38845     38846
     38842     38845     38847     38842     38845     38848     38843     38842     38844
     38843     38842     38845     38844     38842     38845     38845     38848     38849
     38845     38848     38850     38845     38848     38851     38846     38845     38847
     38846     38845     38848     38847     38845     38848     38848     38851     38852
     38848     38851     38853     38848     38851     38854     38849     38848     38850
     38849     38848     38851     38850     38848     38851     38851     38854     38855
     38851     38854     38856     38851     38854     38857     38852     38851     38853
     38852     38851     38854     38853     38851     38854     38854     38857     38858
     38854     38857     38859     38854     38857     38860     38855     38854     38856
     38855     38854     38857     38856     38854     38857     38857     38860     38861
     38857     38860     38862     38857     38860     38863     38858     38857     38859
     38858     38857     38860     38859     38857     38860     38861     38860     38862
     38861     38860     38863     38862     38860     38863     38864     38868     38869
     38864     38868     38870     38864     38868     38871     38865     38864     38866
     38865     38864     38867     38865     38864     38868     38866     38864     38867
     38866     38864     38868     38867     38864     38868     38868     38871     38872
     38868     38871     38873     38868     38871     38878     38869     38868     38870
     38869     38868     38871     38870     38868     38871     38871     38878     38874
     38872     38871     38873     38872     38871     38878     38873     38871     38878
     38874     38877     38879     38875     38874     38876     38875     38874     38877
     38875     38874     38878     38876     38874     38877     38876     38874     38878
     38877     38874     38878     38877     38879     38880     38877     38879     38881
     38877     38879     38882     38879     38882     38883     38879     38882     38884
     38879     38882     38890     38880     38879     38881     38880     38879     38882
     38881     38879     38882     38882     38884     38885     38882     38890     38891
     38882     38890     38892     38882     38890     38893     38883     38882     38884
     38883     38882     38890     38884     38882     38890     38884     38885     38886
     38884     38885     38887     38885     38887     38888     38885     38887     38889
     38885     38887     38899     38886     38885     38887     38887     38899     38900
     38887     38899     38901     38887     38899     38902     38888     38887     38889
     38888     38887     38899     38889     38887     38899     38890     38893     38894
     38891     38890     38892     38891     38890     38893     38892     38890     38893
     38893     38894     38895     38893     38894     38896     38894     38896     38897
     38894     38896     38898     38894     38896     38946     38895     38894     38896
     38896     38946     38947     38896     38946     38948     38896     38946     38949
     38897     38896     38898     38897     38896     38946     38898     38896     38946
     38899     38902     38903     38899     38902     38904     38899     38902     38905
     38900     38899     38901     38900     38899     38902     38901     38899     38902
     38902     38905     38906     38902     38905     38907     38902     38905     38908
     38903     38902     38904     38903     38902     38905     38904     38902     38905
     38905     38908     38909     38905     38908     38910     38905     38908     38911
     38906     38905     38907     38906     38905     38908     38907     38905     38908
     38908     38911     38912     38908     38911     38913     38908     38911     38914
     38909     38908     38910     38909     38908     38911     38910     38908     38911
     38911     38914     38915     38911     38914     38916     38911     38914     38917
     38912     38911     38913     38912     38911     38914     38913     38911     38914
     38914     38917     38918     38914     38917     38919     38915     38914     38916
     38915     38914     38917     38916     38914     38917     38917     38919     38920
     38917     38919     38921     38918     38917     38919     38919     38921     38922
     38919     38921     38923     38919     38921     38924     38920     38919     38921
     38921     38924     38925     38921     38924     38926     38921     38924     38927
     38922     38921     38923     38922     38921     38924     38923     38921     38924
     38924     38927     38928     38924     38927     38929     38924     38927     38930
     38925     38924     38926     38925     38924     38927     38926     38924     38927
     38927     38930     38931     38927     38930     38932     38927     38930     38933
     38928     38927     38929     38928     38927     38930     38929     38927     38930
     38930     38933     38934     38930     38933     38935     38930     38933     38936
     38931     38930     38932     38931     38930     38933     38932     38930     38933
     38933     38936     38937     38933     38936     38938     38933     38936     38939
     38934     38933     38935     38934     38933     38936     38935     38933     38936
     38936     38939     38940     38936     38939     38941     38936     38939     38942
     38937     38936     38938     38937     38936     38939     38938     38936     38939
     38939     38942     38943     38939     38942     38944     38939     38942     38945
     38940     38939     38941     38940     38939     38942     38941     38939     38942
     38943     38942     38944     38943     38942     38945     38944     38942     38945
     38946     38949     38950     38946     38949     38951     38946     38949     38952
     38947     38946     38948     38947     38946     38949     38948     38946     38949
     38949     38952     38953     38949     38952     38954     38949     38952     38955
     38950     38949     38951     38950     38949     38952     38951     38949     38952
     38952     38955     38956     38952     38955     38957     38952     38955     38958
     38953     38952     38954     38953     38952     38955     38954     38952     38955
     38955     38958     38959     38955     38958     38960     38955     38958     38961
     38956     38955     38957     38956     38955     38958     38957     38955     38958
     38958     38961     38962     38958     38961     38963     38958     38961     38964
     38959     38958     38960     38959     38958     38961     38960     38958     38961
     38961     38964     38965     38961     38964     38966     38961     38964     38967
     38962     38961     38963     38962     38961     38964     38963     38961     38964
     38964     38967     38968     38964     38967     38969     38964     38967     38970
     38965     38964     38966     38965     38964     38967     38966     38964     38967
     38967     38970     38971     38967     38970     38972     38967     38970     38973
     38968     38967     38969     38968     38967     38970     38969     38967     38970
     38970     38973     38974     38970     38973     38975     38970     38973     38976
     38971     38970     38972     38971     38970     38973     38972     38970     38973
     38973     38976     38977     38973     38976     38978     38973     38976     38979
     38974     38973     38975     38974     38973     38976     38975     38973     38976
     38976     38979     38980     38976     38979     38981     38976     38979     38982
     38977     38976     38978     38977     38976     38979     38978     38976     38979
     38979     38982     38983     38979     38982     38984     38979     38982     38985
     38980     38979     38981     38980     38979     38982     38981     38979     38982
     38982     38985     38986     38982     38985     38987     38982     38985     38988
     38983     38982     38984     38983     38982     38985     38984     38982     38985
     38986     38985     38987     38986     38985     38988     38987     38985     38988
     38989     38990     38991     38989     38990     38992     38989     38990     39005
     38989     38993     38994     38989     38993     38995     38989     38993     38996
     38989     38997     38998     38989     38997     38999     38989     38997     39000
     38989     39001     39002     38989     39001     39003     38989     39001     39004
     38990     38989     38993     38990     38989     38997     38990     38989     39001
     38990     39005     39006     38990     39005     39007     38990     39005     39011
     38991     38990     38992     38991     38990     39005     38992     38990     39005
     38993     38989     38997     38993     38989     39001     38994     38993     38995
     38994     38993     38996     38995     38993     38996     38997     38989     39001
     38998     38997     38999     38998     38997     39000     38999     38997     39000
     39002     39001     39003     39002     39001     39004     39003     39001     39004
     39005     39011     39008     39006     39005     39007     39006     39005     39011
     39007     39005     39011     39008     39012     39013     39009     39008     39010
     39009     39008     39011     39009     39008     39012     39010     39008     39011
     39010     39008     39012     39011     39008     39012     39012     39013     39014
     39012     39013     39015     39012     39013     39016     39013     39016     39017
     39013     39016     39018     39013     39016     39024     39014     39013     39015
     39014     39013     39016     39015     39013     39016     39016     39018     39019
     39016     39024     39025     39016     39024     39026     39016     39024     39027
     39017     39016     39018     39017     39016     39024     39018     39016     39024
     39018     39019     39020     39018     39019     39021     39019     39021     39022
     39019     39021     39023     39019     39021     39033     39020     39019     39021
     39021     39033     39034     39021     39033     39035     39021     39033     39036
     39022     39021     39023     39022     39021     39033     39023     39021     39033
     39024     39027     39028     39025     39024     39026     39025     39024     39027
     39026     39024     39027     39027     39028     39029     39027     39028     39030
     39028     39030     39031     39028     39030     39032     39028     39030     39080
     39029     39028     39030     39030     39080     39081     39030     39080     39082
     39030     39080     39083     39031     39030     39032     39031     39030     39080
     39032     39030     39080     39033     39036     39037     39033     39036     39038
     39033     39036     39039     39034     39033     39035     39034     39033     39036
     39035     39033     39036     39036     39039     39040     39036     39039     39041
     39036     39039     39042     39037     39036     39038     39037     39036     39039
     39038     39036     39039     39039     39042     39043     39039     39042     39044
     39039     39042     39045     39040     39039     39041     39040     39039     39042
     39041     39039     39042     39042     39045     39046     39042     39045     39047
     39042     39045     39048     39043     39042     39044     39043     39042     39045
     39044     39042     39045     39045     39048     39049     39045     39048     39050
     39045     39048     39051     39046     39045     39047     39046     39045     39048
     39047     39045     39048     39048     39051     39052     39048     39051     39053
     39049     39048     39050     39049     39048     39051     39050     39048     39051
     39051     39053     39054     39051     39053     39055     39052     39051     39053
     39053     39055     39056     39053     39055     39057     39053     39055     39058
     39054     39053     39055     39055     39058     39059     39055     39058     39060
     39055     39058     39061     39056     39055     39057     39056     39055     39058
     39057     39055     39058     39058     39061     39062     39058     39061     39063
     39058     39061     39064     39059     39058     39060     39059     39058     39061
     39060     39058     39061     39061     39064     39065     39061     39064     39066
     39061     39064     39067     39062     39061     39063     39062     39061     39064
     39063     39061     39064     39064     39067     39068     39064     39067     39069
     39064     39067     39070     39065     39064     39066     39065     39064     39067
     39066     39064     39067     39067     39070     39071     39067     39070     39072
     39067     39070     39073     39068     39067     39069     39068     39067     39070
     39069     39067     39070     39070     39073     39074     39070     39073     39075
     39070     39073     39076     39071     39070     39072     39071     39070     39073
     39072     39070     39073     39073     39076     39077     39073     39076     39078
     39073     39076     39079     39074     39073     39075     39074     39073     39076
     39075     39073     39076     39077     39076     39078     39077     39076     39079
     39078     39076     39079     39080     39083     39084     39080     39083     39085
     39080     39083     39086     39081     39080     39082     39081     39080     39083
     39082     39080     39083     39083     39086     39087     39083     39086     39088
     39083     39086     39089     39084     39083     39085     39084     39083     39086
     39085     39083     39086     39086     39089     39090     39086     39089     39091
     39086     39089     39092     39087     39086     39088     39087     39086     39089
     39088     39086     39089     39089     39092     39093     39089     39092     39094
     39089     39092     39095     39090     39089     39091     39090     39089     39092
     39091     39089     39092     39092     39095     39096     39092     39095     39097
     39092     39095     39098     39093     39092     39094     39093     39092     39095
     39094     39092     39095     39095     39098     39099     39095     39098     39100
     39095     39098     39101     39096     39095     39097     39096     39095     39098
     39097     39095     39098     39098     39101     39102     39098     39101     39103
     39098     39101     39104     39099     39098     39100     39099     39098     39101
     39100     39098     39101     39101     39104     39105     39101     39104     39106
     39101     39104     39107     39102     39101     39103     39102     39101     39104
     39103     39101     39104     39104     39107     39108     39104     39107     39109
     39104     39107     39110     39105     39104     39106     39105     39104     39107
     39106     39104     39107     39107     39110     39111     39107     39110     39112
     39107     39110     39113     39108     39107     39109     39108     39107     39110
     39109     39107     39110     39110     39113     39114     39110     39113     39115
     39110     39113     39116     39111     39110     39112     39111     39110     39113
     39112     39110     39113     39113     39116     39117     39113     39116     39118
     39113     39116     39119     39114     39113     39115     39114     39113     39116
     39115     39113     39116     39116     39119     39120     39116     39119     39121
     39116     39119     39122     39117     39116     39118     39117     39116     39119
     39118     39116     39119     39120     39119     39121     39120     39119     39122
     39121     39119     39122     39123     39127     39128     39123     39127     39129
     39123     39127     39130     39124     39123     39125     39124     39123     39126
     39124     39123     39127     39125     39123     39126     39125     39123     39127
     39126     39123     39127     39127     39130     39131     39127     39130     39132
     39127     39130     39137     39128     39127     39129     39128     39127     39130
     39129     39127     39130     39130     39137     39133     39131     39130     39132
     39131     39130     39137     39132     39130     39137     39133     39136     39138
     39134     39133     39135     39134     39133     39136     39134     39133     39137
     39135     39133     39136     39135     39133     39137     39136     39133     39137
     39136     39138     39139     39136     39138     39140     39136     39138     39141
     39138     39141     39142     39138     39141     39143     39138     39141     39149
     39139     39138     39140     39139     39138     39141     39140     39138     39141
     39141     39143     39144     39141     39149     39150     39141     39149     39151
     39141     39149     39152     39142     39141     39143     39142     39141     39149
     39143     39141     39149     39143     39144     39145     39143     39144     39146
     39144     39146     39147     39144     39146     39148     39144     39146     39158
     39145     39144     39146     39146     39158     39159     39146     39158     39160
     39146     39158     39161     39147     39146     39148     39147     39146     39158
     39148     39146     39158     39149     39152     39153     39150     39149     39151
     39150     39149     39152     39151     39149     39152     39152     39153     39154
     39152     39153     39155     39153     39155     39156     39153     39155     39157
     39153     39155     39205     39154     39153     39155     39155     39205     39206
     39155     39205     39207     39155     39205     39208     39156     39155     39157
     39156     39155     39205     39157     39155     39205     39158     39161     39162
     39158     39161     39163     39158     39161     39164     39159     39158     39160
     39159     39158     39161     39160     39158     39161     39161     39164     39165
     39161     39164     39166     39161     39164     39167     39162     39161     39163
     39162     39161     39164     39163     39161     39164     39164     39167     39168
     39164     39167     39169     39164     39167     39170     39165     39164     39166
     39165     39164     39167     39166     39164     39167     39167     39170     39171
     39167     39170     39172     39167     39170     39173     39168     39167     39169
     39168     39167     39170     39169     39167     39170     39170     39173     39174
     39170     39173     39175     39170     39173     39176     39171     39170     39172
     39171     39170     39173     39172     39170     39173     39173     39176     39177
     39173     39176     39178     39174     39173     39175     39174     39173     39176
     39175     39173     39176     39176     39178     39179     39176     39178     39180
     39177     39176     39178     39178     39180     39181     39178     39180     39182
     39178     39180     39183     39179     39178     39180     39180     39183     39184
     39180     39183     39185     39180     39183     39186     39181     39180     39182
     39181     39180     39183     39182     39180     39183     39183     39186     39187
     39183     39186     39188     39183     39186     39189     39184     39183     39185
     39184     39183     39186     39185     39183     39186     39186     39189     39190
     39186     39189     39191     39186     39189     39192     39187     39186     39188
     39187     39186     39189     39188     39186     39189     39189     39192     39193
     39189     39192     39194     39189     39192     39195     39190     39189     39191
     39190     39189     39192     39191     39189     39192     39192     39195     39196
     39192     39195     39197     39192     39195     39198     39193     39192     39194
     39193     39192     39195     39194     39192     39195     39195     39198     39199
     39195     39198     39200     39195     39198     39201     39196     39195     39197
     39196     39195     39198     39197     39195     39198     39198     39201     39202
     39198     39201     39203     39198     39201     39204     39199     39198     39200
     39199     39198     39201     39200     39198     39201     39202     39201     39203
     39202     39201     39204     39203     39201     39204     39205     39208     39209
     39205     39208     39210     39205     39208     39211     39206     39205     39207
     39206     39205     39208     39207     39205     39208     39208     39211     39212
     39208     39211     39213     39208     39211     39214     39209     39208     39210
     39209     39208     39211     39210     39208     39211     39211     39214     39215
     39211     39214     39216     39211     39214     39217     39212     39211     39213
     39212     39211     39214     39213     39211     39214     39214     39217     39218
     39214     39217     39219     39214     39217     39220     39215     39214     39216
     39215     39214     39217     39216     39214     39217     39217     39220     39221
     39217     39220     39222     39217     39220     39223     39218     39217     39219
     39218     39217     39220     39219     39217     39220     39220     39223     39224
     39220     39223     39225     39220     39223     39226     39221     39220     39222
     39221     39220     39223     39222     39220     39223     39223     39226     39227
     39223     39226     39228     39223     39226     39229     39224     39223     39225
     39224     39223     39226     39225     39223     39226     39226     39229     39230
     39226     39229     39231     39226     39229     39232     39227     39226     39228
     39227     39226     39229     39228     39226     39229     39229     39232     39233
     39229     39232     39234     39229     39232     39235     39230     39229     39231
     39230     39229     39232     39231     39229     39232     39232     39235     39236
     39232     39235     39237     39232     39235     39238     39233     39232     39234
     39233     39232     39235     39234     39232     39235     39235     39238     39239
     39235     39238     39240     39235     39238     39241     39236     39235     39237
     39236     39235     39238     39237     39235     39238     39238     39241     39242
     39238     39241     39243     39238     39241     39244     39239     39238     39240
     39239     39238     39241     39240     39238     39241     39241     39244     39245
     39241     39244     39246     39241     39244     39247     39242     39241     39243
     39242     39241     39244     39243     39241     39244     39245     39244     39246
     39245     39244     39247     39246     39244     39247     39248     39252     39253
     39248     39252     39254     39248     39252     39255     39249     39248     39250
     39249     39248     39251     39249     39248     39252     39250     39248     39251
     39250     39248     39252     39251     39248     39252     39252     39255     39256
     39252     39255     39257     39252     39255     39262     39253     39252     39254
     39253     39252     39255     39254     39252     39255     39255     39262     39258
     39256     39255     39257     39256     39255     39262     39257     39255     39262
     39258     39261     39263     39259     39258     39260     39259     39258     39261
     39259     39258     39262     39260     39258     39261     39260     39258     39262
     39261     39258     39262     39261     39263     39264     39261     39263     39265
     39261     39263     39266     39263     39266     39267     39263     39266     39268
     39263     39266     39274     39264     39263     39265     39264     39263     39266
     39265     39263     39266     39266     39268     39269     39266     39274     39275
     39266     39274     39276     39266     39274     39277     39267     39266     39268
     39267     39266     39274     39268     39266     39274     39268     39269     39270
     39268     39269     39271     39269     39271     39272     39269     39271     39273
     39269     39271     39283     39270     39269     39271     39271     39283     39284
     39271     39283     39285     39271     39283     39286     39272     39271     39273
     39272     39271     39283     39273     39271     39283     39274     39277     39278
     39275     39274     39276     39275     39274     39277     39276     39274     39277
     39277     39278     39279     39277     39278     39280     39278     39280     39281
     39278     39280     39282     39278     39280     39330     39279     39278     39280
     39280     39330     39331     39280     39330     39332     39280     39330     39333
     39281     39280     39282     39281     39280     39330     39282     39280     39330
     39283     39286     39287     39283     39286     39288     39283     39286     39289
     39284     39283     39285     39284     39283     39286     39285     39283     39286
     39286     39289     39290     39286     39289     39291     39286     39289     39292
     39287     39286     39288     39287     39286     39289     39288     39286     39289
     39289     39292     39293     39289     39292     39294     39289     39292     39295
     39290     39289     39291     39290     39289     39292     39291     39289     39292
     39292     39295     39296     39292     39295     39297     39292     39295     39298
     39293     39292     39294     39293     39292     39295     39294     39292     39295
     39295     39298     39299     39295     39298     39300     39295     39298     39301
     39296     39295     39297     39296     39295     39298     39297     39295     39298
     39298     39301     39302     39298     39301     39303     39299     39298     39300
     39299     39298     39301     39300     39298     39301     39301     39303     39304
     39301     39303     39305     39302     39301     39303     39303     39305     39306
     39303     39305     39307     39303     39305     39308     39304     39303     39305
     39305     39308     39309     39305     39308     39310     39305     39308     39311
     39306     39305     39307     39306     39305     39308     39307     39305     39308
     39308     39311     39312     39308     39311     39313     39308     39311     39314
     39309     39308     39310     39309     39308     39311     39310     39308     39311
     39311     39314     39315     39311     39314     39316     39311     39314     39317
     39312     39311     39313     39312     39311     39314     39313     39311     39314
     39314     39317     39318     39314     39317     39319     39314     39317     39320
     39315     39314     39316     39315     39314     39317     39316     39314     39317
     39317     39320     39321     39317     39320     39322     39317     39320     39323
     39318     39317     39319     39318     39317     39320     39319     39317     39320
     39320     39323     39324     39320     39323     39325     39320     39323     39326
     39321     39320     39322     39321     39320     39323     39322     39320     39323
     39323     39326     39327     39323     39326     39328     39323     39326     39329
     39324     39323     39325     39324     39323     39326     39325     39323     39326
     39327     39326     39328     39327     39326     39329     39328     39326     39329
     39330     39333     39334     39330     39333     39335     39330     39333     39336
     39331     39330     39332     39331     39330     39333     39332     39330     39333
     39333     39336     39337     39333     39336     39338     39333     39336     39339
     39334     39333     39335     39334     39333     39336     39335     39333     39336
     39336     39339     39340     39336     39339     39341     39336     39339     39342
     39337     39336     39338     39337     39336     39339     39338     39336     39339
     39339     39342     39343     39339     39342     39344     39339     39342     39345
     39340     39339     39341     39340     39339     39342     39341     39339     39342
     39342     39345     39346     39342     39345     39347     39342     39345     39348
     39343     39342     39344     39343     39342     39345     39344     39342     39345
     39345     39348     39349     39345     39348     39350     39345     39348     39351
     39346     39345     39347     39346     39345     39348     39347     39345     39348
     39348     39351     39352     39348     39351     39353     39348     39351     39354
     39349     39348     39350     39349     39348     39351     39350     39348     39351
     39351     39354     39355     39351     39354     39356     39351     39354     39357
     39352     39351     39353     39352     39351     39354     39353     39351     39354
     39354     39357     39358     39354     39357     39359     39354     39357     39360
     39355     39354     39356     39355     39354     39357     39356     39354     39357
     39357     39360     39361     39357     39360     39362     39357     39360     39363
     39358     39357     39359     39358     39357     39360     39359     39357     39360
     39360     39363     39364     39360     39363     39365     39360     39363     39366
     39361     39360     39362     39361     39360     39363     39362     39360     39363
     39363     39366     39367     39363     39366     39368     39363     39366     39369
     39364     39363     39365     39364     39363     39366     39365     39363     39366
     39366     39369     39370     39366     39369     39371     39366     39369     39372
     39367     39366     39368     39367     39366     39369     39368     39366     39369
     39370     39369     39371     39370     39369     39372     39371     39369     39372
     39373     39377     39378     39373     39377     39379     39373     39377     39380
     39374     39373     39375     39374     39373     39376     39374     39373     39377
     39375     39373     39376     39375     39373     39377     39376     39373     39377
     39377     39380     39381     39377     39380     39382     39377     39380     39387
     39378     39377     39379     39378     39377     39380     39379     39377     39380
     39380     39387     39383     39381     39380     39382     39381     39380     39387
     39382     39380     39387     39383     39386     39388     39384     39383     39385
     39384     39383     39386     39384     39383     39387     39385     39383     39386
     39385     39383     39387     39386     39383     39387     39386     39388     39389
     39386     39388     39390     39386     39388     39391     39388     39391     39392
     39388     39391     39393     39388     39391     39399     39389     39388     39390
     39389     39388     39391     39390     39388     39391     39391     39393     39394
     39391     39399     39400     39391     39399     39401     39391     39399     39402
     39392     39391     39393     39392     39391     39399     39393     39391     39399
     39393     39394     39395     39393     39394     39396     39394     39396     39397
     39394     39396     39398     39394     39396     39408     39395     39394     39396
     39396     39408     39409     39396     39408     39410     39396     39408     39411
     39397     39396     39398     39397     39396     39408     39398     39396     39408
     39399     39402     39403     39400     39399     39401     39400     39399     39402
     39401     39399     39402     39402     39403     39404     39402     39403     39405
     39403     39405     39406     39403     39405     39407     39403     39405     39455
     39404     39403     39405     39405     39455     39456     39405     39455     39457
     39405     39455     39458     39406     39405     39407     39406     39405     39455
     39407     39405     39455     39408     39411     39412     39408     39411     39413
     39408     39411     39414     39409     39408     39410     39409     39408     39411
     39410     39408     39411     39411     39414     39415     39411     39414     39416
     39411     39414     39417     39412     39411     39413     39412     39411     39414
     39413     39411     39414     39414     39417     39418     39414     39417     39419
     39414     39417     39420     39415     39414     39416     39415     39414     39417
     39416     39414     39417     39417     39420     39421     39417     39420     39422
     39417     39420     39423     39418     39417     39419     39418     39417     39420
     39419     39417     39420     39420     39423     39424     39420     39423     39425
     39420     39423     39426     39421     39420     39422     39421     39420     39423
     39422     39420     39423     39423     39426     39427     39423     39426     39428
     39424     39423     39425     39424     39423     39426     39425     39423     39426
     39426     39428     39429     39426     39428     39430     39427     39426     39428
     39428     39430     39431     39428     39430     39432     39428     39430     39433
     39429     39428     39430     39430     39433     39434     39430     39433     39435
     39430     39433     39436     39431     39430     39432     39431     39430     39433
     39432     39430     39433     39433     39436     39437     39433     39436     39438
     39433     39436     39439     39434     39433     39435     39434     39433     39436
     39435     39433     39436     39436     39439     39440     39436     39439     39441
     39436     39439     39442     39437     39436     39438     39437     39436     39439
     39438     39436     39439     39439     39442     39443     39439     39442     39444
     39439     39442     39445     39440     39439     39441     39440     39439     39442
     39441     39439     39442     39442     39445     39446     39442     39445     39447
     39442     39445     39448     39443     39442     39444     39443     39442     39445
     39444     39442     39445     39445     39448     39449     39445     39448     39450
     39445     39448     39451     39446     39445     39447     39446     39445     39448
     39447     39445     39448     39448     39451     39452     39448     39451     39453
     39448     39451     39454     39449     39448     39450     39449     39448     39451
     39450     39448     39451     39452     39451     39453     39452     39451     39454
     39453     39451     39454     39455     39458     39459     39455     39458     39460
     39455     39458     39461     39456     39455     39457     39456     39455     39458
     39457     39455     39458     39458     39461     39462     39458     39461     39463
     39458     39461     39464     39459     39458     39460     39459     39458     39461
     39460     39458     39461     39461     39464     39465     39461     39464     39466
     39461     39464     39467     39462     39461     39463     39462     39461     39464
     39463     39461     39464     39464     39467     39468     39464     39467     39469
     39464     39467     39470     39465     39464     39466     39465     39464     39467
     39466     39464     39467     39467     39470     39471     39467     39470     39472
     39467     39470     39473     39468     39467     39469     39468     39467     39470
     39469     39467     39470     39470     39473     39474     39470     39473     39475
     39470     39473     39476     39471     39470     39472     39471     39470     39473
     39472     39470     39473     39473     39476     39477     39473     39476     39478
     39473     39476     39479     39474     39473     39475     39474     39473     39476
     39475     39473     39476     39476     39479     39480     39476     39479     39481
     39476     39479     39482     39477     39476     39478     39477     39476     39479
     39478     39476     39479     39479     39482     39483     39479     39482     39484
     39479     39482     39485     39480     39479     39481     39480     39479     39482
     39481     39479     39482     39482     39485     39486     39482     39485     39487
     39482     39485     39488     39483     39482     39484     39483     39482     39485
     39484     39482     39485     39485     39488     39489     39485     39488     39490
     39485     39488     39491     39486     39485     39487     39486     39485     39488
     39487     39485     39488     39488     39491     39492     39488     39491     39493
     39488     39491     39494     39489     39488     39490     39489     39488     39491
     39490     39488     39491     39491     39494     39495     39491     39494     39496
     39491     39494     39497     39492     39491     39493     39492     39491     39494
     39493     39491     39494     39495     39494     39496     39495     39494     39497
     39496     39494     39497     39498     39502     39503     39498     39502     39504
     39498     39502     39505     39499     39498     39500     39499     39498     39501
     39499     39498     39502     39500     39498     39501     39500     39498     39502
     39501     39498     39502     39502     39505     39506     39502     39505     39507
     39502     39505     39512     39503     39502     39504     39503     39502     39505
     39504     39502     39505     39505     39512     39508     39506     39505     39507
     39506     39505     39512     39507     39505     39512     39508     39511     39513
     39509     39508     39510     39509     39508     39511     39509     39508     39512
     39510     39508     39511     39510     39508     39512     39511     39508     39512
     39511     39513     39514     39511     39513     39515     39511     39513     39516
     39513     39516     39517     39513     39516     39518     39513     39516     39524
     39514     39513     39515     39514     39513     39516     39515     39513     39516
     39516     39518     39519     39516     39524     39525     39516     39524     39526
     39516     39524     39527     39517     39516     39518     39517     39516     39524
     39518     39516     39524     39518     39519     39520     39518     39519     39521
     39519     39521     39522     39519     39521     39523     39519     39521     39533
     39520     39519     39521     39521     39533     39534     39521     39533     39535
     39521     39533     39536     39522     39521     39523     39522     39521     39533
     39523     39521     39533     39524     39527     39528     39525     39524     39526
     39525     39524     39527     39526     39524     39527     39527     39528     39529
     39527     39528     39530     39528     39530     39531     39528     39530     39532
     39528     39530     39580     39529     39528     39530     39530     39580     39581
     39530     39580     39582     39530     39580     39583     39531     39530     39532
     39531     39530     39580     39532     39530     39580     39533     39536     39537
     39533     39536     39538     39533     39536     39539     39534     39533     39535
     39534     39533     39536     39535     39533     39536     39536     39539     39540
     39536     39539     39541     39536     39539     39542     39537     39536     39538
     39537     39536     39539     39538     39536     39539     39539     39542     39543
     39539     39542     39544     39539     39542     39545     39540     39539     39541
     39540     39539     39542     39541     39539     39542     39542     39545     39546
     39542     39545     39547     39542     39545     39548     39543     39542     39544
     39543     39542     39545     39544     39542     39545     39545     39548     39549
     39545     39548     39550     39545     39548     39551     39546     39545     39547
     39546     39545     39548     39547     39545     39548     39548     39551     39552
     39548     39551     39553     39549     39548     39550     39549     39548     39551
     39550     39548     39551     39551     39553     39554     39551     39553     39555
     39552     39551     39553     39553     39555     39556     39553     39555     39557
     39553     39555     39558     39554     39553     39555     39555     39558     39559
     39555     39558     39560     39555     39558     39561     39556     39555     39557
     39556     39555     39558     39557     39555     39558     39558     39561     39562
     39558     39561     39563     39558     39561     39564     39559     39558     39560
     39559     39558     39561     39560     39558     39561     39561     39564     39565
     39561     39564     39566     39561     39564     39567     39562     39561     39563
     39562     39561     39564     39563     39561     39564     39564     39567     39568
     39564     39567     39569     39564     39567     39570     39565     39564     39566
     39565     39564     39567     39566     39564     39567     39567     39570     39571
     39567     39570     39572     39567     39570     39573     39568     39567     39569
     39568     39567     39570     39569     39567     39570     39570     39573     39574
     39570     39573     39575     39570     39573     39576     39571     39570     39572
     39571     39570     39573     39572     39570     39573     39573     39576     39577
     39573     39576     39578     39573     39576     39579     39574     39573     39575
     39574     39573     39576     39575     39573     39576     39577     39576     39578
     39577     39576     39579     39578     39576     39579     39580     39583     39584
     39580     39583     39585     39580     39583     39586     39581     39580     39582
     39581     39580     39583     39582     39580     39583     39583     39586     39587
     39583     39586     39588     39583     39586     39589     39584     39583     39585
     39584     39583     39586     39585     39583     39586     39586     39589     39590
     39586     39589     39591     39586     39589     39592     39587     39586     39588
     39587     39586     39589     39588     39586     39589     39589     39592     39593
     39589     39592     39594     39589     39592     39595     39590     39589     39591
     39590     39589     39592     39591     39589     39592     39592     39595     39596
     39592     39595     39597     39592     39595     39598     39593     39592     39594
     39593     39592     39595     39594     39592     39595     39595     39598     39599
     39595     39598     39600     39595     39598     39601     39596     39595     39597
     39596     39595     39598     39597     39595     39598     39598     39601     39602
     39598     39601     39603     39598     39601     39604     39599     39598     39600
     39599     39598     39601     39600     39598     39601     39601     39604     39605
     39601     39604     39606     39601     39604     39607     39602     39601     39603
     39602     39601     39604     39603     39601     39604     39604     39607     39608
     39604     39607     39609     39604     39607     39610     39605     39604     39606
     39605     39604     39607     39606     39604     39607     39607     39610     39611
     39607     39610     39612     39607     39610     39613     39608     39607     39609
     39608     39607     39610     39609     39607     39610     39610     39613     39614
     39610     39613     39615     39610     39613     39616     39611     39610     39612
     39611     39610     39613     39612     39610     39613     39613     39616     39617
     39613     39616     39618     39613     39616     39619     39614     39613     39615
     39614     39613     39616     39615     39613     39616     39616     39619     39620
     39616     39619     39621     39616     39619     39622     39617     39616     39618
     39617     39616     39619     39618     39616     39619     39620     39619     39621
     39620     39619     39622     39621     39619     39622     39623     39624     39625
     39623     39624     39626     39623     39624     39639     39623     39627     39628
     39623     39627     39629     39623     39627     39630     39623     39631     39632
     39623     39631     39633     39623     39631     39634     39623     39635     39636
     39623     39635     39637     39623     39635     39638     39624     39623     39627
     39624     39623     39631     39624     39623     39635     39624     39639     39640
     39624     39639     39641     39624     39639     39645     39625     39624     39626
     39625     39624     39639     39626     39624     39639     39627     39623     39631
     39627     39623     39635     39628     39627     39629     39628     39627     39630
     39629     39627     39630     39631     39623     39635     39632     39631     39633
     39632     39631     39634     39633     39631     39634     39636     39635     39637
     39636     39635     39638     39637     39635     39638     39639     39645     39642
     39640     39639     39641     39640     39639     39645     39641     39639     39645
     39642     39646     39647     39643     39642     39644     39643     39642     39645
     39643     39642     39646     39644     39642     39645     39644     39642     39646
     39645     39642     39646     39646     39647     39648     39646     39647     39649
     39646     39647     39650     39647     39650     39651     39647     39650     39652
     39647     39650     39658     39648     39647     39649     39648     39647     39650
     39649     39647     39650     39650     39652     39653     39650     39658     39659
     39650     39658     39660     39650     39658     39661     39651     39650     39652
     39651     39650     39658     39652     39650     39658     39652     39653     39654
     39652     39653     39655     39653     39655     39656     39653     39655     39657
     39653     39655     39667     39654     39653     39655     39655     39667     39668
     39655     39667     39669     39655     39667     39670     39656     39655     39657
     39656     39655     39667     39657     39655     39667     39658     39661     39662
     39659     39658     39660     39659     39658     39661     39660     39658     39661
     39661     39662     39663     39661     39662     39664     39662     39664     39665
     39662     39664     39666     39662     39664     39714     39663     39662     39664
     39664     39714     39715     39664     39714     39716     39664     39714     39717
     39665     39664     39666     39665     39664     39714     39666     39664     39714
     39667     39670     39671     39667     39670     39672     39667     39670     39673
     39668     39667     39669     39668     39667     39670     39669     39667     39670
     39670     39673     39674     39670     39673     39675     39670     39673     39676
     39671     39670     39672     39671     39670     39673     39672     39670     39673
     39673     39676     39677     39673     39676     39678     39673     39676     39679
     39674     39673     39675     39674     39673     39676     39675     39673     39676
     39676     39679     39680     39676     39679     39681     39676     39679     39682
     39677     39676     39678     39677     39676     39679     39678     39676     39679
     39679     39682     39683     39679     39682     39684     39679     39682     39685
     39680     39679     39681     39680     39679     39682     39681     39679     39682
     39682     39685     39686     39682     39685     39687     39683     39682     39684
     39683     39682     39685     39684     39682     39685     39685     39687     39688
     39685     39687     39689     39686     39685     39687     39687     39689     39690
     39687     39689     39691     39687     39689     39692     39688     39687     39689
     39689     39692     39693     39689     39692     39694     39689     39692     39695
     39690     39689     39691     39690     39689     39692     39691     39689     39692
     39692     39695     39696     39692     39695     39697     39692     39695     39698
     39693     39692     39694     39693     39692     39695     39694     39692     39695
     39695     39698     39699     39695     39698     39700     39695     39698     39701
     39696     39695     39697     39696     39695     39698     39697     39695     39698
     39698     39701     39702     39698     39701     39703     39698     39701     39704
     39699     39698     39700     39699     39698     39701     39700     39698     39701
     39701     39704     39705     39701     39704     39706     39701     39704     39707
     39702     39701     39703     39702     39701     39704     39703     39701     39704
     39704     39707     39708     39704     39707     39709     39704     39707     39710
     39705     39704     39706     39705     39704     39707     39706     39704     39707
     39707     39710     39711     39707     39710     39712     39707     39710     39713
     39708     39707     39709     39708     39707     39710     39709     39707     39710
     39711     39710     39712     39711     39710     39713     39712     39710     39713
     39714     39717     39718     39714     39717     39719     39714     39717     39720
     39715     39714     39716     39715     39714     39717     39716     39714     39717
     39717     39720     39721     39717     39720     39722     39717     39720     39723
     39718     39717     39719     39718     39717     39720     39719     39717     39720
     39720     39723     39724     39720     39723     39725     39720     39723     39726
     39721     39720     39722     39721     39720     39723     39722     39720     39723
     39723     39726     39727     39723     39726     39728     39723     39726     39729
     39724     39723     39725     39724     39723     39726     39725     39723     39726
     39726     39729     39730     39726     39729     39731     39726     39729     39732
     39727     39726     39728     39727     39726     39729     39728     39726     39729
     39729     39732     39733     39729     39732     39734     39729     39732     39735
     39730     39729     39731     39730     39729     39732     39731     39729     39732
     39732     39735     39736     39732     39735     39737     39732     39735     39738
     39733     39732     39734     39733     39732     39735     39734     39732     39735
     39735     39738     39739     39735     39738     39740     39735     39738     39741
     39736     39735     39737     39736     39735     39738     39737     39735     39738
     39738     39741     39742     39738     39741     39743     39738     39741     39744
     39739     39738     39740     39739     39738     39741     39740     39738     39741
     39741     39744     39745     39741     39744     39746     39741     39744     39747
     39742     39741     39743     39742     39741     39744     39743     39741     39744
     39744     39747     39748     39744     39747     39749     39744     39747     39750
     39745     39744     39746     39745     39744     39747     39746     39744     39747
     39747     39750     39751     39747     39750     39752     39747     39750     39753
     39748     39747     39749     39748     39747     39750     39749     39747     39750
     39750     39753     39754     39750     39753     39755     39750     39753     39756
     39751     39750     39752     39751     39750     39753     39752     39750     39753
     39754     39753     39755     39754     39753     39756     39755     39753     39756
     39757     39758     39759     39757     39758     39760     39757     39758     39773
     39757     39761     39762     39757     39761     39763     39757     39761     39764
     39757     39765     39766     39757     39765     39767     39757     39765     39768
     39757     39769     39770     39757     39769     39771     39757     39769     39772
     39758     39757     39761     39758     39757     39765     39758     39757     39769
     39758     39773     39774     39758     39773     39775     39758     39773     39779
     39759     39758     39760     39759     39758     39773     39760     39758     39773
     39761     39757     39765     39761     39757     39769     39762     39761     39763
     39762     39761     39764     39763     39761     39764     39765     39757     39769
     39766     39765     39767     39766     39765     39768     39767     39765     39768
     39770     39769     39771     39770     39769     39772     39771     39769     39772
     39773     39779     39776     39774     39773     39775     39774     39773     39779
     39775     39773     39779     39776     39780     39781     39777     39776     39778
     39777     39776     39779     39777     39776     39780     39778     39776     39779
     39778     39776     39780     39779     39776     39780     39780     39781     39782
     39780     39781     39783     39780     39781     39784     39781     39784     39785
     39781     39784     39786     39781     39784     39792     39782     39781     39783
     39782     39781     39784     39783     39781     39784     39784     39786     39787
     39784     39792     39793     39784     39792     39794     39784     39792     39795
     39785     39784     39786     39785     39784     39792     39786     39784     39792
     39786     39787     39788     39786     39787     39789     39787     39789     39790
     39787     39789     39791     39787     39789     39801     39788     39787     39789
     39789     39801     39802     39789     39801     39803     39789     39801     39804
     39790     39789     39791     39790     39789     39801     39791     39789     39801
     39792     39795     39796     39793     39792     39794     39793     39792     39795
     39794     39792     39795     39795     39796     39797     39795     39796     39798
     39796     39798     39799     39796     39798     39800     39796     39798     39848
     39797     39796     39798     39798     39848     39849     39798     39848     39850
     39798     39848     39851     39799     39798     39800     39799     39798     39848
     39800     39798     39848     39801     39804     39805     39801     39804     39806
     39801     39804     39807     39802     39801     39803     39802     39801     39804
     39803     39801     39804     39804     39807     39808     39804     39807     39809
     39804     39807     39810     39805     39804     39806     39805     39804     39807
     39806     39804     39807     39807     39810     39811     39807     39810     39812
     39807     39810     39813     39808     39807     39809     39808     39807     39810
     39809     39807     39810     39810     39813     39814     39810     39813     39815
     39810     39813     39816     39811     39810     39812     39811     39810     39813
     39812     39810     39813     39813     39816     39817     39813     39816     39818
     39813     39816     39819     39814     39813     39815     39814     39813     39816
     39815     39813     39816     39816     39819     39820     39816     39819     39821
     39817     39816     39818     39817     39816     39819     39818     39816     39819
     39819     39821     39822     39819     39821     39823     39820     39819     39821
     39821     39823     39824     39821     39823     39825     39821     39823     39826
     39822     39821     39823     39823     39826     39827     39823     39826     39828
     39823     39826     39829     39824     39823     39825     39824     39823     39826
     39825     39823     39826     39826     39829     39830     39826     39829     39831
     39826     39829     39832     39827     39826     39828     39827     39826     39829
     39828     39826     39829     39829     39832     39833     39829     39832     39834
     39829     39832     39835     39830     39829     39831     39830     39829     39832
     39831     39829     39832     39832     39835     39836     39832     39835     39837
     39832     39835     39838     39833     39832     39834     39833     39832     39835
     39834     39832     39835     39835     39838     39839     39835     39838     39840
     39835     39838     39841     39836     39835     39837     39836     39835     39838
     39837     39835     39838     39838     39841     39842     39838     39841     39843
     39838     39841     39844     39839     39838     39840     39839     39838     39841
     39840     39838     39841     39841     39844     39845     39841     39844     39846
     39841     39844     39847     39842     39841     39843     39842     39841     39844
     39843     39841     39844     39845     39844     39846     39845     39844     39847
     39846     39844     39847     39848     39851     39852     39848     39851     39853
     39848     39851     39854     39849     39848     39850     39849     39848     39851
     39850     39848     39851     39851     39854     39855     39851     39854     39856
     39851     39854     39857     39852     39851     39853     39852     39851     39854
     39853     39851     39854     39854     39857     39858     39854     39857     39859
     39854     39857     39860     39855     39854     39856     39855     39854     39857
     39856     39854     39857     39857     39860     39861     39857     39860     39862
     39857     39860     39863     39858     39857     39859     39858     39857     39860
     39859     39857     39860     39860     39863     39864     39860     39863     39865
     39860     39863     39866     39861     39860     39862     39861     39860     39863
     39862     39860     39863     39863     39866     39867     39863     39866     39868
     39863     39866     39869     39864     39863     39865     39864     39863     39866
     39865     39863     39866     39866     39869     39870     39866     39869     39871
     39866     39869     39872     39867     39866     39868     39867     39866     39869
     39868     39866     39869     39869     39872     39873     39869     39872     39874
     39869     39872     39875     39870     39869     39871     39870     39869     39872
     39871     39869     39872     39872     39875     39876     39872     39875     39877
     39872     39875     39878     39873     39872     39874     39873     39872     39875
     39874     39872     39875     39875     39878     39879     39875     39878     39880
     39875     39878     39881     39876     39875     39877     39876     39875     39878
     39877     39875     39878     39878     39881     39882     39878     39881     39883
     39878     39881     39884     39879     39878     39880     39879     39878     39881
     39880     39878     39881     39881     39884     39885     39881     39884     39886
     39881     39884     39887     39882     39881     39883     39882     39881     39884
     39883     39881     39884     39884     39887     39888     39884     39887     39889
     39884     39887     39890     39885     39884     39886     39885     39884     39887
     39886     39884     39887     39888     39887     39889     39888     39887     39890
     39889     39887     39890     39891     39892     39893     39891     39892     39894
     39891     39892     39907     39891     39895     39896     39891     39895     39897
     39891     39895     39898     39891     39899     39900     39891     39899     39901
     39891     39899     39902     39891     39903     39904     39891     39903     39905
     39891     39903     39906     39892     39891     39895     39892     39891     39899
     39892     39891     39903     39892     39907     39908     39892     39907     39909
     39892     39907     39913     39893     39892     39894     39893     39892     39907
     39894     39892     39907     39895     39891     39899     39895     39891     39903
     39896     39895     39897     39896     39895     39898     39897     39895     39898
     39899     39891     39903     39900     39899     39901     39900     39899     39902
     39901     39899     39902     39904     39903     39905     39904     39903     39906
     39905     39903     39906     39907     39913     39910     39908     39907     39909
     39908     39907     39913     39909     39907     39913     39910     39914     39915
     39911     39910     39912     39911     39910     39913     39911     39910     39914
     39912     39910     39913     39912     39910     39914     39913     39910     39914
     39914     39915     39916     39914     39915     39917     39914     39915     39918
     39915     39918     39919     39915     39918     39920     39915     39918     39926
     39916     39915     39917     39916     39915     39918     39917     39915     39918
     39918     39920     39921     39918     39926     39927     39918     39926     39928
     39918     39926     39929     39919     39918     39920     39919     39918     39926
     39920     39918     39926     39920     39921     39922     39920     39921     39923
     39921     39923     39924     39921     39923     39925     39921     39923     39935
     39922     39921     39923     39923     39935     39936     39923     39935     39937
     39923     39935     39938     39924     39923     39925     39924     39923     39935
     39925     39923     39935     39926     39929     39930     39927     39926     39928
     39927     39926     39929     39928     39926     39929     39929     39930     39931
     39929     39930     39932     39930     39932     39933     39930     39932     39934
     39930     39932     39982     39931     39930     39932     39932     39982     39983
     39932     39982     39984     39932     39982     39985     39933     39932     39934
     39933     39932     39982     39934     39932     39982     39935     39938     39939
     39935     39938     39940     39935     39938     39941     39936     39935     39937
     39936     39935     39938     39937     39935     39938     39938     39941     39942
     39938     39941     39943     39938     39941     39944     39939     39938     39940
     39939     39938     39941     39940     39938     39941     39941     39944     39945
     39941     39944     39946     39941     39944     39947     39942     39941     39943
     39942     39941     39944     39943     39941     39944     39944     39947     39948
     39944     39947     39949     39944     39947     39950     39945     39944     39946
     39945     39944     39947     39946     39944     39947     39947     39950     39951
     39947     39950     39952     39947     39950     39953     39948     39947     39949
     39948     39947     39950     39949     39947     39950     39950     39953     39954
     39950     39953     39955     39951     39950     39952     39951     39950     39953
     39952     39950     39953     39953     39955     39956     39953     39955     39957
     39954     39953     39955     39955     39957     39958     39955     39957     39959
     39955     39957     39960     39956     39955     39957     39957     39960     39961
     39957     39960     39962     39957     39960     39963     39958     39957     39959
     39958     39957     39960     39959     39957     39960     39960     39963     39964
     39960     39963     39965     39960     39963     39966     39961     39960     39962
     39961     39960     39963     39962     39960     39963     39963     39966     39967
     39963     39966     39968     39963     39966     39969     39964     39963     39965
     39964     39963     39966     39965     39963     39966     39966     39969     39970
     39966     39969     39971     39966     39969     39972     39967     39966     39968
     39967     39966     39969     39968     39966     39969     39969     39972     39973
     39969     39972     39974     39969     39972     39975     39970     39969     39971
     39970     39969     39972     39971     39969     39972     39972     39975     39976
     39972     39975     39977     39972     39975     39978     39973     39972     39974
     39973     39972     39975     39974     39972     39975     39975     39978     39979
     39975     39978     39980     39975     39978     39981     39976     39975     39977
     39976     39975     39978     39977     39975     39978     39979     39978     39980
     39979     39978     39981     39980     39978     39981     39982     39985     39986
     39982     39985     39987     39982     39985     39988     39983     39982     39984
     39983     39982     39985     39984     39982     39985     39985     39988     39989
     39985     39988     39990     39985     39988     39991     39986     39985     39987
     39986     39985     39988     39987     39985     39988     39988     39991     39992
     39988     39991     39993     39988     39991     39994     39989     39988     39990
     39989     39988     39991     39990     39988     39991     39991     39994     39995
     39991     39994     39996     39991     39994     39997     39992     39991     39993
     39992     39991     39994     39993     39991     39994     39994     39997     39998
     39994     39997     39999     39994     39997     40000     39995     39994     39996
     39995     39994     39997     39996     39994     39997     39997     40000     40001
     39997     40000     40002     39997     40000     40003     39998     39997     39999
     39998     39997     40000     39999     39997     40000     40000     40003     40004
     40000     40003     40005     40000     40003     40006     40001     40000     40002
     40001     40000     40003     40002     40000     40003     40003     40006     40007
     40003     40006     40008     40003     40006     40009     40004     40003     40005
     40004     40003     40006     40005     40003     40006     40006     40009     40010
     40006     40009     40011     40006     40009     40012     40007     40006     40008
     40007     40006     40009     40008     40006     40009     40009     40012     40013
     40009     40012     40014     40009     40012     40015     40010     40009     40011
     40010     40009     40012     40011     40009     40012     40012     40015     40016
     40012     40015     40017     40012     40015     40018     40013     40012     40014
     40013     40012     40015     40014     40012     40015     40015     40018     40019
     40015     40018     40020     40015     40018     40021     40016     40015     40017
     40016     40015     40018     40017     40015     40018     40018     40021     40022
     40018     40021     40023     40018     40021     40024     40019     40018     40020
     40019     40018     40021     40020     40018     40021     40022     40021     40023
     40022     40021     40024     40023     40021     40024     40025     40026     40027
     40025     40026     40028     40025     40026     40041     40025     40029     40030
     40025     40029     40031     40025     40029     40032     40025     40033     40034
     40025     40033     40035     40025     40033     40036     40025     40037     40038
     40025     40037     40039     40025     40037     40040     40026     40025     40029
     40026     40025     40033     40026     40025     40037     40026     40041     40042
     40026     40041     40043     40026     40041     40047     40027     40026     40028
     40027     40026     40041     40028     40026     40041     40029     40025     40033
     40029     40025     40037     40030     40029     40031     40030     40029     40032
     40031     40029     40032     40033     40025     40037     40034     40033     40035
     40034     40033     40036     40035     40033     40036     40038     40037     40039
     40038     40037     40040     40039     40037     40040     40041     40047     40044
     40042     40041     40043     40042     40041     40047     40043     40041     40047
     40044     40048     40049     40045     40044     40046     40045     40044     40047
     40045     40044     40048     40046     40044     40047     40046     40044     40048
     40047     40044     40048     40048     40049     40050     40048     40049     40051
     40048     40049     40052     40049     40052     40053     40049     40052     40054
     40049     40052     40060     40050     40049     40051     40050     40049     40052
     40051     40049     40052     40052     40054     40055     40052     40060     40061
     40052     40060     40062     40052     40060     40063     40053     40052     40054
     40053     40052     40060     40054     40052     40060     40054     40055     40056
     40054     40055     40057     40055     40057     40058     40055     40057     40059
     40055     40057     40069     40056     40055     40057     40057     40069     40070
     40057     40069     40071     40057     40069     40072     40058     40057     40059
     40058     40057     40069     40059     40057     40069     40060     40063     40064
     40061     40060     40062     40061     40060     40063     40062     40060     40063
     40063     40064     40065     40063     40064     40066     40064     40066     40067
     40064     40066     40068     40064     40066     40116     40065     40064     40066
     40066     40116     40117     40066     40116     40118     40066     40116     40119
     40067     40066     40068     40067     40066     40116     40068     40066     40116
     40069     40072     40073     40069     40072     40074     40069     40072     40075
     40070     40069     40071     40070     40069     40072     40071     40069     40072
     40072     40075     40076     40072     40075     40077     40072     40075     40078
     40073     40072     40074     40073     40072     40075     40074     40072     40075
     40075     40078     40079     40075     40078     40080     40075     40078     40081
     40076     40075     40077     40076     40075     40078     40077     40075     40078
     40078     40081     40082     40078     40081     40083     40078     40081     40084
     40079     40078     40080     40079     40078     40081     40080     40078     40081
     40081     40084     40085     40081     40084     40086     40081     40084     40087
     40082     40081     40083     40082     40081     40084     40083     40081     40084
     40084     40087     40088     40084     40087     40089     40085     40084     40086
     40085     40084     40087     40086     40084     40087     40087     40089     40090
     40087     40089     40091     40088     40087     40089     40089     40091     40092
     40089     40091     40093     40089     40091     40094     40090     40089     40091
     40091     40094     40095     40091     40094     40096     40091     40094     40097
     40092     40091     40093     40092     40091     40094     40093     40091     40094
     40094     40097     40098     40094     40097     40099     40094     40097     40100
     40095     40094     40096     40095     40094     40097     40096     40094     40097
     40097     40100     40101     40097     40100     40102     40097     40100     40103
     40098     40097     40099     40098     40097     40100     40099     40097     40100
     40100     40103     40104     40100     40103     40105     40100     40103     40106
     40101     40100     40102     40101     40100     40103     40102     40100     40103
     40103     40106     40107     40103     40106     40108     40103     40106     40109
     40104     40103     40105     40104     40103     40106     40105     40103     40106
     40106     40109     40110     40106     40109     40111     40106     40109     40112
     40107     40106     40108     40107     40106     40109     40108     40106     40109
     40109     40112     40113     40109     40112     40114     40109     40112     40115
     40110     40109     40111     40110     40109     40112     40111     40109     40112
     40113     40112     40114     40113     40112     40115     40114     40112     40115
     40116     40119     40120     40116     40119     40121     40116     40119     40122
     40117     40116     40118     40117     40116     40119     40118     40116     40119
     40119     40122     40123     40119     40122     40124     40119     40122     40125
     40120     40119     40121     40120     40119     40122     40121     40119     40122
     40122     40125     40126     40122     40125     40127     40122     40125     40128
     40123     40122     40124     40123     40122     40125     40124     40122     40125
     40125     40128     40129     40125     40128     40130     40125     40128     40131
     40126     40125     40127     40126     40125     40128     40127     40125     40128
     40128     40131     40132     40128     40131     40133     40128     40131     40134
     40129     40128     40130     40129     40128     40131     40130     40128     40131
     40131     40134     40135     40131     40134     40136     40131     40134     40137
     40132     40131     40133     40132     40131     40134     40133     40131     40134
     40134     40137     40138     40134     40137     40139     40134     40137     40140
     40135     40134     40136     40135     40134     40137     40136     40134     40137
     40137     40140     40141     40137     40140     40142     40137     40140     40143
     40138     40137     40139     40138     40137     40140     40139     40137     40140
     40140     40143     40144     40140     40143     40145     40140     40143     40146
     40141     40140     40142     40141     40140     40143     40142     40140     40143
     40143     40146     40147     40143     40146     40148     40143     40146     40149
     40144     40143     40145     40144     40143     40146     40145     40143     40146
     40146     40149     40150     40146     40149     40151     40146     40149     40152
     40147     40146     40148     40147     40146     40149     40148     40146     40149
     40149     40152     40153     40149     40152     40154     40149     40152     40155
     40150     40149     40151     40150     40149     40152     40151     40149     40152
     40152     40155     40156     40152     40155     40157     40152     40155     40158
     40153     40152     40154     40153     40152     40155     40154     40152     40155
     40156     40155     40157     40156     40155     40158     40157     40155     40158
     40159     40163     40164     40159     40163     40165     40159     40163     40166
     40160     40159     40161     40160     40159     40162     40160     40159     40163
     40161     40159     40162     40161     40159     40163     40162     40159     40163
     40163     40166     40167     40163     40166     40168     40163     40166     40173
     40164     40163     40165     40164     40163     40166     40165     40163     40166
     40166     40173     40169     40167     40166     40168     40167     40166     40173
     40168     40166     40173     40169     40172     40174     40170     40169     40171
     40170     40169     40172     40170     40169     40173     40171     40169     40172
     40171     40169     40173     40172     40169     40173     40172     40174     40175
     40172     40174     40176     40172     40174     40177     40174     40177     40178
     40174     40177     40179     40174     40177     40185     40175     40174     40176
     40175     40174     40177     40176     40174     40177     40177     40179     40180
     40177     40185     40186     40177     40185     40187     40177     40185     40188
     40178     40177     40179     40178     40177     40185     40179     40177     40185
     40179     40180     40181     40179     40180     40182     40180     40182     40183
     40180     40182     40184     40180     40182     40194     40181     40180     40182
     40182     40194     40195     40182     40194     40196     40182     40194     40197
     40183     40182     40184     40183     40182     40194     40184     40182     40194
     40185     40188     40189     40186     40185     40187     40186     40185     40188
     40187     40185     40188     40188     40189     40190     40188     40189     40191
     40189     40191     40192     40189     40191     40193     40189     40191     40241
     40190     40189     40191     40191     40241     40242     40191     40241     40243
     40191     40241     40244     40192     40191     40193     40192     40191     40241
     40193     40191     40241     40194     40197     40198     40194     40197     40199
     40194     40197     40200     40195     40194     40196     40195     40194     40197
     40196     40194     40197     40197     40200     40201     40197     40200     40202
     40197     40200     40203     40198     40197     40199     40198     40197     40200
     40199     40197     40200     40200     40203     40204     40200     40203     40205
     40200     40203     40206     40201     40200     40202     40201     40200     40203
     40202     40200     40203     40203     40206     40207     40203     40206     40208
     40203     40206     40209     40204     40203     40205     40204     40203     40206
     40205     40203     40206     40206     40209     40210     40206     40209     40211
     40206     40209     40212     40207     40206     40208     40207     40206     40209
     40208     40206     40209     40209     40212     40213     40209     40212     40214
     40210     40209     40211     40210     40209     40212     40211     40209     40212
     40212     40214     40215     40212     40214     40216     40213     40212     40214
     40214     40216     40217     40214     40216     40218     40214     40216     40219
     40215     40214     40216     40216     40219     40220     40216     40219     40221
     40216     40219     40222     40217     40216     40218     40217     40216     40219
     40218     40216     40219     40219     40222     40223     40219     40222     40224
     40219     40222     40225     40220     40219     40221     40220     40219     40222
     40221     40219     40222     40222     40225     40226     40222     40225     40227
     40222     40225     40228     40223     40222     40224     40223     40222     40225
     40224     40222     40225     40225     40228     40229     40225     40228     40230
     40225     40228     40231     40226     40225     40227     40226     40225     40228
     40227     40225     40228     40228     40231     40232     40228     40231     40233
     40228     40231     40234     40229     40228     40230     40229     40228     40231
     40230     40228     40231     40231     40234     40235     40231     40234     40236
     40231     40234     40237     40232     40231     40233     40232     40231     40234
     40233     40231     40234     40234     40237     40238     40234     40237     40239
     40234     40237     40240     40235     40234     40236     40235     40234     40237
     40236     40234     40237     40238     40237     40239     40238     40237     40240
     40239     40237     40240     40241     40244     40245     40241     40244     40246
     40241     40244     40247     40242     40241     40243     40242     40241     40244
     40243     40241     40244     40244     40247     40248     40244     40247     40249
     40244     40247     40250     40245     40244     40246     40245     40244     40247
     40246     40244     40247     40247     40250     40251     40247     40250     40252
     40247     40250     40253     40248     40247     40249     40248     40247     40250
     40249     40247     40250     40250     40253     40254     40250     40253     40255
     40250     40253     40256     40251     40250     40252     40251     40250     40253
     40252     40250     40253     40253     40256     40257     40253     40256     40258
     40253     40256     40259     40254     40253     40255     40254     40253     40256
     40255     40253     40256     40256     40259     40260     40256     40259     40261
     40256     40259     40262     40257     40256     40258     40257     40256     40259
     40258     40256     40259     40259     40262     40263     40259     40262     40264
     40259     40262     40265     40260     40259     40261     40260     40259     40262
     40261     40259     40262     40262     40265     40266     40262     40265     40267
     40262     40265     40268     40263     40262     40264     40263     40262     40265
     40264     40262     40265     40265     40268     40269     40265     40268     40270
     40265     40268     40271     40266     40265     40267     40266     40265     40268
     40267     40265     40268     40268     40271     40272     40268     40271     40273
     40268     40271     40274     40269     40268     40270     40269     40268     40271
     40270     40268     40271     40271     40274     40275     40271     40274     40276
     40271     40274     40277     40272     40271     40273     40272     40271     40274
     40273     40271     40274     40274     40277     40278     40274     40277     40279
     40274     40277     40280     40275     40274     40276     40275     40274     40277
     40276     40274     40277     40277     40280     40281     40277     40280     40282
     40277     40280     40283     40278     40277     40279     40278     40277     40280
     40279     40277     40280     40281     40280     40282     40281     40280     40283
     40282     40280     40283     40284     40288     40289     40284     40288     40290
     40284     40288     40291     40285     40284     40286     40285     40284     40287
     40285     40284     40288     40286     40284     40287     40286     40284     40288
     40287     40284     40288     40288     40291     40292     40288     40291     40293
     40288     40291     40298     40289     40288     40290     40289     40288     40291
     40290     40288     40291     40291     40298     40294     40292     40291     40293
     40292     40291     40298     40293     40291     40298     40294     40297     40299
     40295     40294     40296     40295     40294     40297     40295     40294     40298
     40296     40294     40297     40296     40294     40298     40297     40294     40298
     40297     40299     40300     40297     40299     40301     40297     40299     40302
     40299     40302     40303     40299     40302     40304     40299     40302     40310
     40300     40299     40301     40300     40299     40302     40301     40299     40302
     40302     40304     40305     40302     40310     40311     40302     40310     40312
     40302     40310     40313     40303     40302     40304     40303     40302     40310
     40304     40302     40310     40304     40305     40306     40304     40305     40307
     40305     40307     40308     40305     40307     40309     40305     40307     40319
     40306     40305     40307     40307     40319     40320     40307     40319     40321
     40307     40319     40322     40308     40307     40309     40308     40307     40319
     40309     40307     40319     40310     40313     40314     40311     40310     40312
     40311     40310     40313     40312     40310     40313     40313     40314     40315
     40313     40314     40316     40314     40316     40317     40314     40316     40318
     40314     40316     40366     40315     40314     40316     40316     40366     40367
     40316     40366     40368     40316     40366     40369     40317     40316     40318
     40317     40316     40366     40318     40316     40366     40319     40322     40323
     40319     40322     40324     40319     40322     40325     40320     40319     40321
     40320     40319     40322     40321     40319     40322     40322     40325     40326
     40322     40325     40327     40322     40325     40328     40323     40322     40324
     40323     40322     40325     40324     40322     40325     40325     40328     40329
     40325     40328     40330     40325     40328     40331     40326     40325     40327
     40326     40325     40328     40327     40325     40328     40328     40331     40332
     40328     40331     40333     40328     40331     40334     40329     40328     40330
     40329     40328     40331     40330     40328     40331     40331     40334     40335
     40331     40334     40336     40331     40334     40337     40332     40331     40333
     40332     40331     40334     40333     40331     40334     40334     40337     40338
     40334     40337     40339     40335     40334     40336     40335     40334     40337
     40336     40334     40337     40337     40339     40340     40337     40339     40341
     40338     40337     40339     40339     40341     40342     40339     40341     40343
     40339     40341     40344     40340     40339     40341     40341     40344     40345
     40341     40344     40346     40341     40344     40347     40342     40341     40343
     40342     40341     40344     40343     40341     40344     40344     40347     40348
     40344     40347     40349     40344     40347     40350     40345     40344     40346
     40345     40344     40347     40346     40344     40347     40347     40350     40351
     40347     40350     40352     40347     40350     40353     40348     40347     40349
     40348     40347     40350     40349     40347     40350     40350     40353     40354
     40350     40353     40355     40350     40353     40356     40351     40350     40352
     40351     40350     40353     40352     40350     40353     40353     40356     40357
     40353     40356     40358     40353     40356     40359     40354     40353     40355
     40354     40353     40356     40355     40353     40356     40356     40359     40360
     40356     40359     40361     40356     40359     40362     40357     40356     40358
     40357     40356     40359     40358     40356     40359     40359     40362     40363
     40359     40362     40364     40359     40362     40365     40360     40359     40361
     40360     40359     40362     40361     40359     40362     40363     40362     40364
     40363     40362     40365     40364     40362     40365     40366     40369     40370
     40366     40369     40371     40366     40369     40372     40367     40366     40368
     40367     40366     40369     40368     40366     40369     40369     40372     40373
     40369     40372     40374     40369     40372     40375     40370     40369     40371
     40370     40369     40372     40371     40369     40372     40372     40375     40376
     40372     40375     40377     40372     40375     40378     40373     40372     40374
     40373     40372     40375     40374     40372     40375     40375     40378     40379
     40375     40378     40380     40375     40378     40381     40376     40375     40377
     40376     40375     40378     40377     40375     40378     40378     40381     40382
     40378     40381     40383     40378     40381     40384     40379     40378     40380
     40379     40378     40381     40380     40378     40381     40381     40384     40385
     40381     40384     40386     40381     40384     40387     40382     40381     40383
     40382     40381     40384     40383     40381     40384     40384     40387     40388
     40384     40387     40389     40384     40387     40390     40385     40384     40386
     40385     40384     40387     40386     40384     40387     40387     40390     40391
     40387     40390     40392     40387     40390     40393     40388     40387     40389
     40388     40387     40390     40389     40387     40390     40390     40393     40394
     40390     40393     40395     40390     40393     40396     40391     40390     40392
     40391     40390     40393     40392     40390     40393     40393     40396     40397
     40393     40396     40398     40393     40396     40399     40394     40393     40395
     40394     40393     40396     40395     40393     40396     40396     40399     40400
     40396     40399     40401     40396     40399     40402     40397     40396     40398
     40397     40396     40399     40398     40396     40399     40399     40402     40403
     40399     40402     40404     40399     40402     40405     40400     40399     40401
     40400     40399     40402     40401     40399     40402     40402     40405     40406
     40402     40405     40407     40402     40405     40408     40403     40402     40404
     40403     40402     40405     40404     40402     40405     40406     40405     40407
     40406     40405     40408     40407     40405     40408     40409     40410     40411
     40409     40410     40412     40409     40410     40425     40409     40413     40414
     40409     40413     40415     40409     40413     40416     40409     40417     40418
     40409     40417     40419     40409     40417     40420     40409     40421     40422
     40409     40421     40423     40409     40421     40424     40410     40409     40413
     40410     40409     40417     40410     40409     40421     40410     40425     40426
     40410     40425     40427     40410     40425     40431     40411     40410     40412
     40411     40410     40425     40412     40410     40425     40413     40409     40417
     40413     40409     40421     40414     40413     40415     40414     40413     40416
     40415     40413     40416     40417     40409     40421     40418     40417     40419
     40418     40417     40420     40419     40417     40420     40422     40421     40423
     40422     40421     40424     40423     40421     40424     40425     40431     40428
     40426     40425     40427     40426     40425     40431     40427     40425     40431
     40428     40432     40433     40429     40428     40430     40429     40428     40431
     40429     40428     40432     40430     40428     40431     40430     40428     40432
     40431     40428     40432     40432     40433     40434     40432     40433     40435
     40432     40433     40436     40433     40436     40437     40433     40436     40438
     40433     40436     40444     40434     40433     40435     40434     40433     40436
     40435     40433     40436     40436     40438     40439     40436     40444     40445
     40436     40444     40446     40436     40444     40447     40437     40436     40438
     40437     40436     40444     40438     40436     40444     40438     40439     40440
     40438     40439     40441     40439     40441     40442     40439     40441     40443
     40439     40441     40453     40440     40439     40441     40441     40453     40454
     40441     40453     40455     40441     40453     40456     40442     40441     40443
     40442     40441     40453     40443     40441     40453     40444     40447     40448
     40445     40444     40446     40445     40444     40447     40446     40444     40447
     40447     40448     40449     40447     40448     40450     40448     40450     40451
     40448     40450     40452     40448     40450     40500     40449     40448     40450
     40450     40500     40501     40450     40500     40502     40450     40500     40503
     40451     40450     40452     40451     40450     40500     40452     40450     40500
     40453     40456     40457     40453     40456     40458     40453     40456     40459
     40454     40453     40455     40454     40453     40456     40455     40453     40456
     40456     40459     40460     40456     40459     40461     40456     40459     40462
     40457     40456     40458     40457     40456     40459     40458     40456     40459
     40459     40462     40463     40459     40462     40464     40459     40462     40465
     40460     40459     40461     40460     40459     40462     40461     40459     40462
     40462     40465     40466     40462     40465     40467     40462     40465     40468
     40463     40462     40464     40463     40462     40465     40464     40462     40465
     40465     40468     40469     40465     40468     40470     40465     40468     40471
     40466     40465     40467     40466     40465     40468     40467     40465     40468
     40468     40471     40472     40468     40471     40473     40469     40468     40470
     40469     40468     40471     40470     40468     40471     40471     40473     40474
     40471     40473     40475     40472     40471     40473     40473     40475     40476
     40473     40475     40477     40473     40475     40478     40474     40473     40475
     40475     40478     40479     40475     40478     40480     40475     40478     40481
     40476     40475     40477     40476     40475     40478     40477     40475     40478
     40478     40481     40482     40478     40481     40483     40478     40481     40484
     40479     40478     40480     40479     40478     40481     40480     40478     40481
     40481     40484     40485     40481     40484     40486     40481     40484     40487
     40482     40481     40483     40482     40481     40484     40483     40481     40484
     40484     40487     40488     40484     40487     40489     40484     40487     40490
     40485     40484     40486     40485     40484     40487     40486     40484     40487
     40487     40490     40491     40487     40490     40492     40487     40490     40493
     40488     40487     40489     40488     40487     40490     40489     40487     40490
     40490     40493     40494     40490     40493     40495     40490     40493     40496
     40491     40490     40492     40491     40490     40493     40492     40490     40493
     40493     40496     40497     40493     40496     40498     40493     40496     40499
     40494     40493     40495     40494     40493     40496     40495     40493     40496
     40497     40496     40498     40497     40496     40499     40498     40496     40499
     40500     40503     40504     40500     40503     40505     40500     40503     40506
     40501     40500     40502     40501     40500     40503     40502     40500     40503
     40503     40506     40507     40503     40506     40508     40503     40506     40509
     40504     40503     40505     40504     40503     40506     40505     40503     40506
     40506     40509     40510     40506     40509     40511     40506     40509     40512
     40507     40506     40508     40507     40506     40509     40508     40506     40509
     40509     40512     40513     40509     40512     40514     40509     40512     40515
     40510     40509     40511     40510     40509     40512     40511     40509     40512
     40512     40515     40516     40512     40515     40517     40512     40515     40518
     40513     40512     40514     40513     40512     40515     40514     40512     40515
     40515     40518     40519     40515     40518     40520     40515     40518     40521
     40516     40515     40517     40516     40515     40518     40517     40515     40518
     40518     40521     40522     40518     40521     40523     40518     40521     40524
     40519     40518     40520     40519     40518     40521     40520     40518     40521
     40521     40524     40525     40521     40524     40526     40521     40524     40527
     40522     40521     40523     40522     40521     40524     40523     40521     40524
     40524     40527     40528     40524     40527     40529     40524     40527     40530
     40525     40524     40526     40525     40524     40527     40526     40524     40527
     40527     40530     40531     40527     40530     40532     40527     40530     40533
     40528     40527     40529     40528     40527     40530     40529     40527     40530
     40530     40533     40534     40530     40533     40535     40530     40533     40536
     40531     40530     40532     40531     40530     40533     40532     40530     40533
     40533     40536     40537     40533     40536     40538     40533     40536     40539
     40534     40533     40535     40534     40533     40536     40535     40533     40536
     40536     40539     40540     40536     40539     40541     40536     40539     40542
     40537     40536     40538     40537     40536     40539     40538     40536     40539
     40540     40539     40541     40540     40539     40542     40541     40539     40542
     40543     40547     40548     40543     40547     40549     40543     40547     40550
     40544     40543     40545     40544     40543     40546     40544     40543     40547
     40545     40543     40546     40545     40543     40547     40546     40543     40547
     40547     40550     40551     40547     40550     40552     40547     40550     40557
     40548     40547     40549     40548     40547     40550     40549     40547     40550
     40550     40557     40553     40551     40550     40552     40551     40550     40557
     40552     40550     40557     40553     40556     40558     40554     40553     40555
     40554     40553     40556     40554     40553     40557     40555     40553     40556
     40555     40553     40557     40556     40553     40557     40556     40558     40559
     40556     40558     40560     40556     40558     40561     40558     40561     40562
     40558     40561     40563     40558     40561     40569     40559     40558     40560
     40559     40558     40561     40560     40558     40561     40561     40563     40564
     40561     40569     40570     40561     40569     40571     40561     40569     40572
     40562     40561     40563     40562     40561     40569     40563     40561     40569
     40563     40564     40565     40563     40564     40566     40564     40566     40567
     40564     40566     40568     40564     40566     40578     40565     40564     40566
     40566     40578     40579     40566     40578     40580     40566     40578     40581
     40567     40566     40568     40567     40566     40578     40568     40566     40578
     40569     40572     40573     40570     40569     40571     40570     40569     40572
     40571     40569     40572     40572     40573     40574     40572     40573     40575
     40573     40575     40576     40573     40575     40577     40573     40575     40625
     40574     40573     40575     40575     40625     40626     40575     40625     40627
     40575     40625     40628     40576     40575     40577     40576     40575     40625
     40577     40575     40625     40578     40581     40582     40578     40581     40583
     40578     40581     40584     40579     40578     40580     40579     40578     40581
     40580     40578     40581     40581     40584     40585     40581     40584     40586
     40581     40584     40587     40582     40581     40583     40582     40581     40584
     40583     40581     40584     40584     40587     40588     40584     40587     40589
     40584     40587     40590     40585     40584     40586     40585     40584     40587
     40586     40584     40587     40587     40590     40591     40587     40590     40592
     40587     40590     40593     40588     40587     40589     40588     40587     40590
     40589     40587     40590     40590     40593     40594     40590     40593     40595
     40590     40593     40596     40591     40590     40592     40591     40590     40593
     40592     40590     40593     40593     40596     40597     40593     40596     40598
     40594     40593     40595     40594     40593     40596     40595     40593     40596
     40596     40598     40599     40596     40598     40600     40597     40596     40598
     40598     40600     40601     40598     40600     40602     40598     40600     40603
     40599     40598     40600     40600     40603     40604     40600     40603     40605
     40600     40603     40606     40601     40600     40602     40601     40600     40603
     40602     40600     40603     40603     40606     40607     40603     40606     40608
     40603     40606     40609     40604     40603     40605     40604     40603     40606
     40605     40603     40606     40606     40609     40610     40606     40609     40611
     40606     40609     40612     40607     40606     40608     40607     40606     40609
     40608     40606     40609     40609     40612     40613     40609     40612     40614
     40609     40612     40615     40610     40609     40611     40610     40609     40612
     40611     40609     40612     40612     40615     40616     40612     40615     40617
     40612     40615     40618     40613     40612     40614     40613     40612     40615
     40614     40612     40615     40615     40618     40619     40615     40618     40620
     40615     40618     40621     40616     40615     40617     40616     40615     40618
     40617     40615     40618     40618     40621     40622     40618     40621     40623
     40618     40621     40624     40619     40618     40620     40619     40618     40621
     40620     40618     40621     40622     40621     40623     40622     40621     40624
     40623     40621     40624     40625     40628     40629     40625     40628     40630
     40625     40628     40631     40626     40625     40627     40626     40625     40628
     40627     40625     40628     40628     40631     40632     40628     40631     40633
     40628     40631     40634     40629     40628     40630     40629     40628     40631
     40630     40628     40631     40631     40634     40635     40631     40634     40636
     40631     40634     40637     40632     40631     40633     40632     40631     40634
     40633     40631     40634     40634     40637     40638     40634     40637     40639
     40634     40637     40640     40635     40634     40636     40635     40634     40637
     40636     40634     40637     40637     40640     40641     40637     40640     40642
     40637     40640     40643     40638     40637     40639     40638     40637     40640
     40639     40637     40640     40640     40643     40644     40640     40643     40645
     40640     40643     40646     40641     40640     40642     40641     40640     40643
     40642     40640     40643     40643     40646     40647     40643     40646     40648
     40643     40646     40649     40644     40643     40645     40644     40643     40646
     40645     40643     40646     40646     40649     40650     40646     40649     40651
     40646     40649     40652     40647     40646     40648     40647     40646     40649
     40648     40646     40649     40649     40652     40653     40649     40652     40654
     40649     40652     40655     40650     40649     40651     40650     40649     40652
     40651     40649     40652     40652     40655     40656     40652     40655     40657
     40652     40655     40658     40653     40652     40654     40653     40652     40655
     40654     40652     40655     40655     40658     40659     40655     40658     40660
     40655     40658     40661     40656     40655     40657     40656     40655     40658
     40657     40655     40658     40658     40661     40662     40658     40661     40663
     40658     40661     40664     40659     40658     40660     40659     40658     40661
     40660     40658     40661     40661     40664     40665     40661     40664     40666
     40661     40664     40667     40662     40661     40663     40662     40661     40664
     40663     40661     40664     40665     40664     40666     40665     40664     40667
     40666     40664     40667     40668     40672     40673     40668     40672     40674
     40668     40672     40675     40669     40668     40670     40669     40668     40671
     40669     40668     40672     40670     40668     40671     40670     40668     40672
     40671     40668     40672     40672     40675     40676     40672     40675     40677
     40672     40675     40682     40673     40672     40674     40673     40672     40675
     40674     40672     40675     40675     40682     40678     40676     40675     40677
     40676     40675     40682     40677     40675     40682     40678     40681     40683
     40679     40678     40680     40679     40678     40681     40679     40678     40682
     40680     40678     40681     40680     40678     40682     40681     40678     40682
     40681     40683     40684     40681     40683     40685     40681     40683     40686
     40683     40686     40687     40683     40686     40688     40683     40686     40694
     40684     40683     40685     40684     40683     40686     40685     40683     40686
     40686     40688     40689     40686     40694     40695     40686     40694     40696
     40686     40694     40697     40687     40686     40688     40687     40686     40694
     40688     40686     40694     40688     40689     40690     40688     40689     40691
     40689     40691     40692     40689     40691     40693     40689     40691     40703
     40690     40689     40691     40691     40703     40704     40691     40703     40705
     40691     40703     40706     40692     40691     40693     40692     40691     40703
     40693     40691     40703     40694     40697     40698     40695     40694     40696
     40695     40694     40697     40696     40694     40697     40697     40698     40699
     40697     40698     40700     40698     40700     40701     40698     40700     40702
     40698     40700     40750     40699     40698     40700     40700     40750     40751
     40700     40750     40752     40700     40750     40753     40701     40700     40702
     40701     40700     40750     40702     40700     40750     40703     40706     40707
     40703     40706     40708     40703     40706     40709     40704     40703     40705
     40704     40703     40706     40705     40703     40706     40706     40709     40710
     40706     40709     40711     40706     40709     40712     40707     40706     40708
     40707     40706     40709     40708     40706     40709     40709     40712     40713
     40709     40712     40714     40709     40712     40715     40710     40709     40711
     40710     40709     40712     40711     40709     40712     40712     40715     40716
     40712     40715     40717     40712     40715     40718     40713     40712     40714
     40713     40712     40715     40714     40712     40715     40715     40718     40719
     40715     40718     40720     40715     40718     40721     40716     40715     40717
     40716     40715     40718     40717     40715     40718     40718     40721     40722
     40718     40721     40723     40719     40718     40720     40719     40718     40721
     40720     40718     40721     40721     40723     40724     40721     40723     40725
     40722     40721     40723     40723     40725     40726     40723     40725     40727
     40723     40725     40728     40724     40723     40725     40725     40728     40729
     40725     40728     40730     40725     40728     40731     40726     40725     40727
     40726     40725     40728     40727     40725     40728     40728     40731     40732
     40728     40731     40733     40728     40731     40734     40729     40728     40730
     40729     40728     40731     40730     40728     40731     40731     40734     40735
     40731     40734     40736     40731     40734     40737     40732     40731     40733
     40732     40731     40734     40733     40731     40734     40734     40737     40738
     40734     40737     40739     40734     40737     40740     40735     40734     40736
     40735     40734     40737     40736     40734     40737     40737     40740     40741
     40737     40740     40742     40737     40740     40743     40738     40737     40739
     40738     40737     40740     40739     40737     40740     40740     40743     40744
     40740     40743     40745     40740     40743     40746     40741     40740     40742
     40741     40740     40743     40742     40740     40743     40743     40746     40747
     40743     40746     40748     40743     40746     40749     40744     40743     40745
     40744     40743     40746     40745     40743     40746     40747     40746     40748
     40747     40746     40749     40748     40746     40749     40750     40753     40754
     40750     40753     40755     40750     40753     40756     40751     40750     40752
     40751     40750     40753     40752     40750     40753     40753     40756     40757
     40753     40756     40758     40753     40756     40759     40754     40753     40755
     40754     40753     40756     40755     40753     40756     40756     40759     40760
     40756     40759     40761     40756     40759     40762     40757     40756     40758
     40757     40756     40759     40758     40756     40759     40759     40762     40763
     40759     40762     40764     40759     40762     40765     40760     40759     40761
     40760     40759     40762     40761     40759     40762     40762     40765     40766
     40762     40765     40767     40762     40765     40768     40763     40762     40764
     40763     40762     40765     40764     40762     40765     40765     40768     40769
     40765     40768     40770     40765     40768     40771     40766     40765     40767
     40766     40765     40768     40767     40765     40768     40768     40771     40772
     40768     40771     40773     40768     40771     40774     40769     40768     40770
     40769     40768     40771     40770     40768     40771     40771     40774     40775
     40771     40774     40776     40771     40774     40777     40772     40771     40773
     40772     40771     40774     40773     40771     40774     40774     40777     40778
     40774     40777     40779     40774     40777     40780     40775     40774     40776
     40775     40774     40777     40776     40774     40777     40777     40780     40781
     40777     40780     40782     40777     40780     40783     40778     40777     40779
     40778     40777     40780     40779     40777     40780     40780     40783     40784
     40780     40783     40785     40780     40783     40786     40781     40780     40782
     40781     40780     40783     40782     40780     40783     40783     40786     40787
     40783     40786     40788     40783     40786     40789     40784     40783     40785
     40784     40783     40786     40785     40783     40786     40786     40789     40790
     40786     40789     40791     40786     40789     40792     40787     40786     40788
     40787     40786     40789     40788     40786     40789     40790     40789     40791
     40790     40789     40792     40791     40789     40792     40793     40794     40795
     40793     40794     40796     40793     40794     40809     40793     40797     40798
     40793     40797     40799     40793     40797     40800     40793     40801     40802
     40793     40801     40803     40793     40801     40804     40793     40805     40806
     40793     40805     40807     40793     40805     40808     40794     40793     40797
     40794     40793     40801     40794     40793     40805     40794     40809     40810
     40794     40809     40811     40794     40809     40815     40795     40794     40796
     40795     40794     40809     40796     40794     40809     40797     40793     40801
     40797     40793     40805     40798     40797     40799     40798     40797     40800
     40799     40797     40800     40801     40793     40805     40802     40801     40803
     40802     40801     40804     40803     40801     40804     40806     40805     40807
     40806     40805     40808     40807     40805     40808     40809     40815     40812
     40810     40809     40811     40810     40809     40815     40811     40809     40815
     40812     40816     40817     40813     40812     40814     40813     40812     40815
     40813     40812     40816     40814     40812     40815     40814     40812     40816
     40815     40812     40816     40816     40817     40818     40816     40817     40819
     40816     40817     40820     40817     40820     40821     40817     40820     40822
     40817     40820     40828     40818     40817     40819     40818     40817     40820
     40819     40817     40820     40820     40822     40823     40820     40828     40829
     40820     40828     40830     40820     40828     40831     40821     40820     40822
     40821     40820     40828     40822     40820     40828     40822     40823     40824
     40822     40823     40825     40823     40825     40826     40823     40825     40827
     40823     40825     40837     40824     40823     40825     40825     40837     40838
     40825     40837     40839     40825     40837     40840     40826     40825     40827
     40826     40825     40837     40827     40825     40837     40828     40831     40832
     40829     40828     40830     40829     40828     40831     40830     40828     40831
     40831     40832     40833     40831     40832     40834     40832     40834     40835
     40832     40834     40836     40832     40834     40884     40833     40832     40834
     40834     40884     40885     40834     40884     40886     40834     40884     40887
     40835     40834     40836     40835     40834     40884     40836     40834     40884
     40837     40840     40841     40837     40840     40842     40837     40840     40843
     40838     40837     40839     40838     40837     40840     40839     40837     40840
     40840     40843     40844     40840     40843     40845     40840     40843     40846
     40841     40840     40842     40841     40840     40843     40842     40840     40843
     40843     40846     40847     40843     40846     40848     40843     40846     40849
     40844     40843     40845     40844     40843     40846     40845     40843     40846
     40846     40849     40850     40846     40849     40851     40846     40849     40852
     40847     40846     40848     40847     40846     40849     40848     40846     40849
     40849     40852     40853     40849     40852     40854     40849     40852     40855
     40850     40849     40851     40850     40849     40852     40851     40849     40852
     40852     40855     40856     40852     40855     40857     40853     40852     40854
     40853     40852     40855     40854     40852     40855     40855     40857     40858
     40855     40857     40859     40856     40855     40857     40857     40859     40860
     40857     40859     40861     40857     40859     40862     40858     40857     40859
     40859     40862     40863     40859     40862     40864     40859     40862     40865
     40860     40859     40861     40860     40859     40862     40861     40859     40862
     40862     40865     40866     40862     40865     40867     40862     40865     40868
     40863     40862     40864     40863     40862     40865     40864     40862     40865
     40865     40868     40869     40865     40868     40870     40865     40868     40871
     40866     40865     40867     40866     40865     40868     40867     40865     40868
     40868     40871     40872     40868     40871     40873     40868     40871     40874
     40869     40868     40870     40869     40868     40871     40870     40868     40871
     40871     40874     40875     40871     40874     40876     40871     40874     40877
     40872     40871     40873     40872     40871     40874     40873     40871     40874
     40874     40877     40878     40874     40877     40879     40874     40877     40880
     40875     40874     40876     40875     40874     40877     40876     40874     40877
     40877     40880     40881     40877     40880     40882     40877     40880     40883
     40878     40877     40879     40878     40877     40880     40879     40877     40880
     40881     40880     40882     40881     40880     40883     40882     40880     40883
     40884     40887     40888     40884     40887     40889     40884     40887     40890
     40885     40884     40886     40885     40884     40887     40886     40884     40887
     40887     40890     40891     40887     40890     40892     40887     40890     40893
     40888     40887     40889     40888     40887     40890     40889     40887     40890
     40890     40893     40894     40890     40893     40895     40890     40893     40896
     40891     40890     40892     40891     40890     40893     40892     40890     40893
     40893     40896     40897     40893     40896     40898     40893     40896     40899
     40894     40893     40895     40894     40893     40896     40895     40893     40896
     40896     40899     40900     40896     40899     40901     40896     40899     40902
     40897     40896     40898     40897     40896     40899     40898     40896     40899
     40899     40902     40903     40899     40902     40904     40899     40902     40905
     40900     40899     40901     40900     40899     40902     40901     40899     40902
     40902     40905     40906     40902     40905     40907     40902     40905     40908
     40903     40902     40904     40903     40902     40905     40904     40902     40905
     40905     40908     40909     40905     40908     40910     40905     40908     40911
     40906     40905     40907     40906     40905     40908     40907     40905     40908
     40908     40911     40912     40908     40911     40913     40908     40911     40914
     40909     40908     40910     40909     40908     40911     40910     40908     40911
     40911     40914     40915     40911     40914     40916     40911     40914     40917
     40912     40911     40913     40912     40911     40914     40913     40911     40914
     40914     40917     40918     40914     40917     40919     40914     40917     40920
     40915     40914     40916     40915     40914     40917     40916     40914     40917
     40917     40920     40921     40917     40920     40922     40917     40920     40923
     40918     40917     40919     40918     40917     40920     40919     40917     40920
     40920     40923     40924     40920     40923     40925     40920     40923     40926
     40921     40920     40922     40921     40920     40923     40922     40920     40923
     40924     40923     40925     40924     40923     40926     40925     40923     40926
     40927     40928     40929     40927     40928     40930     40927     40928     40943
     40927     40931     40932     40927     40931     40933     40927     40931     40934
     40927     40935     40936     40927     40935     40937     40927     40935     40938
     40927     40939     40940     40927     40939     40941     40927     40939     40942
     40928     40927     40931     40928     40927     40935     40928     40927     40939
     40928     40943     40944     40928     40943     40945     40928     40943     40949
     40929     40928     40930     40929     40928     40943     40930     40928     40943
     40931     40927     40935     40931     40927     40939     40932     40931     40933
     40932     40931     40934     40933     40931     40934     40935     40927     40939
     40936     40935     40937     40936     40935     40938     40937     40935     40938
     40940     40939     40941     40940     40939     40942     40941     40939     40942
     40943     40949     40946     40944     40943     40945     40944     40943     40949
     40945     40943     40949     40946     40950     40951     40947     40946     40948
     40947     40946     40949     40947     40946     40950     40948     40946     40949
     40948     40946     40950     40949     40946     40950     40950     40951     40952
     40950     40951     40953     40950     40951     40954     40951     40954     40955
     40951     40954     40956     40951     40954     40962     40952     40951     40953
     40952     40951     40954     40953     40951     40954     40954     40956     40957
     40954     40962     40963     40954     40962     40964     40954     40962     40965
     40955     40954     40956     40955     40954     40962     40956     40954     40962
     40956     40957     40958     40956     40957     40959     40957     40959     40960
     40957     40959     40961     40957     40959     40971     40958     40957     40959
     40959     40971     40972     40959     40971     40973     40959     40971     40974
     40960     40959     40961     40960     40959     40971     40961     40959     40971
     40962     40965     40966     40963     40962     40964     40963     40962     40965
     40964     40962     40965     40965     40966     40967     40965     40966     40968
     40966     40968     40969     40966     40968     40970     40966     40968     41018
     40967     40966     40968     40968     41018     41019     40968     41018     41020
     40968     41018     41021     40969     40968     40970     40969     40968     41018
     40970     40968     41018     40971     40974     40975     40971     40974     40976
     40971     40974     40977     40972     40971     40973     40972     40971     40974
     40973     40971     40974     40974     40977     40978     40974     40977     40979
     40974     40977     40980     40975     40974     40976     40975     40974     40977
     40976     40974     40977     40977     40980     40981     40977     40980     40982
     40977     40980     40983     40978     40977     40979     40978     40977     40980
     40979     40977     40980     40980     40983     40984     40980     40983     40985
     40980     40983     40986     40981     40980     40982     40981     40980     40983
     40982     40980     40983     40983     40986     40987     40983     40986     40988
     40983     40986     40989     40984     40983     40985     40984     40983     40986
     40985     40983     40986     40986     40989     40990     40986     40989     40991
     40987     40986     40988     40987     40986     40989     40988     40986     40989
     40989     40991     40992     40989     40991     40993     40990     40989     40991
     40991     40993     40994     40991     40993     40995     40991     40993     40996
     40992     40991     40993     40993     40996     40997     40993     40996     40998
     40993     40996     40999     40994     40993     40995     40994     40993     40996
     40995     40993     40996     40996     40999     41000     40996     40999     41001
     40996     40999     41002     40997     40996     40998     40997     40996     40999
     40998     40996     40999     40999     41002     41003     40999     41002     41004
     40999     41002     41005     41000     40999     41001     41000     40999     41002
     41001     40999     41002     41002     41005     41006     41002     41005     41007
     41002     41005     41008     41003     41002     41004     41003     41002     41005
     41004     41002     41005     41005     41008     41009     41005     41008     41010
     41005     41008     41011     41006     41005     41007     41006     41005     41008
     41007     41005     41008     41008     41011     41012     41008     41011     41013
     41008     41011     41014     41009     41008     41010     41009     41008     41011
     41010     41008     41011     41011     41014     41015     41011     41014     41016
     41011     41014     41017     41012     41011     41013     41012     41011     41014
     41013     41011     41014     41015     41014     41016     41015     41014     41017
     41016     41014     41017     41018     41021     41022     41018     41021     41023
     41018     41021     41024     41019     41018     41020     41019     41018     41021
     41020     41018     41021     41021     41024     41025     41021     41024     41026
     41021     41024     41027     41022     41021     41023     41022     41021     41024
     41023     41021     41024     41024     41027     41028     41024     41027     41029
     41024     41027     41030     41025     41024     41026     41025     41024     41027
     41026     41024     41027     41027     41030     41031     41027     41030     41032
     41027     41030     41033     41028     41027     41029     41028     41027     41030
     41029     41027     41030     41030     41033     41034     41030     41033     41035
     41030     41033     41036     41031     41030     41032     41031     41030     41033
     41032     41030     41033     41033     41036     41037     41033     41036     41038
     41033     41036     41039     41034     41033     41035     41034     41033     41036
     41035     41033     41036     41036     41039     41040     41036     41039     41041
     41036     41039     41042     41037     41036     41038     41037     41036     41039
     41038     41036     41039     41039     41042     41043     41039     41042     41044
     41039     41042     41045     41040     41039     41041     41040     41039     41042
     41041     41039     41042     41042     41045     41046     41042     41045     41047
     41042     41045     41048     41043     41042     41044     41043     41042     41045
     41044     41042     41045     41045     41048     41049     41045     41048     41050
     41045     41048     41051     41046     41045     41047     41046     41045     41048
     41047     41045     41048     41048     41051     41052     41048     41051     41053
     41048     41051     41054     41049     41048     41050     41049     41048     41051
     41050     41048     41051     41051     41054     41055     41051     41054     41056
     41051     41054     41057     41052     41051     41053     41052     41051     41054
     41053     41051     41054     41054     41057     41058     41054     41057     41059
     41054     41057     41060     41055     41054     41056     41055     41054     41057
     41056     41054     41057     41058     41057     41059     41058     41057     41060
     41059     41057     41060     41061     41065     41066     41061     41065     41067
     41061     41065     41068     41062     41061     41063     41062     41061     41064
     41062     41061     41065     41063     41061     41064     41063     41061     41065
     41064     41061     41065     41065     41068     41069     41065     41068     41070
     41065     41068     41075     41066     41065     41067     41066     41065     41068
     41067     41065     41068     41068     41075     41071     41069     41068     41070
     41069     41068     41075     41070     41068     41075     41071     41074     41076
     41072     41071     41073     41072     41071     41074     41072     41071     41075
     41073     41071     41074     41073     41071     41075     41074     41071     41075
     41074     41076     41077     41074     41076     41078     41074     41076     41079
     41076     41079     41080     41076     41079     41081     41076     41079     41087
     41077     41076     41078     41077     41076     41079     41078     41076     41079
     41079     41081     41082     41079     41087     41088     41079     41087     41089
     41079     41087     41090     41080     41079     41081     41080     41079     41087
     41081     41079     41087     41081     41082     41083     41081     41082     41084
     41082     41084     41085     41082     41084     41086     41082     41084     41096
     41083     41082     41084     41084     41096     41097     41084     41096     41098
     41084     41096     41099     41085     41084     41086     41085     41084     41096
     41086     41084     41096     41087     41090     41091     41088     41087     41089
     41088     41087     41090     41089     41087     41090     41090     41091     41092
     41090     41091     41093     41091     41093     41094     41091     41093     41095
     41091     41093     41143     41092     41091     41093     41093     41143     41144
     41093     41143     41145     41093     41143     41146     41094     41093     41095
     41094     41093     41143     41095     41093     41143     41096     41099     41100
     41096     41099     41101     41096     41099     41102     41097     41096     41098
     41097     41096     41099     41098     41096     41099     41099     41102     41103
     41099     41102     41104     41099     41102     41105     41100     41099     41101
     41100     41099     41102     41101     41099     41102     41102     41105     41106
     41102     41105     41107     41102     41105     41108     41103     41102     41104
     41103     41102     41105     41104     41102     41105     41105     41108     41109
     41105     41108     41110     41105     41108     41111     41106     41105     41107
     41106     41105     41108     41107     41105     41108     41108     41111     41112
     41108     41111     41113     41108     41111     41114     41109     41108     41110
     41109     41108     41111     41110     41108     41111     41111     41114     41115
     41111     41114     41116     41112     41111     41113     41112     41111     41114
     41113     41111     41114     41114     41116     41117     41114     41116     41118
     41115     41114     41116     41116     41118     41119     41116     41118     41120
     41116     41118     41121     41117     41116     41118     41118     41121     41122
     41118     41121     41123     41118     41121     41124     41119     41118     41120
     41119     41118     41121     41120     41118     41121     41121     41124     41125
     41121     41124     41126     41121     41124     41127     41122     41121     41123
     41122     41121     41124     41123     41121     41124     41124     41127     41128
     41124     41127     41129     41124     41127     41130     41125     41124     41126
     41125     41124     41127     41126     41124     41127     41127     41130     41131
     41127     41130     41132     41127     41130     41133     41128     41127     41129
     41128     41127     41130     41129     41127     41130     41130     41133     41134
     41130     41133     41135     41130     41133     41136     41131     41130     41132
     41131     41130     41133     41132     41130     41133     41133     41136     41137
     41133     41136     41138     41133     41136     41139     41134     41133     41135
     41134     41133     41136     41135     41133     41136     41136     41139     41140
     41136     41139     41141     41136     41139     41142     41137     41136     41138
     41137     41136     41139     41138     41136     41139     41140     41139     41141
     41140     41139     41142     41141     41139     41142     41143     41146     41147
     41143     41146     41148     41143     41146     41149     41144     41143     41145
     41144     41143     41146     41145     41143     41146     41146     41149     41150
     41146     41149     41151     41146     41149     41152     41147     41146     41148
     41147     41146     41149     41148     41146     41149     41149     41152     41153
     41149     41152     41154     41149     41152     41155     41150     41149     41151
     41150     41149     41152     41151     41149     41152     41152     41155     41156
     41152     41155     41157     41152     41155     41158     41153     41152     41154
     41153     41152     41155     41154     41152     41155     41155     41158     41159
     41155     41158     41160     41155     41158     41161     41156     41155     41157
     41156     41155     41158     41157     41155     41158     41158     41161     41162
     41158     41161     41163     41158     41161     41164     41159     41158     41160
     41159     41158     41161     41160     41158     41161     41161     41164     41165
     41161     41164     41166     41161     41164     41167     41162     41161     41163
     41162     41161     41164     41163     41161     41164     41164     41167     41168
     41164     41167     41169     41164     41167     41170     41165     41164     41166
     41165     41164     41167     41166     41164     41167     41167     41170     41171
     41167     41170     41172     41167     41170     41173     41168     41167     41169
     41168     41167     41170     41169     41167     41170     41170     41173     41174
     41170     41173     41175     41170     41173     41176     41171     41170     41172
     41171     41170     41173     41172     41170     41173     41173     41176     41177
     41173     41176     41178     41173     41176     41179     41174     41173     41175
     41174     41173     41176     41175     41173     41176     41176     41179     41180
     41176     41179     41181     41176     41179     41182     41177     41176     41178
     41177     41176     41179     41178     41176     41179     41179     41182     41183
     41179     41182     41184     41179     41182     41185     41180     41179     41181
     41180     41179     41182     41181     41179     41182     41183     41182     41184
     41183     41182     41185     41184     41182     41185     41186     41187     41188
     41186     41187     41189     41186     41187     41202     41186     41190     41191
     41186     41190     41192     41186     41190     41193     41186     41194     41195
     41186     41194     41196     41186     41194     41197     41186     41198     41199
     41186     41198     41200     41186     41198     41201     41187     41186     41190
     41187     41186     41194     41187     41186     41198     41187     41202     41203
     41187     41202     41204     41187     41202     41208     41188     41187     41189
     41188     41187     41202     41189     41187     41202     41190     41186     41194
     41190     41186     41198     41191     41190     41192     41191     41190     41193
     41192     41190     41193     41194     41186     41198     41195     41194     41196
     41195     41194     41197     41196     41194     41197     41199     41198     41200
     41199     41198     41201     41200     41198     41201     41202     41208     41205
     41203     41202     41204     41203     41202     41208     41204     41202     41208
     41205     41209     41210     41206     41205     41207     41206     41205     41208
     41206     41205     41209     41207     41205     41208     41207     41205     41209
     41208     41205     41209     41209     41210     41211     41209     41210     41212
     41209     41210     41213     41210     41213     41214     41210     41213     41215
     41210     41213     41221     41211     41210     41212     41211     41210     41213
     41212     41210     41213     41213     41215     41216     41213     41221     41222
     41213     41221     41223     41213     41221     41224     41214     41213     41215
     41214     41213     41221     41215     41213     41221     41215     41216     41217
     41215     41216     41218     41216     41218     41219     41216     41218     41220
     41216     41218     41230     41217     41216     41218     41218     41230     41231
     41218     41230     41232     41218     41230     41233     41219     41218     41220
     41219     41218     41230     41220     41218     41230     41221     41224     41225
     41222     41221     41223     41222     41221     41224     41223     41221     41224
     41224     41225     41226     41224     41225     41227     41225     41227     41228
     41225     41227     41229     41225     41227     41277     41226     41225     41227
     41227     41277     41278     41227     41277     41279     41227     41277     41280
     41228     41227     41229     41228     41227     41277     41229     41227     41277
     41230     41233     41234     41230     41233     41235     41230     41233     41236
     41231     41230     41232     41231     41230     41233     41232     41230     41233
     41233     41236     41237     41233     41236     41238     41233     41236     41239
     41234     41233     41235     41234     41233     41236     41235     41233     41236
     41236     41239     41240     41236     41239     41241     41236     41239     41242
     41237     41236     41238     41237     41236     41239     41238     41236     41239
     41239     41242     41243     41239     41242     41244     41239     41242     41245
     41240     41239     41241     41240     41239     41242     41241     41239     41242
     41242     41245     41246     41242     41245     41247     41242     41245     41248
     41243     41242     41244     41243     41242     41245     41244     41242     41245
     41245     41248     41249     41245     41248     41250     41246     41245     41247
     41246     41245     41248     41247     41245     41248     41248     41250     41251
     41248     41250     41252     41249     41248     41250     41250     41252     41253
     41250     41252     41254     41250     41252     41255     41251     41250     41252
     41252     41255     41256     41252     41255     41257     41252     41255     41258
     41253     41252     41254     41253     41252     41255     41254     41252     41255
     41255     41258     41259     41255     41258     41260     41255     41258     41261
     41256     41255     41257     41256     41255     41258     41257     41255     41258
     41258     41261     41262     41258     41261     41263     41258     41261     41264
     41259     41258     41260     41259     41258     41261     41260     41258     41261
     41261     41264     41265     41261     41264     41266     41261     41264     41267
     41262     41261     41263     41262     41261     41264     41263     41261     41264
     41264     41267     41268     41264     41267     41269     41264     41267     41270
     41265     41264     41266     41265     41264     41267     41266     41264     41267
     41267     41270     41271     41267     41270     41272     41267     41270     41273
     41268     41267     41269     41268     41267     41270     41269     41267     41270
     41270     41273     41274     41270     41273     41275     41270     41273     41276
     41271     41270     41272     41271     41270     41273     41272     41270     41273
     41274     41273     41275     41274     41273     41276     41275     41273     41276
     41277     41280     41281     41277     41280     41282     41277     41280     41283
     41278     41277     41279     41278     41277     41280     41279     41277     41280
     41280     41283     41284     41280     41283     41285     41280     41283     41286
     41281     41280     41282     41281     41280     41283     41282     41280     41283
     41283     41286     41287     41283     41286     41288     41283     41286     41289
     41284     41283     41285     41284     41283     41286     41285     41283     41286
     41286     41289     41290     41286     41289     41291     41286     41289     41292
     41287     41286     41288     41287     41286     41289     41288     41286     41289
     41289     41292     41293     41289     41292     41294     41289     41292     41295
     41290     41289     41291     41290     41289     41292     41291     41289     41292
     41292     41295     41296     41292     41295     41297     41292     41295     41298
     41293     41292     41294     41293     41292     41295     41294     41292     41295
     41295     41298     41299     41295     41298     41300     41295     41298     41301
     41296     41295     41297     41296     41295     41298     41297     41295     41298
     41298     41301     41302     41298     41301     41303     41298     41301     41304
     41299     41298     41300     41299     41298     41301     41300     41298     41301
     41301     41304     41305     41301     41304     41306     41301     41304     41307
     41302     41301     41303     41302     41301     41304     41303     41301     41304
     41304     41307     41308     41304     41307     41309     41304     41307     41310
     41305     41304     41306     41305     41304     41307     41306     41304     41307
     41307     41310     41311     41307     41310     41312     41307     41310     41313
     41308     41307     41309     41308     41307     41310     41309     41307     41310
     41310     41313     41314     41310     41313     41315     41310     41313     41316
     41311     41310     41312     41311     41310     41313     41312     41310     41313
     41313     41316     41317     41313     41316     41318     41313     41316     41319
     41314     41313     41315     41314     41313     41316     41315     41313     41316
     41317     41316     41318     41317     41316     41319     41318     41316     41319
     41320     41321     41322     41320     41321     41323     41320     41321     41336
     41320     41324     41325     41320     41324     41326     41320     41324     41327
     41320     41328     41329     41320     41328     41330     41320     41328     41331
     41320     41332     41333     41320     41332     41334     41320     41332     41335
     41321     41320     41324     41321     41320     41328     41321     41320     41332
     41321     41336     41337     41321     41336     41338     41321     41336     41342
     41322     41321     41323     41322     41321     41336     41323     41321     41336
     41324     41320     41328     41324     41320     41332     41325     41324     41326
     41325     41324     41327     41326     41324     41327     41328     41320     41332
     41329     41328     41330     41329     41328     41331     41330     41328     41331
     41333     41332     41334     41333     41332     41335     41334     41332     41335
     41336     41342     41339     41337     41336     41338     41337     41336     41342
     41338     41336     41342     41339     41343     41344     41340     41339     41341
     41340     41339     41342     41340     41339     41343     41341     41339     41342
     41341     41339     41343     41342     41339     41343     41343     41344     41345
     41343     41344     41346     41343     41344     41347     41344     41347     41348
     41344     41347     41349     41344     41347     41355     41345     41344     41346
     41345     41344     41347     41346     41344     41347     41347     41349     41350
     41347     41355     41356     41347     41355     41357     41347     41355     41358
     41348     41347     41349     41348     41347     41355     41349     41347     41355
     41349     41350     41351     41349     41350     41352     41350     41352     41353
     41350     41352     41354     41350     41352     41364     41351     41350     41352
     41352     41364     41365     41352     41364     41366     41352     41364     41367
     41353     41352     41354     41353     41352     41364     41354     41352     41364
     41355     41358     41359     41356     41355     41357     41356     41355     41358
     41357     41355     41358     41358     41359     41360     41358     41359     41361
     41359     41361     41362     41359     41361     41363     41359     41361     41411
     41360     41359     41361     41361     41411     41412     41361     41411     41413
     41361     41411     41414     41362     41361     41363     41362     41361     41411
     41363     41361     41411     41364     41367     41368     41364     41367     41369
     41364     41367     41370     41365     41364     41366     41365     41364     41367
     41366     41364     41367     41367     41370     41371     41367     41370     41372
     41367     41370     41373     41368     41367     41369     41368     41367     41370
     41369     41367     41370     41370     41373     41374     41370     41373     41375
     41370     41373     41376     41371     41370     41372     41371     41370     41373
     41372     41370     41373     41373     41376     41377     41373     41376     41378
     41373     41376     41379     41374     41373     41375     41374     41373     41376
     41375     41373     41376     41376     41379     41380     41376     41379     41381
     41376     41379     41382     41377     41376     41378     41377     41376     41379
     41378     41376     41379     41379     41382     41383     41379     41382     41384
     41380     41379     41381     41380     41379     41382     41381     41379     41382
     41382     41384     41385     41382     41384     41386     41383     41382     41384
     41384     41386     41387     41384     41386     41388     41384     41386     41389
     41385     41384     41386     41386     41389     41390     41386     41389     41391
     41386     41389     41392     41387     41386     41388     41387     41386     41389
     41388     41386     41389     41389     41392     41393     41389     41392     41394
     41389     41392     41395     41390     41389     41391     41390     41389     41392
     41391     41389     41392     41392     41395     41396     41392     41395     41397
     41392     41395     41398     41393     41392     41394     41393     41392     41395
     41394     41392     41395     41395     41398     41399     41395     41398     41400
     41395     41398     41401     41396     41395     41397     41396     41395     41398
     41397     41395     41398     41398     41401     41402     41398     41401     41403
     41398     41401     41404     41399     41398     41400     41399     41398     41401
     41400     41398     41401     41401     41404     41405     41401     41404     41406
     41401     41404     41407     41402     41401     41403     41402     41401     41404
     41403     41401     41404     41404     41407     41408     41404     41407     41409
     41404     41407     41410     41405     41404     41406     41405     41404     41407
     41406     41404     41407     41408     41407     41409     41408     41407     41410
     41409     41407     41410     41411     41414     41415     41411     41414     41416
     41411     41414     41417     41412     41411     41413     41412     41411     41414
     41413     41411     41414     41414     41417     41418     41414     41417     41419
     41414     41417     41420     41415     41414     41416     41415     41414     41417
     41416     41414     41417     41417     41420     41421     41417     41420     41422
     41417     41420     41423     41418     41417     41419     41418     41417     41420
     41419     41417     41420     41420     41423     41424     41420     41423     41425
     41420     41423     41426     41421     41420     41422     41421     41420     41423
     41422     41420     41423     41423     41426     41427     41423     41426     41428
     41423     41426     41429     41424     41423     41425     41424     41423     41426
     41425     41423     41426     41426     41429     41430     41426     41429     41431
     41426     41429     41432     41427     41426     41428     41427     41426     41429
     41428     41426     41429     41429     41432     41433     41429     41432     41434
     41429     41432     41435     41430     41429     41431     41430     41429     41432
     41431     41429     41432     41432     41435     41436     41432     41435     41437
     41432     41435     41438     41433     41432     41434     41433     41432     41435
     41434     41432     41435     41435     41438     41439     41435     41438     41440
     41435     41438     41441     41436     41435     41437     41436     41435     41438
     41437     41435     41438     41438     41441     41442     41438     41441     41443
     41438     41441     41444     41439     41438     41440     41439     41438     41441
     41440     41438     41441     41441     41444     41445     41441     41444     41446
     41441     41444     41447     41442     41441     41443     41442     41441     41444
     41443     41441     41444     41444     41447     41448     41444     41447     41449
     41444     41447     41450     41445     41444     41446     41445     41444     41447
     41446     41444     41447     41447     41450     41451     41447     41450     41452
     41447     41450     41453     41448     41447     41449     41448     41447     41450
     41449     41447     41450     41451     41450     41452     41451     41450     41453
     41452     41450     41453     41454     41458     41459     41454     41458     41460
     41454     41458     41461     41455     41454     41456     41455     41454     41457
     41455     41454     41458     41456     41454     41457     41456     41454     41458
     41457     41454     41458     41458     41461     41462     41458     41461     41463
     41458     41461     41468     41459     41458     41460     41459     41458     41461
     41460     41458     41461     41461     41468     41464     41462     41461     41463
     41462     41461     41468     41463     41461     41468     41464     41467     41469
     41465     41464     41466     41465     41464     41467     41465     41464     41468
     41466     41464     41467     41466     41464     41468     41467     41464     41468
     41467     41469     41470     41467     41469     41471     41467     41469     41472
     41469     41472     41473     41469     41472     41474     41469     41472     41480
     41470     41469     41471     41470     41469     41472     41471     41469     41472
     41472     41474     41475     41472     41480     41481     41472     41480     41482
     41472     41480     41483     41473     41472     41474     41473     41472     41480
     41474     41472     41480     41474     41475     41476     41474     41475     41477
     41475     41477     41478     41475     41477     41479     41475     41477     41489
     41476     41475     41477     41477     41489     41490     41477     41489     41491
     41477     41489     41492     41478     41477     41479     41478     41477     41489
     41479     41477     41489     41480     41483     41484     41481     41480     41482
     41481     41480     41483     41482     41480     41483     41483     41484     41485
     41483     41484     41486     41484     41486     41487     41484     41486     41488
     41484     41486     41536     41485     41484     41486     41486     41536     41537
     41486     41536     41538     41486     41536     41539     41487     41486     41488
     41487     41486     41536     41488     41486     41536     41489     41492     41493
     41489     41492     41494     41489     41492     41495     41490     41489     41491
     41490     41489     41492     41491     41489     41492     41492     41495     41496
     41492     41495     41497     41492     41495     41498     41493     41492     41494
     41493     41492     41495     41494     41492     41495     41495     41498     41499
     41495     41498     41500     41495     41498     41501     41496     41495     41497
     41496     41495     41498     41497     41495     41498     41498     41501     41502
     41498     41501     41503     41498     41501     41504     41499     41498     41500
     41499     41498     41501     41500     41498     41501     41501     41504     41505
     41501     41504     41506     41501     41504     41507     41502     41501     41503
     41502     41501     41504     41503     41501     41504     41504     41507     41508
     41504     41507     41509     41505     41504     41506     41505     41504     41507
     41506     41504     41507     41507     41509     41510     41507     41509     41511
     41508     41507     41509     41509     41511     41512     41509     41511     41513
     41509     41511     41514     41510     41509     41511     41511     41514     41515
     41511     41514     41516     41511     41514     41517     41512     41511     41513
     41512     41511     41514     41513     41511     41514     41514     41517     41518
     41514     41517     41519     41514     41517     41520     41515     41514     41516
     41515     41514     41517     41516     41514     41517     41517     41520     41521
     41517     41520     41522     41517     41520     41523     41518     41517     41519
     41518     41517     41520     41519     41517     41520     41520     41523     41524
     41520     41523     41525     41520     41523     41526     41521     41520     41522
     41521     41520     41523     41522     41520     41523     41523     41526     41527
     41523     41526     41528     41523     41526     41529     41524     41523     41525
     41524     41523     41526     41525     41523     41526     41526     41529     41530
     41526     41529     41531     41526     41529     41532     41527     41526     41528
     41527     41526     41529     41528     41526     41529     41529     41532     41533
     41529     41532     41534     41529     41532     41535     41530     41529     41531
     41530     41529     41532     41531     41529     41532     41533     41532     41534
     41533     41532     41535     41534     41532     41535     41536     41539     41540
     41536     41539     41541     41536     41539     41542     41537     41536     41538
     41537     41536     41539     41538     41536     41539     41539     41542     41543
     41539     41542     41544     41539     41542     41545     41540     41539     41541
     41540     41539     41542     41541     41539     41542     41542     41545     41546
     41542     41545     41547     41542     41545     41548     41543     41542     41544
     41543     41542     41545     41544     41542     41545     41545     41548     41549
     41545     41548     41550     41545     41548     41551     41546     41545     41547
     41546     41545     41548     41547     41545     41548     41548     41551     41552
     41548     41551     41553     41548     41551     41554     41549     41548     41550
     41549     41548     41551     41550     41548     41551     41551     41554     41555
     41551     41554     41556     41551     41554     41557     41552     41551     41553
     41552     41551     41554     41553     41551     41554     41554     41557     41558
     41554     41557     41559     41554     41557     41560     41555     41554     41556
     41555     41554     41557     41556     41554     41557     41557     41560     41561
     41557     41560     41562     41557     41560     41563     41558     41557     41559
     41558     41557     41560     41559     41557     41560     41560     41563     41564
     41560     41563     41565     41560     41563     41566     41561     41560     41562
     41561     41560     41563     41562     41560     41563     41563     41566     41567
     41563     41566     41568     41563     41566     41569     41564     41563     41565
     41564     41563     41566     41565     41563     41566     41566     41569     41570
     41566     41569     41571     41566     41569     41572     41567     41566     41568
     41567     41566     41569     41568     41566     41569     41569     41572     41573
     41569     41572     41574     41569     41572     41575     41570     41569     41571
     41570     41569     41572     41571     41569     41572     41572     41575     41576
     41572     41575     41577     41572     41575     41578     41573     41572     41574
     41573     41572     41575     41574     41572     41575     41576     41575     41577
     41576     41575     41578     41577     41575     41578     41579     41583     41584
     41579     41583     41585     41579     41583     41586     41580     41579     41581
     41580     41579     41582     41580     41579     41583     41581     41579     41582
     41581     41579     41583     41582     41579     41583     41583     41586     41587
     41583     41586     41588     41583     41586     41593     41584     41583     41585
     41584     41583     41586     41585     41583     41586     41586     41593     41589
     41587     41586     41588     41587     41586     41593     41588     41586     41593
     41589     41592     41594     41590     41589     41591     41590     41589     41592
     41590     41589     41593     41591     41589     41592     41591     41589     41593
     41592     41589     41593     41592     41594     41595     41592     41594     41596
     41592     41594     41597     41594     41597     41598     41594     41597     41599
     41594     41597     41605     41595     41594     41596     41595     41594     41597
     41596     41594     41597     41597     41599     41600     41597     41605     41606
     41597     41605     41607     41597     41605     41608     41598     41597     41599
     41598     41597     41605     41599     41597     41605     41599     41600     41601
     41599     41600     41602     41600     41602     41603     41600     41602     41604
     41600     41602     41614     41601     41600     41602     41602     41614     41615
     41602     41614     41616     41602     41614     41617     41603     41602     41604
     41603     41602     41614     41604     41602     41614     41605     41608     41609
     41606     41605     41607     41606     41605     41608     41607     41605     41608
     41608     41609     41610     41608     41609     41611     41609     41611     41612
     41609     41611     41613     41609     41611     41661     41610     41609     41611
     41611     41661     41662     41611     41661     41663     41611     41661     41664
     41612     41611     41613     41612     41611     41661     41613     41611     41661
     41614     41617     41618     41614     41617     41619     41614     41617     41620
     41615     41614     41616     41615     41614     41617     41616     41614     41617
     41617     41620     41621     41617     41620     41622     41617     41620     41623
     41618     41617     41619     41618     41617     41620     41619     41617     41620
     41620     41623     41624     41620     41623     41625     41620     41623     41626
     41621     41620     41622     41621     41620     41623     41622     41620     41623
     41623     41626     41627     41623     41626     41628     41623     41626     41629
     41624     41623     41625     41624     41623     41626     41625     41623     41626
     41626     41629     41630     41626     41629     41631     41626     41629     41632
     41627     41626     41628     41627     41626     41629     41628     41626     41629
     41629     41632     41633     41629     41632     41634     41630     41629     41631
     41630     41629     41632     41631     41629     41632     41632     41634     41635
     41632     41634     41636     41633     41632     41634     41634     41636     41637
     41634     41636     41638     41634     41636     41639     41635     41634     41636
     41636     41639     41640     41636     41639     41641     41636     41639     41642
     41637     41636     41638     41637     41636     41639     41638     41636     41639
     41639     41642     41643     41639     41642     41644     41639     41642     41645
     41640     41639     41641     41640     41639     41642     41641     41639     41642
     41642     41645     41646     41642     41645     41647     41642     41645     41648
     41643     41642     41644     41643     41642     41645     41644     41642     41645
     41645     41648     41649     41645     41648     41650     41645     41648     41651
     41646     41645     41647     41646     41645     41648     41647     41645     41648
     41648     41651     41652     41648     41651     41653     41648     41651     41654
     41649     41648     41650     41649     41648     41651     41650     41648     41651
     41651     41654     41655     41651     41654     41656     41651     41654     41657
     41652     41651     41653     41652     41651     41654     41653     41651     41654
     41654     41657     41658     41654     41657     41659     41654     41657     41660
     41655     41654     41656     41655     41654     41657     41656     41654     41657
     41658     41657     41659     41658     41657     41660     41659     41657     41660
     41661     41664     41665     41661     41664     41666     41661     41664     41667
     41662     41661     41663     41662     41661     41664     41663     41661     41664
     41664     41667     41668     41664     41667     41669     41664     41667     41670
     41665     41664     41666     41665     41664     41667     41666     41664     41667
     41667     41670     41671     41667     41670     41672     41667     41670     41673
     41668     41667     41669     41668     41667     41670     41669     41667     41670
     41670     41673     41674     41670     41673     41675     41670     41673     41676
     41671     41670     41672     41671     41670     41673     41672     41670     41673
     41673     41676     41677     41673     41676     41678     41673     41676     41679
     41674     41673     41675     41674     41673     41676     41675     41673     41676
     41676     41679     41680     41676     41679     41681     41676     41679     41682
     41677     41676     41678     41677     41676     41679     41678     41676     41679
     41679     41682     41683     41679     41682     41684     41679     41682     41685
     41680     41679     41681     41680     41679     41682     41681     41679     41682
     41682     41685     41686     41682     41685     41687     41682     41685     41688
     41683     41682     41684     41683     41682     41685     41684     41682     41685
     41685     41688     41689     41685     41688     41690     41685     41688     41691
     41686     41685     41687     41686     41685     41688     41687     41685     41688
     41688     41691     41692     41688     41691     41693     41688     41691     41694
     41689     41688     41690     41689     41688     41691     41690     41688     41691
     41691     41694     41695     41691     41694     41696     41691     41694     41697
     41692     41691     41693     41692     41691     41694     41693     41691     41694
     41694     41697     41698     41694     41697     41699     41694     41697     41700
     41695     41694     41696     41695     41694     41697     41696     41694     41697
     41697     41700     41701     41697     41700     41702     41697     41700     41703
     41698     41697     41699     41698     41697     41700     41699     41697     41700
     41701     41700     41702     41701     41700     41703     41702     41700     41703
     41704     41705     41706     41704     41705     41707     41704     41705     41720
     41704     41708     41709     41704     41708     41710     41704     41708     41711
     41704     41712     41713     41704     41712     41714     41704     41712     41715
     41704     41716     41717     41704     41716     41718     41704     41716     41719
     41705     41704     41708     41705     41704     41712     41705     41704     41716
     41705     41720     41721     41705     41720     41722     41705     41720     41726
     41706     41705     41707     41706     41705     41720     41707     41705     41720
     41708     41704     41712     41708     41704     41716     41709     41708     41710
     41709     41708     41711     41710     41708     41711     41712     41704     41716
     41713     41712     41714     41713     41712     41715     41714     41712     41715
     41717     41716     41718     41717     41716     41719     41718     41716     41719
     41720     41726     41723     41721     41720     41722     41721     41720     41726
     41722     41720     41726     41723     41727     41728     41724     41723     41725
     41724     41723     41726     41724     41723     41727     41725     41723     41726
     41725     41723     41727     41726     41723     41727     41727     41728     41729
     41727     41728     41730     41727     41728     41731     41728     41731     41732
     41728     41731     41733     41728     41731     41739     41729     41728     41730
     41729     41728     41731     41730     41728     41731     41731     41733     41734
     41731     41739     41740     41731     41739     41741     41731     41739     41742
     41732     41731     41733     41732     41731     41739     41733     41731     41739
     41733     41734     41735     41733     41734     41736     41734     41736     41737
     41734     41736     41738     41734     41736     41748     41735     41734     41736
     41736     41748     41749     41736     41748     41750     41736     41748     41751
     41737     41736     41738     41737     41736     41748     41738     41736     41748
     41739     41742     41743     41740     41739     41741     41740     41739     41742
     41741     41739     41742     41742     41743     41744     41742     41743     41745
     41743     41745     41746     41743     41745     41747     41743     41745     41795
     41744     41743     41745     41745     41795     41796     41745     41795     41797
     41745     41795     41798     41746     41745     41747     41746     41745     41795
     41747     41745     41795     41748     41751     41752     41748     41751     41753
     41748     41751     41754     41749     41748     41750     41749     41748     41751
     41750     41748     41751     41751     41754     41755     41751     41754     41756
     41751     41754     41757     41752     41751     41753     41752     41751     41754
     41753     41751     41754     41754     41757     41758     41754     41757     41759
     41754     41757     41760     41755     41754     41756     41755     41754     41757
     41756     41754     41757     41757     41760     41761     41757     41760     41762
     41757     41760     41763     41758     41757     41759     41758     41757     41760
     41759     41757     41760     41760     41763     41764     41760     41763     41765
     41760     41763     41766     41761     41760     41762     41761     41760     41763
     41762     41760     41763     41763     41766     41767     41763     41766     41768
     41764     41763     41765     41764     41763     41766     41765     41763     41766
     41766     41768     41769     41766     41768     41770     41767     41766     41768
     41768     41770     41771     41768     41770     41772     41768     41770     41773
     41769     41768     41770     41770     41773     41774     41770     41773     41775
     41770     41773     41776     41771     41770     41772     41771     41770     41773
     41772     41770     41773     41773     41776     41777     41773     41776     41778
     41773     41776     41779     41774     41773     41775     41774     41773     41776
     41775     41773     41776     41776     41779     41780     41776     41779     41781
     41776     41779     41782     41777     41776     41778     41777     41776     41779
     41778     41776     41779     41779     41782     41783     41779     41782     41784
     41779     41782     41785     41780     41779     41781     41780     41779     41782
     41781     41779     41782     41782     41785     41786     41782     41785     41787
     41782     41785     41788     41783     41782     41784     41783     41782     41785
     41784     41782     41785     41785     41788     41789     41785     41788     41790
     41785     41788     41791     41786     41785     41787     41786     41785     41788
     41787     41785     41788     41788     41791     41792     41788     41791     41793
     41788     41791     41794     41789     41788     41790     41789     41788     41791
     41790     41788     41791     41792     41791     41793     41792     41791     41794
     41793     41791     41794     41795     41798     41799     41795     41798     41800
     41795     41798     41801     41796     41795     41797     41796     41795     41798
     41797     41795     41798     41798     41801     41802     41798     41801     41803
     41798     41801     41804     41799     41798     41800     41799     41798     41801
     41800     41798     41801     41801     41804     41805     41801     41804     41806
     41801     41804     41807     41802     41801     41803     41802     41801     41804
     41803     41801     41804     41804     41807     41808     41804     41807     41809
     41804     41807     41810     41805     41804     41806     41805     41804     41807
     41806     41804     41807     41807     41810     41811     41807     41810     41812
     41807     41810     41813     41808     41807     41809     41808     41807     41810
     41809     41807     41810     41810     41813     41814     41810     41813     41815
     41810     41813     41816     41811     41810     41812     41811     41810     41813
     41812     41810     41813     41813     41816     41817     41813     41816     41818
     41813     41816     41819     41814     41813     41815     41814     41813     41816
     41815     41813     41816     41816     41819     41820     41816     41819     41821
     41816     41819     41822     41817     41816     41818     41817     41816     41819
     41818     41816     41819     41819     41822     41823     41819     41822     41824
     41819     41822     41825     41820     41819     41821     41820     41819     41822
     41821     41819     41822     41822     41825     41826     41822     41825     41827
     41822     41825     41828     41823     41822     41824     41823     41822     41825
     41824     41822     41825     41825     41828     41829     41825     41828     41830
     41825     41828     41831     41826     41825     41827     41826     41825     41828
     41827     41825     41828     41828     41831     41832     41828     41831     41833
     41828     41831     41834     41829     41828     41830     41829     41828     41831
     41830     41828     41831     41831     41834     41835     41831     41834     41836
     41831     41834     41837     41832     41831     41833     41832     41831     41834
     41833     41831     41834     41835     41834     41836     41835     41834     41837
     41836     41834     41837     41838     41842     41843     41838     41842     41844
     41838     41842     41845     41839     41838     41840     41839     41838     41841
     41839     41838     41842     41840     41838     41841     41840     41838     41842
     41841     41838     41842     41842     41845     41846     41842     41845     41847
     41842     41845     41852     41843     41842     41844     41843     41842     41845
     41844     41842     41845     41845     41852     41848     41846     41845     41847
     41846     41845     41852     41847     41845     41852     41848     41851     41853
     41849     41848     41850     41849     41848     41851     41849     41848     41852
     41850     41848     41851     41850     41848     41852     41851     41848     41852
     41851     41853     41854     41851     41853     41855     41851     41853     41856
     41853     41856     41857     41853     41856     41858     41853     41856     41864
     41854     41853     41855     41854     41853     41856     41855     41853     41856
     41856     41858     41859     41856     41864     41865     41856     41864     41866
     41856     41864     41867     41857     41856     41858     41857     41856     41864
     41858     41856     41864     41858     41859     41860     41858     41859     41861
     41859     41861     41862     41859     41861     41863     41859     41861     41873
     41860     41859     41861     41861     41873     41874     41861     41873     41875
     41861     41873     41876     41862     41861     41863     41862     41861     41873
     41863     41861     41873     41864     41867     41868     41865     41864     41866
     41865     41864     41867     41866     41864     41867     41867     41868     41869
     41867     41868     41870     41868     41870     41871     41868     41870     41872
     41868     41870     41920     41869     41868     41870     41870     41920     41921
     41870     41920     41922     41870     41920     41923     41871     41870     41872
     41871     41870     41920     41872     41870     41920     41873     41876     41877
     41873     41876     41878     41873     41876     41879     41874     41873     41875
     41874     41873     41876     41875     41873     41876     41876     41879     41880
     41876     41879     41881     41876     41879     41882     41877     41876     41878
     41877     41876     41879     41878     41876     41879     41879     41882     41883
     41879     41882     41884     41879     41882     41885     41880     41879     41881
     41880     41879     41882     41881     41879     41882     41882     41885     41886
     41882     41885     41887     41882     41885     41888     41883     41882     41884
     41883     41882     41885     41884     41882     41885     41885     41888     41889
     41885     41888     41890     41885     41888     41891     41886     41885     41887
     41886     41885     41888     41887     41885     41888     41888     41891     41892
     41888     41891     41893     41889     41888     41890     41889     41888     41891
     41890     41888     41891     41891     41893     41894     41891     41893     41895
     41892     41891     41893     41893     41895     41896     41893     41895     41897
     41893     41895     41898     41894     41893     41895     41895     41898     41899
     41895     41898     41900     41895     41898     41901     41896     41895     41897
     41896     41895     41898     41897     41895     41898     41898     41901     41902
     41898     41901     41903     41898     41901     41904     41899     41898     41900
     41899     41898     41901     41900     41898     41901     41901     41904     41905
     41901     41904     41906     41901     41904     41907     41902     41901     41903
     41902     41901     41904     41903     41901     41904     41904     41907     41908
     41904     41907     41909     41904     41907     41910     41905     41904     41906
     41905     41904     41907     41906     41904     41907     41907     41910     41911
     41907     41910     41912     41907     41910     41913     41908     41907     41909
     41908     41907     41910     41909     41907     41910     41910     41913     41914
     41910     41913     41915     41910     41913     41916     41911     41910     41912
     41911     41910     41913     41912     41910     41913     41913     41916     41917
     41913     41916     41918     41913     41916     41919     41914     41913     41915
     41914     41913     41916     41915     41913     41916     41917     41916     41918
     41917     41916     41919     41918     41916     41919     41920     41923     41924
     41920     41923     41925     41920     41923     41926     41921     41920     41922
     41921     41920     41923     41922     41920     41923     41923     41926     41927
     41923     41926     41928     41923     41926     41929     41924     41923     41925
     41924     41923     41926     41925     41923     41926     41926     41929     41930
     41926     41929     41931     41926     41929     41932     41927     41926     41928
     41927     41926     41929     41928     41926     41929     41929     41932     41933
     41929     41932     41934     41929     41932     41935     41930     41929     41931
     41930     41929     41932     41931     41929     41932     41932     41935     41936
     41932     41935     41937     41932     41935     41938     41933     41932     41934
     41933     41932     41935     41934     41932     41935     41935     41938     41939
     41935     41938     41940     41935     41938     41941     41936     41935     41937
     41936     41935     41938     41937     41935     41938     41938     41941     41942
     41938     41941     41943     41938     41941     41944     41939     41938     41940
     41939     41938     41941     41940     41938     41941     41941     41944     41945
     41941     41944     41946     41941     41944     41947     41942     41941     41943
     41942     41941     41944     41943     41941     41944     41944     41947     41948
     41944     41947     41949     41944     41947     41950     41945     41944     41946
     41945     41944     41947     41946     41944     41947     41947     41950     41951
     41947     41950     41952     41947     41950     41953     41948     41947     41949
     41948     41947     41950     41949     41947     41950     41950     41953     41954
     41950     41953     41955     41950     41953     41956     41951     41950     41952
     41951     41950     41953     41952     41950     41953     41953     41956     41957
     41953     41956     41958     41953     41956     41959     41954     41953     41955
     41954     41953     41956     41955     41953     41956     41956     41959     41960
     41956     41959     41961     41956     41959     41962     41957     41956     41958
     41957     41956     41959     41958     41956     41959     41960     41959     41961
     41960     41959     41962     41961     41959     41962     41963     41964     41965
     41963     41964     41966     41963     41964     41979     41963     41967     41968
     41963     41967     41969     41963     41967     41970     41963     41971     41972
     41963     41971     41973     41963     41971     41974     41963     41975     41976
     41963     41975     41977     41963     41975     41978     41964     41963     41967
     41964     41963     41971     41964     41963     41975     41964     41979     41980
     41964     41979     41981     41964     41979     41985     41965     41964     41966
     41965     41964     41979     41966     41964     41979     41967     41963     41971
     41967     41963     41975     41968     41967     41969     41968     41967     41970
     41969     41967     41970     41971     41963     41975     41972     41971     41973
     41972     41971     41974     41973     41971     41974     41976     41975     41977
     41976     41975     41978     41977     41975     41978     41979     41985     41982
     41980     41979     41981     41980     41979     41985     41981     41979     41985
     41982     41986     41987     41983     41982     41984     41983     41982     41985
     41983     41982     41986     41984     41982     41985     41984     41982     41986
     41985     41982     41986     41986     41987     41988     41986     41987     41989
     41986     41987     41990     41987     41990     41991     41987     41990     41992
     41987     41990     41998     41988     41987     41989     41988     41987     41990
     41989     41987     41990     41990     41992     41993     41990     41998     41999
     41990     41998     42000     41990     41998     42001     41991     41990     41992
     41991     41990     41998     41992     41990     41998     41992     41993     41994
     41992     41993     41995     41993     41995     41996     41993     41995     41997
     41993     41995     42007     41994     41993     41995     41995     42007     42008
     41995     42007     42009     41995     42007     42010     41996     41995     41997
     41996     41995     42007     41997     41995     42007     41998     42001     42002
     41999     41998     42000     41999     41998     42001     42000     41998     42001
     42001     42002     42003     42001     42002     42004     42002     42004     42005
     42002     42004     42006     42002     42004     42054     42003     42002     42004
     42004     42054     42055     42004     42054     42056     42004     42054     42057
     42005     42004     42006     42005     42004     42054     42006     42004     42054
     42007     42010     42011     42007     42010     42012     42007     42010     42013
     42008     42007     42009     42008     42007     42010     42009     42007     42010
     42010     42013     42014     42010     42013     42015     42010     42013     42016
     42011     42010     42012     42011     42010     42013     42012     42010     42013
     42013     42016     42017     42013     42016     42018     42013     42016     42019
     42014     42013     42015     42014     42013     42016     42015     42013     42016
     42016     42019     42020     42016     42019     42021     42016     42019     42022
     42017     42016     42018     42017     42016     42019     42018     42016     42019
     42019     42022     42023     42019     42022     42024     42019     42022     42025
     42020     42019     42021     42020     42019     42022     42021     42019     42022
     42022     42025     42026     42022     42025     42027     42023     42022     42024
     42023     42022     42025     42024     42022     42025     42025     42027     42028
     42025     42027     42029     42026     42025     42027     42027     42029     42030
     42027     42029     42031     42027     42029     42032     42028     42027     42029
     42029     42032     42033     42029     42032     42034     42029     42032     42035
     42030     42029     42031     42030     42029     42032     42031     42029     42032
     42032     42035     42036     42032     42035     42037     42032     42035     42038
     42033     42032     42034     42033     42032     42035     42034     42032     42035
     42035     42038     42039     42035     42038     42040     42035     42038     42041
     42036     42035     42037     42036     42035     42038     42037     42035     42038
     42038     42041     42042     42038     42041     42043     42038     42041     42044
     42039     42038     42040     42039     42038     42041     42040     42038     42041
     42041     42044     42045     42041     42044     42046     42041     42044     42047
     42042     42041     42043     42042     42041     42044     42043     42041     42044
     42044     42047     42048     42044     42047     42049     42044     42047     42050
     42045     42044     42046     42045     42044     42047     42046     42044     42047
     42047     42050     42051     42047     42050     42052     42047     42050     42053
     42048     42047     42049     42048     42047     42050     42049     42047     42050
     42051     42050     42052     42051     42050     42053     42052     42050     42053
     42054     42057     42058     42054     42057     42059     42054     42057     42060
     42055     42054     42056     42055     42054     42057     42056     42054     42057
     42057     42060     42061     42057     42060     42062     42057     42060     42063
     42058     42057     42059     42058     42057     42060     42059     42057     42060
     42060     42063     42064     42060     42063     42065     42060     42063     42066
     42061     42060     42062     42061     42060     42063     42062     42060     42063
     42063     42066     42067     42063     42066     42068     42063     42066     42069
     42064     42063     42065     42064     42063     42066     42065     42063     42066
     42066     42069     42070     42066     42069     42071     42066     42069     42072
     42067     42066     42068     42067     42066     42069     42068     42066     42069
     42069     42072     42073     42069     42072     42074     42069     42072     42075
     42070     42069     42071     42070     42069     42072     42071     42069     42072
     42072     42075     42076     42072     42075     42077     42072     42075     42078
     42073     42072     42074     42073     42072     42075     42074     42072     42075
     42075     42078     42079     42075     42078     42080     42075     42078     42081
     42076     42075     42077     42076     42075     42078     42077     42075     42078
     42078     42081     42082     42078     42081     42083     42078     42081     42084
     42079     42078     42080     42079     42078     42081     42080     42078     42081
     42081     42084     42085     42081     42084     42086     42081     42084     42087
     42082     42081     42083     42082     42081     42084     42083     42081     42084
     42084     42087     42088     42084     42087     42089     42084     42087     42090
     42085     42084     42086     42085     42084     42087     42086     42084     42087
     42087     42090     42091     42087     42090     42092     42087     42090     42093
     42088     42087     42089     42088     42087     42090     42089     42087     42090
     42090     42093     42094     42090     42093     42095     42090     42093     42096
     42091     42090     42092     42091     42090     42093     42092     42090     42093
     42094     42093     42095     42094     42093     42096     42095     42093     42096
     42097     42101     42102     42097     42101     42103     42097     42101     42104
     42098     42097     42099     42098     42097     42100     42098     42097     42101
     42099     42097     42100     42099     42097     42101     42100     42097     42101
     42101     42104     42105     42101     42104     42106     42101     42104     42111
     42102     42101     42103     42102     42101     42104     42103     42101     42104
     42104     42111     42107     42105     42104     42106     42105     42104     42111
     42106     42104     42111     42107     42110     42112     42108     42107     42109
     42108     42107     42110     42108     42107     42111     42109     42107     42110
     42109     42107     42111     42110     42107     42111     42110     42112     42113
     42110     42112     42114     42110     42112     42115     42112     42115     42116
     42112     42115     42117     42112     42115     42123     42113     42112     42114
     42113     42112     42115     42114     42112     42115     42115     42117     42118
     42115     42123     42124     42115     42123     42125     42115     42123     42126
     42116     42115     42117     42116     42115     42123     42117     42115     42123
     42117     42118     42119     42117     42118     42120     42118     42120     42121
     42118     42120     42122     42118     42120     42132     42119     42118     42120
     42120     42132     42133     42120     42132     42134     42120     42132     42135
     42121     42120     42122     42121     42120     42132     42122     42120     42132
     42123     42126     42127     42124     42123     42125     42124     42123     42126
     42125     42123     42126     42126     42127     42128     42126     42127     42129
     42127     42129     42130     42127     42129     42131     42127     42129     42179
     42128     42127     42129     42129     42179     42180     42129     42179     42181
     42129     42179     42182     42130     42129     42131     42130     42129     42179
     42131     42129     42179     42132     42135     42136     42132     42135     42137
     42132     42135     42138     42133     42132     42134     42133     42132     42135
     42134     42132     42135     42135     42138     42139     42135     42138     42140
     42135     42138     42141     42136     42135     42137     42136     42135     42138
     42137     42135     42138     42138     42141     42142     42138     42141     42143
     42138     42141     42144     42139     42138     42140     42139     42138     42141
     42140     42138     42141     42141     42144     42145     42141     42144     42146
     42141     42144     42147     42142     42141     42143     42142     42141     42144
     42143     42141     42144     42144     42147     42148     42144     42147     42149
     42144     42147     42150     42145     42144     42146     42145     42144     42147
     42146     42144     42147     42147     42150     42151     42147     42150     42152
     42148     42147     42149     42148     42147     42150     42149     42147     42150
     42150     42152     42153     42150     42152     42154     42151     42150     42152
     42152     42154     42155     42152     42154     42156     42152     42154     42157
     42153     42152     42154     42154     42157     42158     42154     42157     42159
     42154     42157     42160     42155     42154     42156     42155     42154     42157
     42156     42154     42157     42157     42160     42161     42157     42160     42162
     42157     42160     42163     42158     42157     42159     42158     42157     42160
     42159     42157     42160     42160     42163     42164     42160     42163     42165
     42160     42163     42166     42161     42160     42162     42161     42160     42163
     42162     42160     42163     42163     42166     42167     42163     42166     42168
     42163     42166     42169     42164     42163     42165     42164     42163     42166
     42165     42163     42166     42166     42169     42170     42166     42169     42171
     42166     42169     42172     42167     42166     42168     42167     42166     42169
     42168     42166     42169     42169     42172     42173     42169     42172     42174
     42169     42172     42175     42170     42169     42171     42170     42169     42172
     42171     42169     42172     42172     42175     42176     42172     42175     42177
     42172     42175     42178     42173     42172     42174     42173     42172     42175
     42174     42172     42175     42176     42175     42177     42176     42175     42178
     42177     42175     42178     42179     42182     42183     42179     42182     42184
     42179     42182     42185     42180     42179     42181     42180     42179     42182
     42181     42179     42182     42182     42185     42186     42182     42185     42187
     42182     42185     42188     42183     42182     42184     42183     42182     42185
     42184     42182     42185     42185     42188     42189     42185     42188     42190
     42185     42188     42191     42186     42185     42187     42186     42185     42188
     42187     42185     42188     42188     42191     42192     42188     42191     42193
     42188     42191     42194     42189     42188     42190     42189     42188     42191
     42190     42188     42191     42191     42194     42195     42191     42194     42196
     42191     42194     42197     42192     42191     42193     42192     42191     42194
     42193     42191     42194     42194     42197     42198     42194     42197     42199
     42194     42197     42200     42195     42194     42196     42195     42194     42197
     42196     42194     42197     42197     42200     42201     42197     42200     42202
     42197     42200     42203     42198     42197     42199     42198     42197     42200
     42199     42197     42200     42200     42203     42204     42200     42203     42205
     42200     42203     42206     42201     42200     42202     42201     42200     42203
     42202     42200     42203     42203     42206     42207     42203     42206     42208
     42203     42206     42209     42204     42203     42205     42204     42203     42206
     42205     42203     42206     42206     42209     42210     42206     42209     42211
     42206     42209     42212     42207     42206     42208     42207     42206     42209
     42208     42206     42209     42209     42212     42213     42209     42212     42214
     42209     42212     42215     42210     42209     42211     42210     42209     42212
     42211     42209     42212     42212     42215     42216     42212     42215     42217
     42212     42215     42218     42213     42212     42214     42213     42212     42215
     42214     42212     42215     42215     42218     42219     42215     42218     42220
     42215     42218     42221     42216     42215     42217     42216     42215     42218
     42217     42215     42218     42219     42218     42220     42219     42218     42221
     42220     42218     42221     42222     42226     42227     42222     42226     42228
     42222     42226     42229     42223     42222     42224     42223     42222     42225
     42223     42222     42226     42224     42222     42225     42224     42222     42226
     42225     42222     42226     42226     42229     42230     42226     42229     42231
     42226     42229     42236     42227     42226     42228     42227     42226     42229
     42228     42226     42229     42229     42236     42232     42230     42229     42231
     42230     42229     42236     42231     42229     42236     42232     42235     42237
     42233     42232     42234     42233     42232     42235     42233     42232     42236
     42234     42232     42235     42234     42232     42236     42235     42232     42236
     42235     42237     42238     42235     42237     42239     42235     42237     42240
     42237     42240     42241     42237     42240     42242     42237     42240     42248
     42238     42237     42239     42238     42237     42240     42239     42237     42240
     42240     42242     42243     42240     42248     42249     42240     42248     42250
     42240     42248     42251     42241     42240     42242     42241     42240     42248
     42242     42240     42248     42242     42243     42244     42242     42243     42245
     42243     42245     42246     42243     42245     42247     42243     42245     42257
     42244     42243     42245     42245     42257     42258     42245     42257     42259
     42245     42257     42260     42246     42245     42247     42246     42245     42257
     42247     42245     42257     42248     42251     42252     42249     42248     42250
     42249     42248     42251     42250     42248     42251     42251     42252     42253
     42251     42252     42254     42252     42254     42255     42252     42254     42256
     42252     42254     42304     42253     42252     42254     42254     42304     42305
     42254     42304     42306     42254     42304     42307     42255     42254     42256
     42255     42254     42304     42256     42254     42304     42257     42260     42261
     42257     42260     42262     42257     42260     42263     42258     42257     42259
     42258     42257     42260     42259     42257     42260     42260     42263     42264
     42260     42263     42265     42260     42263     42266     42261     42260     42262
     42261     42260     42263     42262     42260     42263     42263     42266     42267
     42263     42266     42268     42263     42266     42269     42264     42263     42265
     42264     42263     42266     42265     42263     42266     42266     42269     42270
     42266     42269     42271     42266     42269     42272     42267     42266     42268
     42267     42266     42269     42268     42266     42269     42269     42272     42273
     42269     42272     42274     42269     42272     42275     42270     42269     42271
     42270     42269     42272     42271     42269     42272     42272     42275     42276
     42272     42275     42277     42273     42272     42274     42273     42272     42275
     42274     42272     42275     42275     42277     42278     42275     42277     42279
     42276     42275     42277     42277     42279     42280     42277     42279     42281
     42277     42279     42282     42278     42277     42279     42279     42282     42283
     42279     42282     42284     42279     42282     42285     42280     42279     42281
     42280     42279     42282     42281     42279     42282     42282     42285     42286
     42282     42285     42287     42282     42285     42288     42283     42282     42284
     42283     42282     42285     42284     42282     42285     42285     42288     42289
     42285     42288     42290     42285     42288     42291     42286     42285     42287
     42286     42285     42288     42287     42285     42288     42288     42291     42292
     42288     42291     42293     42288     42291     42294     42289     42288     42290
     42289     42288     42291     42290     42288     42291     42291     42294     42295
     42291     42294     42296     42291     42294     42297     42292     42291     42293
     42292     42291     42294     42293     42291     42294     42294     42297     42298
     42294     42297     42299     42294     42297     42300     42295     42294     42296
     42295     42294     42297     42296     42294     42297     42297     42300     42301
     42297     42300     42302     42297     42300     42303     42298     42297     42299
     42298     42297     42300     42299     42297     42300     42301     42300     42302
     42301     42300     42303     42302     42300     42303     42304     42307     42308
     42304     42307     42309     42304     42307     42310     42305     42304     42306
     42305     42304     42307     42306     42304     42307     42307     42310     42311
     42307     42310     42312     42307     42310     42313     42308     42307     42309
     42308     42307     42310     42309     42307     42310     42310     42313     42314
     42310     42313     42315     42310     42313     42316     42311     42310     42312
     42311     42310     42313     42312     42310     42313     42313     42316     42317
     42313     42316     42318     42313     42316     42319     42314     42313     42315
     42314     42313     42316     42315     42313     42316     42316     42319     42320
     42316     42319     42321     42316     42319     42322     42317     42316     42318
     42317     42316     42319     42318     42316     42319     42319     42322     42323
     42319     42322     42324     42319     42322     42325     42320     42319     42321
     42320     42319     42322     42321     42319     42322     42322     42325     42326
     42322     42325     42327     42322     42325     42328     42323     42322     42324
     42323     42322     42325     42324     42322     42325     42325     42328     42329
     42325     42328     42330     42325     42328     42331     42326     42325     42327
     42326     42325     42328     42327     42325     42328     42328     42331     42332
     42328     42331     42333     42328     42331     42334     42329     42328     42330
     42329     42328     42331     42330     42328     42331     42331     42334     42335
     42331     42334     42336     42331     42334     42337     42332     42331     42333
     42332     42331     42334     42333     42331     42334     42334     42337     42338
     42334     42337     42339     42334     42337     42340     42335     42334     42336
     42335     42334     42337     42336     42334     42337     42337     42340     42341
     42337     42340     42342     42337     42340     42343     42338     42337     42339
     42338     42337     42340     42339     42337     42340     42340     42343     42344
     42340     42343     42345     42340     42343     42346     42341     42340     42342
     42341     42340     42343     42342     42340     42343     42344     42343     42345
     42344     42343     42346     42345     42343     42346     42347     42351     42352
     42347     42351     42353     42347     42351     42354     42348     42347     42349
     42348     42347     42350     42348     42347     42351     42349     42347     42350
     42349     42347     42351     42350     42347     42351     42351     42354     42355
     42351     42354     42356     42351     42354     42361     42352     42351     42353
     42352     42351     42354     42353     42351     42354     42354     42361     42357
     42355     42354     42356     42355     42354     42361     42356     42354     42361
     42357     42360     42362     42358     42357     42359     42358     42357     42360
     42358     42357     42361     42359     42357     42360     42359     42357     42361
     42360     42357     42361     42360     42362     42363     42360     42362     42364
     42360     42362     42365     42362     42365     42366     42362     42365     42367
     42362     42365     42373     42363     42362     42364     42363     42362     42365
     42364     42362     42365     42365     42367     42368     42365     42373     42374
     42365     42373     42375     42365     42373     42376     42366     42365     42367
     42366     42365     42373     42367     42365     42373     42367     42368     42369
     42367     42368     42370     42368     42370     42371     42368     42370     42372
     42368     42370     42382     42369     42368     42370     42370     42382     42383
     42370     42382     42384     42370     42382     42385     42371     42370     42372
     42371     42370     42382     42372     42370     42382     42373     42376     42377
     42374     42373     42375     42374     42373     42376     42375     42373     42376
     42376     42377     42378     42376     42377     42379     42377     42379     42380
     42377     42379     42381     42377     42379     42429     42378     42377     42379
     42379     42429     42430     42379     42429     42431     42379     42429     42432
     42380     42379     42381     42380     42379     42429     42381     42379     42429
     42382     42385     42386     42382     42385     42387     42382     42385     42388
     42383     42382     42384     42383     42382     42385     42384     42382     42385
     42385     42388     42389     42385     42388     42390     42385     42388     42391
     42386     42385     42387     42386     42385     42388     42387     42385     42388
     42388     42391     42392     42388     42391     42393     42388     42391     42394
     42389     42388     42390     42389     42388     42391     42390     42388     42391
     42391     42394     42395     42391     42394     42396     42391     42394     42397
     42392     42391     42393     42392     42391     42394     42393     42391     42394
     42394     42397     42398     42394     42397     42399     42394     42397     42400
     42395     42394     42396     42395     42394     42397     42396     42394     42397
     42397     42400     42401     42397     42400     42402     42398     42397     42399
     42398     42397     42400     42399     42397     42400     42400     42402     42403
     42400     42402     42404     42401     42400     42402     42402     42404     42405
     42402     42404     42406     42402     42404     42407     42403     42402     42404
     42404     42407     42408     42404     42407     42409     42404     42407     42410
     42405     42404     42406     42405     42404     42407     42406     42404     42407
     42407     42410     42411     42407     42410     42412     42407     42410     42413
     42408     42407     42409     42408     42407     42410     42409     42407     42410
     42410     42413     42414     42410     42413     42415     42410     42413     42416
     42411     42410     42412     42411     42410     42413     42412     42410     42413
     42413     42416     42417     42413     42416     42418     42413     42416     42419
     42414     42413     42415     42414     42413     42416     42415     42413     42416
     42416     42419     42420     42416     42419     42421     42416     42419     42422
     42417     42416     42418     42417     42416     42419     42418     42416     42419
     42419     42422     42423     42419     42422     42424     42419     42422     42425
     42420     42419     42421     42420     42419     42422     42421     42419     42422
     42422     42425     42426     42422     42425     42427     42422     42425     42428
     42423     42422     42424     42423     42422     42425     42424     42422     42425
     42426     42425     42427     42426     42425     42428     42427     42425     42428
     42429     42432     42433     42429     42432     42434     42429     42432     42435
     42430     42429     42431     42430     42429     42432     42431     42429     42432
     42432     42435     42436     42432     42435     42437     42432     42435     42438
     42433     42432     42434     42433     42432     42435     42434     42432     42435
     42435     42438     42439     42435     42438     42440     42435     42438     42441
     42436     42435     42437     42436     42435     42438     42437     42435     42438
     42438     42441     42442     42438     42441     42443     42438     42441     42444
     42439     42438     42440     42439     42438     42441     42440     42438     42441
     42441     42444     42445     42441     42444     42446     42441     42444     42447
     42442     42441     42443     42442     42441     42444     42443     42441     42444
     42444     42447     42448     42444     42447     42449     42444     42447     42450
     42445     42444     42446     42445     42444     42447     42446     42444     42447
     42447     42450     42451     42447     42450     42452     42447     42450     42453
     42448     42447     42449     42448     42447     42450     42449     42447     42450
     42450     42453     42454     42450     42453     42455     42450     42453     42456
     42451     42450     42452     42451     42450     42453     42452     42450     42453
     42453     42456     42457     42453     42456     42458     42453     42456     42459
     42454     42453     42455     42454     42453     42456     42455     42453     42456
     42456     42459     42460     42456     42459     42461     42456     42459     42462
     42457     42456     42458     42457     42456     42459     42458     42456     42459
     42459     42462     42463     42459     42462     42464     42459     42462     42465
     42460     42459     42461     42460     42459     42462     42461     42459     42462
     42462     42465     42466     42462     42465     42467     42462     42465     42468
     42463     42462     42464     42463     42462     42465     42464     42462     42465
     42465     42468     42469     42465     42468     42470     42465     42468     42471
     42466     42465     42467     42466     42465     42468     42467     42465     42468
     42469     42468     42470     42469     42468     42471     42470     42468     42471
     42472     42476     42477     42472     42476     42478     42472     42476     42479
     42473     42472     42474     42473     42472     42475     42473     42472     42476
     42474     42472     42475     42474     42472     42476     42475     42472     42476
     42476     42479     42480     42476     42479     42481     42476     42479     42486
     42477     42476     42478     42477     42476     42479     42478     42476     42479
     42479     42486     42482     42480     42479     42481     42480     42479     42486
     42481     42479     42486     42482     42485     42487     42483     42482     42484
     42483     42482     42485     42483     42482     42486     42484     42482     42485
     42484     42482     42486     42485     42482     42486     42485     42487     42488
     42485     42487     42489     42485     42487     42490     42487     42490     42491
     42487     42490     42492     42487     42490     42498     42488     42487     42489
     42488     42487     42490     42489     42487     42490     42490     42492     42493
     42490     42498     42499     42490     42498     42500     42490     42498     42501
     42491     42490     42492     42491     42490     42498     42492     42490     42498
     42492     42493     42494     42492     42493     42495     42493     42495     42496
     42493     42495     42497     42493     42495     42507     42494     42493     42495
     42495     42507     42508     42495     42507     42509     42495     42507     42510
     42496     42495     42497     42496     42495     42507     42497     42495     42507
     42498     42501     42502     42499     42498     42500     42499     42498     42501
     42500     42498     42501     42501     42502     42503     42501     42502     42504
     42502     42504     42505     42502     42504     42506     42502     42504     42554
     42503     42502     42504     42504     42554     42555     42504     42554     42556
     42504     42554     42557     42505     42504     42506     42505     42504     42554
     42506     42504     42554     42507     42510     42511     42507     42510     42512
     42507     42510     42513     42508     42507     42509     42508     42507     42510
     42509     42507     42510     42510     42513     42514     42510     42513     42515
     42510     42513     42516     42511     42510     42512     42511     42510     42513
     42512     42510     42513     42513     42516     42517     42513     42516     42518
     42513     42516     42519     42514     42513     42515     42514     42513     42516
     42515     42513     42516     42516     42519     42520     42516     42519     42521
     42516     42519     42522     42517     42516     42518     42517     42516     42519
     42518     42516     42519     42519     42522     42523     42519     42522     42524
     42519     42522     42525     42520     42519     42521     42520     42519     42522
     42521     42519     42522     42522     42525     42526     42522     42525     42527
     42523     42522     42524     42523     42522     42525     42524     42522     42525
     42525     42527     42528     42525     42527     42529     42526     42525     42527
     42527     42529     42530     42527     42529     42531     42527     42529     42532
     42528     42527     42529     42529     42532     42533     42529     42532     42534
     42529     42532     42535     42530     42529     42531     42530     42529     42532
     42531     42529     42532     42532     42535     42536     42532     42535     42537
     42532     42535     42538     42533     42532     42534     42533     42532     42535
     42534     42532     42535     42535     42538     42539     42535     42538     42540
     42535     42538     42541     42536     42535     42537     42536     42535     42538
     42537     42535     42538     42538     42541     42542     42538     42541     42543
     42538     42541     42544     42539     42538     42540     42539     42538     42541
     42540     42538     42541     42541     42544     42545     42541     42544     42546
     42541     42544     42547     42542     42541     42543     42542     42541     42544
     42543     42541     42544     42544     42547     42548     42544     42547     42549
     42544     42547     42550     42545     42544     42546     42545     42544     42547
     42546     42544     42547     42547     42550     42551     42547     42550     42552
     42547     42550     42553     42548     42547     42549     42548     42547     42550
     42549     42547     42550     42551     42550     42552     42551     42550     42553
     42552     42550     42553     42554     42557     42558     42554     42557     42559
     42554     42557     42560     42555     42554     42556     42555     42554     42557
     42556     42554     42557     42557     42560     42561     42557     42560     42562
     42557     42560     42563     42558     42557     42559     42558     42557     42560
     42559     42557     42560     42560     42563     42564     42560     42563     42565
     42560     42563     42566     42561     42560     42562     42561     42560     42563
     42562     42560     42563     42563     42566     42567     42563     42566     42568
     42563     42566     42569     42564     42563     42565     42564     42563     42566
     42565     42563     42566     42566     42569     42570     42566     42569     42571
     42566     42569     42572     42567     42566     42568     42567     42566     42569
     42568     42566     42569     42569     42572     42573     42569     42572     42574
     42569     42572     42575     42570     42569     42571     42570     42569     42572
     42571     42569     42572     42572     42575     42576     42572     42575     42577
     42572     42575     42578     42573     42572     42574     42573     42572     42575
     42574     42572     42575     42575     42578     42579     42575     42578     42580
     42575     42578     42581     42576     42575     42577     42576     42575     42578
     42577     42575     42578     42578     42581     42582     42578     42581     42583
     42578     42581     42584     42579     42578     42580     42579     42578     42581
     42580     42578     42581     42581     42584     42585     42581     42584     42586
     42581     42584     42587     42582     42581     42583     42582     42581     42584
     42583     42581     42584     42584     42587     42588     42584     42587     42589
     42584     42587     42590     42585     42584     42586     42585     42584     42587
     42586     42584     42587     42587     42590     42591     42587     42590     42592
     42587     42590     42593     42588     42587     42589     42588     42587     42590
     42589     42587     42590     42590     42593     42594     42590     42593     42595
     42590     42593     42596     42591     42590     42592     42591     42590     42593
     42592     42590     42593     42594     42593     42595     42594     42593     42596
     42595     42593     42596     42597     42601     42602     42597     42601     42603
     42597     42601     42604     42598     42597     42599     42598     42597     42600
     42598     42597     42601     42599     42597     42600     42599     42597     42601
     42600     42597     42601     42601     42604     42605     42601     42604     42606
     42601     42604     42611     42602     42601     42603     42602     42601     42604
     42603     42601     42604     42604     42611     42607     42605     42604     42606
     42605     42604     42611     42606     42604     42611     42607     42610     42612
     42608     42607     42609     42608     42607     42610     42608     42607     42611
     42609     42607     42610     42609     42607     42611     42610     42607     42611
     42610     42612     42613     42610     42612     42614     42610     42612     42615
     42612     42615     42616     42612     42615     42617     42612     42615     42623
     42613     42612     42614     42613     42612     42615     42614     42612     42615
     42615     42617     42618     42615     42623     42624     42615     42623     42625
     42615     42623     42626     42616     42615     42617     42616     42615     42623
     42617     42615     42623     42617     42618     42619     42617     42618     42620
     42618     42620     42621     42618     42620     42622     42618     42620     42632
     42619     42618     42620     42620     42632     42633     42620     42632     42634
     42620     42632     42635     42621     42620     42622     42621     42620     42632
     42622     42620     42632     42623     42626     42627     42624     42623     42625
     42624     42623     42626     42625     42623     42626     42626     42627     42628
     42626     42627     42629     42627     42629     42630     42627     42629     42631
     42627     42629     42679     42628     42627     42629     42629     42679     42680
     42629     42679     42681     42629     42679     42682     42630     42629     42631
     42630     42629     42679     42631     42629     42679     42632     42635     42636
     42632     42635     42637     42632     42635     42638     42633     42632     42634
     42633     42632     42635     42634     42632     42635     42635     42638     42639
     42635     42638     42640     42635     42638     42641     42636     42635     42637
     42636     42635     42638     42637     42635     42638     42638     42641     42642
     42638     42641     42643     42638     42641     42644     42639     42638     42640
     42639     42638     42641     42640     42638     42641     42641     42644     42645
     42641     42644     42646     42641     42644     42647     42642     42641     42643
     42642     42641     42644     42643     42641     42644     42644     42647     42648
     42644     42647     42649     42644     42647     42650     42645     42644     42646
     42645     42644     42647     42646     42644     42647     42647     42650     42651
     42647     42650     42652     42648     42647     42649     42648     42647     42650
     42649     42647     42650     42650     42652     42653     42650     42652     42654
     42651     42650     42652     42652     42654     42655     42652     42654     42656
     42652     42654     42657     42653     42652     42654     42654     42657     42658
     42654     42657     42659     42654     42657     42660     42655     42654     42656
     42655     42654     42657     42656     42654     42657     42657     42660     42661
     42657     42660     42662     42657     42660     42663     42658     42657     42659
     42658     42657     42660     42659     42657     42660     42660     42663     42664
     42660     42663     42665     42660     42663     42666     42661     42660     42662
     42661     42660     42663     42662     42660     42663     42663     42666     42667
     42663     42666     42668     42663     42666     42669     42664     42663     42665
     42664     42663     42666     42665     42663     42666     42666     42669     42670
     42666     42669     42671     42666     42669     42672     42667     42666     42668
     42667     42666     42669     42668     42666     42669     42669     42672     42673
     42669     42672     42674     42669     42672     42675     42670     42669     42671
     42670     42669     42672     42671     42669     42672     42672     42675     42676
     42672     42675     42677     42672     42675     42678     42673     42672     42674
     42673     42672     42675     42674     42672     42675     42676     42675     42677
     42676     42675     42678     42677     42675     42678     42679     42682     42683
     42679     42682     42684     42679     42682     42685     42680     42679     42681
     42680     42679     42682     42681     42679     42682     42682     42685     42686
     42682     42685     42687     42682     42685     42688     42683     42682     42684
     42683     42682     42685     42684     42682     42685     42685     42688     42689
     42685     42688     42690     42685     42688     42691     42686     42685     42687
     42686     42685     42688     42687     42685     42688     42688     42691     42692
     42688     42691     42693     42688     42691     42694     42689     42688     42690
     42689     42688     42691     42690     42688     42691     42691     42694     42695
     42691     42694     42696     42691     42694     42697     42692     42691     42693
     42692     42691     42694     42693     42691     42694     42694     42697     42698
     42694     42697     42699     42694     42697     42700     42695     42694     42696
     42695     42694     42697     42696     42694     42697     42697     42700     42701
     42697     42700     42702     42697     42700     42703     42698     42697     42699
     42698     42697     42700     42699     42697     42700     42700     42703     42704
     42700     42703     42705     42700     42703     42706     42701     42700     42702
     42701     42700     42703     42702     42700     42703     42703     42706     42707
     42703     42706     42708     42703     42706     42709     42704     42703     42705
     42704     42703     42706     42705     42703     42706     42706     42709     42710
     42706     42709     42711     42706     42709     42712     42707     42706     42708
     42707     42706     42709     42708     42706     42709     42709     42712     42713
     42709     42712     42714     42709     42712     42715     42710     42709     42711
     42710     42709     42712     42711     42709     42712     42712     42715     42716
     42712     42715     42717     42712     42715     42718     42713     42712     42714
     42713     42712     42715     42714     42712     42715     42715     42718     42719
     42715     42718     42720     42715     42718     42721     42716     42715     42717
     42716     42715     42718     42717     42715     42718     42719     42718     42720
     42719     42718     42721     42720     42718     42721     42722     42726     42727
     42722     42726     42728     42722     42726     42729     42723     42722     42724
     42723     42722     42725     42723     42722     42726     42724     42722     42725
     42724     42722     42726     42725     42722     42726     42726     42729     42730
     42726     42729     42731     42726     42729     42736     42727     42726     42728
     42727     42726     42729     42728     42726     42729     42729     42736     42732
     42730     42729     42731     42730     42729     42736     42731     42729     42736
     42732     42735     42737     42733     42732     42734     42733     42732     42735
     42733     42732     42736     42734     42732     42735     42734     42732     42736
     42735     42732     42736     42735     42737     42738     42735     42737     42739
     42735     42737     42740     42737     42740     42741     42737     42740     42742
     42737     42740     42748     42738     42737     42739     42738     42737     42740
     42739     42737     42740     42740     42742     42743     42740     42748     42749
     42740     42748     42750     42740     42748     42751     42741     42740     42742
     42741     42740     42748     42742     42740     42748     42742     42743     42744
     42742     42743     42745     42743     42745     42746     42743     42745     42747
     42743     42745     42757     42744     42743     42745     42745     42757     42758
     42745     42757     42759     42745     42757     42760     42746     42745     42747
     42746     42745     42757     42747     42745     42757     42748     42751     42752
     42749     42748     42750     42749     42748     42751     42750     42748     42751
     42751     42752     42753     42751     42752     42754     42752     42754     42755
     42752     42754     42756     42752     42754     42804     42753     42752     42754
     42754     42804     42805     42754     42804     42806     42754     42804     42807
     42755     42754     42756     42755     42754     42804     42756     42754     42804
     42757     42760     42761     42757     42760     42762     42757     42760     42763
     42758     42757     42759     42758     42757     42760     42759     42757     42760
     42760     42763     42764     42760     42763     42765     42760     42763     42766
     42761     42760     42762     42761     42760     42763     42762     42760     42763
     42763     42766     42767     42763     42766     42768     42763     42766     42769
     42764     42763     42765     42764     42763     42766     42765     42763     42766
     42766     42769     42770     42766     42769     42771     42766     42769     42772
     42767     42766     42768     42767     42766     42769     42768     42766     42769
     42769     42772     42773     42769     42772     42774     42769     42772     42775
     42770     42769     42771     42770     42769     42772     42771     42769     42772
     42772     42775     42776     42772     42775     42777     42773     42772     42774
     42773     42772     42775     42774     42772     42775     42775     42777     42778
     42775     42777     42779     42776     42775     42777     42777     42779     42780
     42777     42779     42781     42777     42779     42782     42778     42777     42779
     42779     42782     42783     42779     42782     42784     42779     42782     42785
     42780     42779     42781     42780     42779     42782     42781     42779     42782
     42782     42785     42786     42782     42785     42787     42782     42785     42788
     42783     42782     42784     42783     42782     42785     42784     42782     42785
     42785     42788     42789     42785     42788     42790     42785     42788     42791
     42786     42785     42787     42786     42785     42788     42787     42785     42788
     42788     42791     42792     42788     42791     42793     42788     42791     42794
     42789     42788     42790     42789     42788     42791     42790     42788     42791
     42791     42794     42795     42791     42794     42796     42791     42794     42797
     42792     42791     42793     42792     42791     42794     42793     42791     42794
     42794     42797     42798     42794     42797     42799     42794     42797     42800
     42795     42794     42796     42795     42794     42797     42796     42794     42797
     42797     42800     42801     42797     42800     42802     42797     42800     42803
     42798     42797     42799     42798     42797     42800     42799     42797     42800
     42801     42800     42802     42801     42800     42803     42802     42800     42803
     42804     42807     42808     42804     42807     42809     42804     42807     42810
     42805     42804     42806     42805     42804     42807     42806     42804     42807
     42807     42810     42811     42807     42810     42812     42807     42810     42813
     42808     42807     42809     42808     42807     42810     42809     42807     42810
     42810     42813     42814     42810     42813     42815     42810     42813     42816
     42811     42810     42812     42811     42810     42813     42812     42810     42813
     42813     42816     42817     42813     42816     42818     42813     42816     42819
     42814     42813     42815     42814     42813     42816     42815     42813     42816
     42816     42819     42820     42816     42819     42821     42816     42819     42822
     42817     42816     42818     42817     42816     42819     42818     42816     42819
     42819     42822     42823     42819     42822     42824     42819     42822     42825
     42820     42819     42821     42820     42819     42822     42821     42819     42822
     42822     42825     42826     42822     42825     42827     42822     42825     42828
     42823     42822     42824     42823     42822     42825     42824     42822     42825
     42825     42828     42829     42825     42828     42830     42825     42828     42831
     42826     42825     42827     42826     42825     42828     42827     42825     42828
     42828     42831     42832     42828     42831     42833     42828     42831     42834
     42829     42828     42830     42829     42828     42831     42830     42828     42831
     42831     42834     42835     42831     42834     42836     42831     42834     42837
     42832     42831     42833     42832     42831     42834     42833     42831     42834
     42834     42837     42838     42834     42837     42839     42834     42837     42840
     42835     42834     42836     42835     42834     42837     42836     42834     42837
     42837     42840     42841     42837     42840     42842     42837     42840     42843
     42838     42837     42839     42838     42837     42840     42839     42837     42840
     42840     42843     42844     42840     42843     42845     42840     42843     42846
     42841     42840     42842     42841     42840     42843     42842     42840     42843
     42844     42843     42845     42844     42843     42846     42845     42843     42846

    117622 !NPHI: dihedrals
         1         5         8         9         1         5         8        39
         1        47        44        39         1        47        44        45
         1        47        44        46         2         1         3         4
         2         1         5         6         2         1         5         7
         2         1         5         8         2         1        47        44
         2         1        47        48         2         1        47        49
         3         1         5         6         3         1         5         7
         3         1         5         8         3         1        47        44
         3         1        47        48         3         1        47        49
         4         3         1         5         4         3         1        47
         5         1        47        44         5         1        47        48
         5         1        47        49         5         8         9        10
         5         8         9        11         5         8        39        37
         5         8        39        40         5         8        39        44
         6         5         1        47         6         5         8         9
         6         5         8        39         7         5         1        47
         7         5         8         9         7         5         8        39
         8         5         1        47         8         9        11        12
         8         9        11        13         8         9        11        14
         8        39        37        14         8        39        37        34
         8        39        37        38         8        39        40        41
         8        39        40        42         8        39        40        43
         8        39        44        45         8        39        44        46
         8        39        44        47         9         8        39        37
         9         8        39        40         9         8        39        44
         9        11        14        15         9        11        14        16
         9        11        14        37        10         9         8        39
        10         9        11        12        10         9        11        13
        10         9        11        14        11         9         8        39
        11        14        16        17        11        14        16        18
        11        14        16        26        11        14        37        34
        11        14        37        38        11        14        37        39
        12        11        14        15        12        11        14        16
        12        11        14        37        13        11        14        15
        13        11        14        16        13        11        14        37
        14        16        18        19        14        16        18        20
        14        16        18        21        14        16        26        24
        14        16        26        27        14        16        26        31
        14        37        34        31        14        37        34        35
        14        37        34        36        14        37        39        40
        14        37        39        44        15        14        16        17
        15        14        16        18        15        14        16        26
        15        14        37        34        15        14        37        38
        15        14        37        39        16        14        37        34
        16        14        37        38        16        14        37        39
        16        18        21        22        16        18        21        23
        16        18        21        24        16        26        24        21
        16        26        24        25        16        26        24        50
        16        26        27        28        16        26        27        29
        16        26        27        30        16        26        31        32
        16        26        31        33        16        26        31        34
        17        16        14        37        17        16        18        19
        17        16        18        20        17        16        18        21
        17        16        26        24        17        16        26        27
        17        16        26        31        18        16        14        37
        18        16        26        24        18        16        26        27
        18        16        26        31        18        21        24        25
        18        21        24        26        18        21        24        50
        19        18        16        26        19        18        21        22
        19        18        21        23        19        18        21        24
        20        18        16        26        20        18        21        22
        20        18        21        23        20        18        21        24
        21        18        16        26        21        24        26        27
        21        24        26        31        21        24        50        51
        21        24        50        52        21        24        50        56
        22        21        24        25        22        21        24        26
        22        21        24        50        23        21        24        25
        23        21        24        26        23        21        24        50
        24        26        27        28        24        26        27        29
        24        26        27        30        24        26        31        32
        24        26        31        33        24        26        31        34
        24        50        52        53        24        50        52        54
        24        50        52        55        24        50        56        57
        24        50        56        58        24        50        56        59
        25        24        26        27        25        24        26        31
        25        24        50        51        25        24        50        52
        25        24        50        56        26        16        14        37
        26        24        50        51        26        24        50        52
        26        24        50        56        26        31        34        35
        26        31        34        36        26        31        34        37
        27        26        24        50        27        26        31        32
        27        26        31        33        27        26        31        34
        28        27        26        31        29        27        26        31
        30        27        26        31        31        26        24        50
        31        34        37        38        31        34        37        39
        32        31        34        35        32        31        34        36
        32        31        34        37        33        31        34        35
        33        31        34        36        33        31        34        37
        34        37        39        40        34        37        39        44
        35        34        37        38        35        34        37        39
        36        34        37        38        36        34        37        39
        37        39        40        41        37        39        40        42
        37        39        40        43        37        39        44        45
        37        39        44        46        37        39        44        47
        38        37        39        40        38        37        39        44
        39        44        47        48        39        44        47        49
        40        39        44        45        40        39        44        46
        40        39        44        47        41        40        39        44
        42        40        39        44        43        40        39        44
        45        44        47        48        45        44        47        49
        46        44        47        48        46        44        47        49
        50        56        59        60        50        56        59        61
        50        56        59        62        51        50        52        53
        51        50        52        54        51        50        52        55
        51        50        56        57        51        50        56        58
        51        50        56        59        52        50        56        57
        52        50        56        58        52        50        56        59
        53        52        50        56        54        52        50        56
        55        52        50        56        56        59        62        63
        56        59        62        64        56        59        62        65
        57        56        59        60        57        56        59        61
        57        56        59        62        58        56        59        60
        58        56        59        61        58        56        59        62
        59        62        65        66        59        62        65        67
        59        62        65        71        60        59        62        63
        60        59        62        64        60        59        62        65
        61        59        62        63        61        59        62        64
        61        59        62        65        62        65        67        68
        62        65        67        69        62        65        67        70
        62        65        71        72        62        65        71        73
        62        65        71        74        63        62        65        66
        63        62        65        67        63        62        65        71
        64        62        65        66        64        62        65        67
        64        62        65        71        66        65        67        68
        66        65        67        69        66        65        67        70
        66        65        71        72        66        65        71        73
        66        65        71        74        67        65        71        72
        67        65        71        73        67        65        71        74
        68        67        65        71        69        67        65        71
        70        67        65        71        75        79        82        83
        75        79        82       113        75       121       118       113
        75       121       118       119        75       121       118       120
        76        75        77        78        76        75        79        80
        76        75        79        81        76        75        79        82
        76        75       121       118        76        75       121       122
        76        75       121       123        77        75        79        80
        77        75        79        81        77        75        79        82
        77        75       121       118        77        75       121       122
        77        75       121       123        78        77        75        79
        78        77        75       121        79        75       121       118
        79        75       121       122        79        75       121       123
        79        82        83        84        79        82        83        85
        79        82       113       111        79        82       113       114
        79        82       113       118        80        79        75       121
        80        79        82        83        80        79        82       113
        81        79        75       121        81        79        82        83
        81        79        82       113        82        79        75       121
        82        83        85        86        82        83        85        87
        82        83        85        88        82       113       111        88
        82       113       111       108        82       113       111       112
        82       113       114       115        82       113       114       116
        82       113       114       117        82       113       118       119
        82       113       118       120        82       113       118       121
        83        82       113       111        83        82       113       114
        83        82       113       118        83        85        88        89
        83        85        88        90        83        85        88       111
        84        83        82       113        84        83        85        86
        84        83        85        87        84        83        85        88
        85        83        82       113        85        88        90        91
        85        88        90        92        85        88        90       100
        85        88       111       108        85        88       111       112
        85        88       111       113        86        85        88        89
        86        85        88        90        86        85        88       111
        87        85        88        89        87        85        88        90
        87        85        88       111        88        90        92        93
        88        90        92        94        88        90        92        95
        88        90       100        98        88        90       100       101
        88        90       100       105        88       111       108       105
        88       111       108       109        88       111       108       110
        88       111       113       114        88       111       113       118
        89        88        90        91        89        88        90        92
        89        88        90       100        89        88       111       108
        89        88       111       112        89        88       111       113
        90        88       111       108        90        88       111       112
        90        88       111       113        90        92        95        96
        90        92        95        97        90        92        95        98
        90       100        98        95        90       100        98        99
        90       100        98       124        90       100       101       102
        90       100       101       103        90       100       101       104
        90       100       105       106        90       100       105       107
        90       100       105       108        91        90        88       111
        91        90        92        93        91        90        92        94
        91        90        92        95        91        90       100        98
        91        90       100       101        91        90       100       105
        92        90        88       111        92        90       100        98
        92        90       100       101        92        90       100       105
        92        95        98        99        92        95        98       100
        92        95        98       124        93        92        90       100
        93        92        95        96        93        92        95        97
        93        92        95        98        94        92        90       100
        94        92        95        96        94        92        95        97
        94        92        95        98        95        92        90       100
        95        98       100       101        95        98       100       105
        95        98       124       125        95        98       124       126
        95        98       124       130        96        95        98        99
        96        95        98       100        96        95        98       124
        97        95        98        99        97        95        98       100
        97        95        98       124        98       100       101       102
        98       100       101       103        98       100       101       104
        98       100       105       106        98       100       105       107
        98       100       105       108        98       124       126       127
        98       124       126       128        98       124       126       129
        98       124       130       131        98       124       130       132
        98       124       130       133        99        98       100       101
        99        98       100       105        99        98       124       125
        99        98       124       126        99        98       124       130
       100        90        88       111       100        98       124       125
       100        98       124       126       100        98       124       130
       100       105       108       109       100       105       108       110
       100       105       108       111       101       100        98       124
       101       100       105       106       101       100       105       107
       101       100       105       108       102       101       100       105
       103       101       100       105       104       101       100       105
       105       100        98       124       105       108       111       112
       105       108       111       113       106       105       108       109
       106       105       108       110       106       105       108       111
       107       105       108       109       107       105       108       110
       107       105       108       111       108       111       113       114
       108       111       113       118       109       108       111       112
       109       108       111       113       110       108       111       112
       110       108       111       113       111       113       114       115
       111       113       114       116       111       113       114       117
       111       113       118       119       111       113       118       120
       111       113       118       121       112       111       113       114
       112       111       113       118       113       118       121       122
       113       118       121       123       114       113       118       119
       114       113       118       120       114       113       118       121
       115       114       113       118       116       114       113       118
       117       114       113       118       119       118       121       122
       119       118       121       123       120       118       121       122
       120       118       121       123       124       130       133       134
       124       130       133       135       124       130       133       136
       125       124       126       127       125       124       126       128
       125       124       126       129       125       124       130       131
       125       124       130       132       125       124       130       133
       126       124       130       131       126       124       130       132
       126       124       130       133       127       126       124       130
       128       126       124       130       129       126       124       130
       130       133       136       137       130       133       136       138
       130       133       136       139       131       130       133       134
       131       130       133       135       131       130       133       136
       132       130       133       134       132       130       133       135
       132       130       133       136       133       136       139       140
       133       136       139       141       133       136       139       145
       134       133       136       137       134       133       136       138
       134       133       136       139       135       133       136       137
       135       133       136       138       135       133       136       139
       136       139       141       142       136       139       141       143
       136       139       141       144       136       139       145       146
       136       139       145       147       136       139       145       148
       137       136       139       140       137       136       139       141
       137       136       139       145       138       136       139       140
       138       136       139       141       138       136       139       145
       140       139       141       142       140       139       141       143
       140       139       141       144       140       139       145       146
       140       139       145       147       140       139       145       148
       141       139       145       146       141       139       145       147
       141       139       145       148       142       141       139       145
       143       141       139       145       144       141       139       145
       149       153       156       157       149       153       156       187
       149       195       192       187       149       195       192       193
       149       195       192       194       150       149       151       152
       150       149       153       154       150       149       153       155
       150       149       153       156       150       149       195       192
       150       149       195       196       150       149       195       197
       151       149       153       154       151       149       153       155
       151       149       153       156       151       149       195       192
       151       149       195       196       151       149       195       197
       152       151       149       153       152       151       149       195
       153       149       195       192       153       149       195       196
       153       149       195       197       153       156       157       158
       153       156       157       159       153       156       187       185
       153       156       187       188       153       156       187       192
       154       153       149       195       154       153       156       157
       154       153       156       187       155       153       149       195
       155       153       156       157       155       153       156       187
       156       153       149       195       156       157       159       160
       156       157       159       161       156       157       159       162
       156       187       185       162       156       187       185       182
       156       187       185       186       156       187       188       189
       156       187       188       190       156       187       188       191
       156       187       192       193       156       187       192       194
       156       187       192       195       157       156       187       185
       157       156       187       188       157       156       187       192
       157       159       162       163       157       159       162       164
       157       159       162       185       158       157       156       187
       158       157       159       160       158       157       159       161
       158       157       159       162       159       157       156       187
       159       162       164       165       159       162       164       166
       159       162       164       174       159       162       185       182
       159       162       185       186       159       162       185       187
       160       159       162       163       160       159       162       164
       160       159       162       185       161       159       162       163
       161       159       162       164       161       159       162       185
       162       164       166       167       162       164       166       168
       162       164       166       169       162       164       174       172
       162       164       174       175       162       164       174       179
       162       185       182       179       162       185       182       183
       162       185       182       184       162       185       187       188
       162       185       187       192       163       162       164       165
       163       162       164       166       163       162       164       174
       163       162       185       182       163       162       185       186
       163       162       185       187       164       162       185       182
       164       162       185       186       164       162       185       187
       164       166       169       170       164       166       169       171
       164       166       169       172       164       174       172       169
       164       174       172       173       164       174       172       198
       164       174       175       176       164       174       175       177
       164       174       175       178       164       174       179       180
       164       174       179       181       164       174       179       182
       165       164       162       185       165       164       166       167
       165       164       166       168       165       164       166       169
       165       164       174       172       165       164       174       175
       165       164       174       179       166       164       162       185
       166       164       174       172       166       164       174       175
       166       164       174       179       166       169       172       173
       166       169       172       174       166       169       172       198
       167       166       164       174       167       166       169       170
       167       166       169       171       167       166       169       172
       168       166       164       174       168       166       169       170
       168       166       169       171       168       166       169       172
       169       166       164       174       169       172       174       175
       169       172       174       179       169       172       198       199
       169       172       198       200       169       172       198       204
       170       169       172       173       170       169       172       174
       170       169       172       198       171       169       172       173
       171       169       172       174       171       169       172       198
       172       174       175       176       172       174       175       177
       172       174       175       178       172       174       179       180
       172       174       179       181       172       174       179       182
       172       198       200       201       172       198       200       202
       172       198       200       203       172       198       204       205
       172       198       204       206       172       198       204       207
       173       172       174       175       173       172       174       179
       173       172       198       199       173       172       198       200
       173       172       198       204       174       164       162       185
       174       172       198       199       174       172       198       200
       174       172       198       204       174       179       182       183
       174       179       182       184       174       179       182       185
       175       174       172       198       175       174       179       180
       175       174       179       181       175       174       179       182
       176       175       174       179       177       175       174       179
       178       175       174       179       179       174       172       198
       179       182       185       186       179       182       185       187
       180       179       182       183       180       179       182       184
       180       179       182       185       181       179       182       183
       181       179       182       184       181       179       182       185
       182       185       187       188       182       185       187       192
       183       182       185       186       183       182       185       187
       184       182       185       186       184       182       185       187
       185       187       188       189       185       187       188       190
       185       187       188       191       185       187       192       193
       185       187       192       194       185       187       192       195
       186       185       187       188       186       185       187       192
       187       192       195       196       187       192       195       197
       188       187       192       193       188       187       192       194
       188       187       192       195       189       188       187       192
       190       188       187       192       191       188       187       192
       193       192       195       196       193       192       195       197
       194       192       195       196       194       192       195       197
       198       204       207       208       198       204       207       209
       198       204       207       210       199       198       200       201
       199       198       200       202       199       198       200       203
       199       198       204       205       199       198       204       206
       199       198       204       207       200       198       204       205
       200       198       204       206       200       198       204       207
       201       200       198       204       202       200       198       204
       203       200       198       204       204       207       210       211
       204       207       210       212       204       207       210       213
       205       204       207       208       205       204       207       209
       205       204       207       210       206       204       207       208
       206       204       207       209       206       204       207       210
       207       210       213       214       207       210       213       215
       207       210       213       219       208       207       210       211
       208       207       210       212       208       207       210       213
       209       207       210       211       209       207       210       212
       209       207       210       213       210       213       215       216
       210       213       215       217       210       213       215       218
       210       213       219       220       210       213       219       221
       210       213       219       222       211       210       213       214
       211       210       213       215       211       210       213       219
       212       210       213       214       212       210       213       215
       212       210       213       219       214       213       215       216
       214       213       215       217       214       213       215       218
       214       213       219       220       214       213       219       221
       214       213       219       222       215       213       219       220
       215       213       219       221       215       213       219       222
       216       215       213       219       217       215       213       219
       218       215       213       219       223       227       230       231
       223       227       230       261       223       269       266       261
       223       269       266       267       223       269       266       268
       224       223       225       226       224       223       227       228
       224       223       227       229       224       223       227       230
       224       223       269       266       224       223       269       270
       224       223       269       271       225       223       227       228
       225       223       227       229       225       223       227       230
       225       223       269       266       225       223       269       270
       225       223       269       271       226       225       223       227
       226       225       223       269       227       223       269       266
       227       223       269       270       227       223       269       271
       227       230       231       232       227       230       231       233
       227       230       261       259       227       230       261       262
       227       230       261       266       228       227       223       269
       228       227       230       231       228       227       230       261
       229       227       223       269       229       227       230       231
       229       227       230       261       230       227       223       269
       230       231       233       234       230       231       233       235
       230       231       233       236       230       261       259       236
       230       261       259       256       230       261       259       260
       230       261       262       263       230       261       262       264
       230       261       262       265       230       261       266       267
       230       261       266       268       230       261       266       269
       231       230       261       259       231       230       261       262
       231       230       261       266       231       233       236       237
       231       233       236       238       231       233       236       259
       232       231       230       261       232       231       233       234
       232       231       233       235       232       231       233       236
       233       231       230       261       233       236       238       239
       233       236       238       240       233       236       238       248
       233       236       259       256       233       236       259       260
       233       236       259       261       234       233       236       237
       234       233       236       238       234       233       236       259
       235       233       236       237       235       233       236       238
       235       233       236       259       236       238       240       241
       236       238       240       242       236       238       240       243
       236       238       248       246       236       238       248       249
       236       238       248       253       236       259       256       253
       236       259       256       257       236       259       256       258
       236       259       261       262       236       259       261       266
       237       236       238       239       237       236       238       240
       237       236       238       248       237       236       259       256
       237       236       259       260       237       236       259       261
       238       236       259       256       238       236       259       260
       238       236       259       261       238       240       243       244
       238       240       243       245       238       240       243       246
       238       248       246       243       238       248       246       247
       238       248       246       272       238       248       249       250
       238       248       249       251       238       248       249       252
       238       248       253       254       238       248       253       255
       238       248       253       256       239       238       236       259
       239       238       240       241       239       238       240       242
       239       238       240       243       239       238       248       246
       239       238       248       249       239       238       248       253
       240       238       236       259       240       238       248       246
       240       238       248       249       240       238       248       253
       240       243       246       247       240       243       246       248
       240       243       246       272       241       240       238       248
       241       240       243       244       241       240       243       245
       241       240       243       246       242       240       238       248
       242       240       243       244       242       240       243       245
       242       240       243       246       243       240       238       248
       243       246       248       249       243       246       248       253
       243       246       272       273       243       246       272       274
       243       246       272       278       244       243       246       247
       244       243       246       248       244       243       246       272
       245       243       246       247       245       243       246       248
       245       243       246       272       246       248       249       250
       246       248       249       251       246       248       249       252
       246       248       253       254       246       248       253       255
       246       248       253       256       246       272       274       275
       246       272       274       276       246       272       274       277
       246       272       278       279       246       272       278       280
       246       272       278       281       247       246       248       249
       247       246       248       253       247       246       272       273
       247       246       272       274       247       246       272       278
       248       238       236       259       248       246       272       273
       248       246       272       274       248       246       272       278
       248       253       256       257       248       253       256       258
       248       253       256       259       249       248       246       272
       249       248       253       254       249       248       253       255
       249       248       253       256       250       249       248       253
       251       249       248       253       252       249       248       253
       253       248       246       272       253       256       259       260
       253       256       259       261       254       253       256       257
       254       253       256       258       254       253       256       259
       255       253       256       257       255       253       256       258
       255       253       256       259       256       259       261       262
       256       259       261       266       257       256       259       260
       257       256       259       261       258       256       259       260
       258       256       259       261       259       261       262       263
       259       261       262       264       259       261       262       265
       259       261       266       267       259       261       266       268
       259       261       266       269       260       259       261       262
       260       259       261       266       261       266       269       270
       261       266       269       271       262       261       266       267
       262       261       266       268       262       261       266       269
       263       262       261       266       264       262       261       266
       265       262       261       266       267       266       269       270
       267       266       269       271       268       266       269       270
       268       266       269       271       272       278       281       282
       272       278       281       283       272       278       281       284
       273       272       274       275       273       272       274       276
       273       272       274       277       273       272       278       279
       273       272       278       280       273       272       278       281
       274       272       278       279       274       272       278       280
       274       272       278       281       275       274       272       278
       276       274       272       278       277       274       272       278
       278       281       284       285       278       281       284       286
       278       281       284       287       279       278       281       282
       279       278       281       283       279       278       281       284
       280       278       281       282       280       278       281       283
       280       278       281       284       281       284       287       288
       281       284       287       289       281       284       287       293
       282       281       284       285       282       281       284       286
       282       281       284       287       283       281       284       285
       283       281       284       286       283       281       284       287
       284       287       289       290       284       287       289       291
       284       287       289       292       284       287       293       294
       284       287       293       295       284       287       293       296
       285       284       287       288       285       284       287       289
       285       284       287       293       286       284       287       288
       286       284       287       289       286       284       287       293
       288       287       289       290       288       287       289       291
       288       287       289       292       288       287       293       294
       288       287       293       295       288       287       293       296
       289       287       293       294       289       287       293       295
       289       287       293       296       290       289       287       293
       291       289       287       293       292       289       287       293
       297       301       304       305       297       301       304       335
       297       343       340       335       297       343       340       341
       297       343       340       342       298       297       299       300
       298       297       301       302       298       297       301       303
       298       297       301       304       298       297       343       340
       298       297       343       344       298       297       343       345
       299       297       301       302       299       297       301       303
       299       297       301       304       299       297       343       340
       299       297       343       344       299       297       343       345
       300       299       297       301       300       299       297       343
       301       297       343       340       301       297       343       344
       301       297       343       345       301       304       305       306
       301       304       305       307       301       304       335       333
       301       304       335       336       301       304       335       340
       302       301       297       343       302       301       304       305
       302       301       304       335       303       301       297       343
       303       301       304       305       303       301       304       335
       304       301       297       343       304       305       307       308
       304       305       307       309       304       305       307       310
       304       335       333       310       304       335       333       330
       304       335       333       334       304       335       336       337
       304       335       336       338       304       335       336       339
       304       335       340       341       304       335       340       342
       304       335       340       343       305       304       335       333
       305       304       335       336       305       304       335       340
       305       307       310       311       305       307       310       312
       305       307       310       333       306       305       304       335
       306       305       307       308       306       305       307       309
       306       305       307       310       307       305       304       335
       307       310       312       313       307       310       312       314
       307       310       312       322       307       310       333       330
       307       310       333       334       307       310       333       335
       308       307       310       311       308       307       310       312
       308       307       310       333       309       307       310       311
       309       307       310       312       309       307       310       333
       310       312       314       315       310       312       314       316
       310       312       314       317       310       312       322       320
       310       312       322       323       310       312       322       327
       310       333       330       327       310       333       330       331
       310       333       330       332       310       333       335       336
       310       333       335       340       311       310       312       313
       311       310       312       314       311       310       312       322
       311       310       333       330       311       310       333       334
       311       310       333       335       312       310       333       330
       312       310       333       334       312       310       333       335
       312       314       317       318       312       314       317       319
       312       314       317       320       312       322       320       317
       312       322       320       321       312       322       320       346
       312       322       323       324       312       322       323       325
       312       322       323       326       312       322       327       328
       312       322       327       329       312       322       327       330
       313       312       310       333       313       312       314       315
       313       312       314       316       313       312       314       317
       313       312       322       320       313       312       322       323
       313       312       322       327       314       312       310       333
       314       312       322       320       314       312       322       323
       314       312       322       327       314       317       320       321
       314       317       320       322       314       317       320       346
       315       314       312       322       315       314       317       318
       315       314       317       319       315       314       317       320
       316       314       312       322       316       314       317       318
       316       314       317       319       316       314       317       320
       317       314       312       322       317       320       322       323
       317       320       322       327       317       320       346       347
       317       320       346       348       317       320       346       352
       318       317       320       321       318       317       320       322
       318       317       320       346       319       317       320       321
       319       317       320       322       319       317       320       346
       320       322       323       324       320       322       323       325
       320       322       323       326       320       322       327       328
       320       322       327       329       320       322       327       330
       320       346       348       349       320       346       348       350
       320       346       348       351       320       346       352       353
       320       346       352       354       320       346       352       355
       321       320       322       323       321       320       322       327
       321       320       346       347       321       320       346       348
       321       320       346       352       322       312       310       333
       322       320       346       347       322       320       346       348
       322       320       346       352       322       327       330       331
       322       327       330       332       322       327       330       333
       323       322       320       346       323       322       327       328
       323       322       327       329       323       322       327       330
       324       323       322       327       325       323       322       327
       326       323       322       327       327       322       320       346
       327       330       333       334       327       330       333       335
       328       327       330       331       328       327       330       332
       328       327       330       333       329       327       330       331
       329       327       330       332       329       327       330       333
       330       333       335       336       330       333       335       340
       331       330       333       334       331       330       333       335
       332       330       333       334       332       330       333       335
       333       335       336       337       333       335       336       338
       333       335       336       339       333       335       340       341
       333       335       340       342       333       335       340       343
       334       333       335       336       334       333       335       340
       335       340       343       344       335       340       343       345
       336       335       340       341       336       335       340       342
       336       335       340       343       337       336       335       340
       338       336       335       340       339       336       335       340
       341       340       343       344       341       340       343       345
       342       340       343       344       342       340       343       345
       346       352       355       356       346       352       355       357
       346       352       355       358       347       346       348       349
       347       346       348       350       347       346       348       351
       347       346       352       353       347       346       352       354
       347       346       352       355       348       346       352       353
       348       346       352       354       348       346       352       355
       349       348       346       352       350       348       346       352
       351       348       346       352       352       355       358       359
       352       355       358       360       352       355       358       361
       353       352       355       356       353       352       355       357
       353       352       355       358       354       352       355       356
       354       352       355       357       354       352       355       358
       355       358       361       362       355       358       361       363
       355       358       361       367       356       355       358       359
       356       355       358       360       356       355       358       361
       357       355       358       359       357       355       358       360
       357       355       358       361       358       361       363       364
       358       361       363       365       358       361       363       366
       358       361       367       368       358       361       367       369
       358       361       367       370       359       358       361       362
       359       358       361       363       359       358       361       367
       360       358       361       362       360       358       361       363
       360       358       361       367       362       361       363       364
       362       361       363       365       362       361       363       366
       362       361       367       368       362       361       367       369
       362       361       367       370       363       361       367       368
       363       361       367       369       363       361       367       370
       364       363       361       367       365       363       361       367
       366       363       361       367       371       375       378       379
       371       375       378       409       371       417       414       409
       371       417       414       415       371       417       414       416
       372       371       373       374       372       371       375       376
       372       371       375       377       372       371       375       378
       372       371       417       414       372       371       417       418
       372       371       417       419       373       371       375       376
       373       371       375       377       373       371       375       378
       373       371       417       414       373       371       417       418
       373       371       417       419       374       373       371       375
       374       373       371       417       375       371       417       414
       375       371       417       418       375       371       417       419
       375       378       379       380       375       378       379       381
       375       378       409       407       375       378       409       410
       375       378       409       414       376       375       371       417
       376       375       378       379       376       375       378       409
       377       375       371       417       377       375       378       379
       377       375       378       409       378       375       371       417
       378       379       381       382       378       379       381       383
       378       379       381       384       378       409       407       384
       378       409       407       404       378       409       407       408
       378       409       410       411       378       409       410       412
       378       409       410       413       378       409       414       415
       378       409       414       416       378       409       414       417
       379       378       409       407       379       378       409       410
       379       378       409       414       379       381       384       385
       379       381       384       386       379       381       384       407
       380       379       378       409       380       379       381       382
       380       379       381       383       380       379       381       384
       381       379       378       409       381       384       386       387
       381       384       386       388       381       384       386       396
       381       384       407       404       381       384       407       408
       381       384       407       409       382       381       384       385
       382       381       384       386       382       381       384       407
       383       381       384       385       383       381       384       386
       383       381       384       407       384       386       388       389
       384       386       388       390       384       386       388       391
       384       386       396       394       384       386       396       397
       384       386       396       401       384       407       404       401
       384       407       404       405       384       407       404       406
       384       407       409       410       384       407       409       414
       385       384       386       387       385       384       386       388
       385       384       386       396       385       384       407       404
       385       384       407       408       385       384       407       409
       386       384       407       404       386       384       407       408
       386       384       407       409       386       388       391       392
       386       388       391       393       386       388       391       394
       386       396       394       391       386       396       394       395
       386       396       394       420       386       396       397       398
       386       396       397       399       386       396       397       400
       386       396       401       402       386       396       401       403
       386       396       401       404       387       386       384       407
       387       386       388       389       387       386       388       390
       387       386       388       391       387       386       396       394
       387       386       396       397       387       386       396       401
       388       386       384       407       388       386       396       394
       388       386       396       397       388       386       396       401
       388       391       394       395       388       391       394       396
       388       391       394       420       389       388       386       396
       389       388       391       392       389       388       391       393
       389       388       391       394       390       388       386       396
       390       388       391       392       390       388       391       393
       390       388       391       394       391       388       386       396
       391       394       396       397       391       394       396       401
       391       394       420       421       391       394       420       422
       391       394       420       426       392       391       394       395
       392       391       394       396       392       391       394       420
       393       391       394       395       393       391       394       396
       393       391       394       420       394       396       397       398
       394       396       397       399       394       396       397       400
       394       396       401       402       394       396       401       403
       394       396       401       404       394       420       422       423
       394       420       422       424       394       420       422       425
       394       420       426       427       394       420       426       428
       394       420       426       429       395       394       396       397
       395       394       396       401       395       394       420       421
       395       394       420       422       395       394       420       426
       396       386       384       407       396       394       420       421
       396       394       420       422       396       394       420       426
       396       401       404       405       396       401       404       406
       396       401       404       407       397       396       394       420
       397       396       401       402       397       396       401       403
       397       396       401       404       398       397       396       401
       399       397       396       401       400       397       396       401
       401       396       394       420       401       404       407       408
       401       404       407       409       402       401       404       405
       402       401       404       406       402       401       404       407
       403       401       404       405       403       401       404       406
       403       401       404       407       404       407       409       410
       404       407       409       414       405       404       407       408
       405       404       407       409       406       404       407       408
       406       404       407       409       407       409       410       411
       407       409       410       412       407       409       410       413
       407       409       414       415       407       409       414       416
       407       409       414       417       408       407       409       410
       408       407       409       414       409       414       417       418
       409       414       417       419       410       409       414       415
       410       409       414       416       410       409       414       417
       411       410       409       414       412       410       409       414
       413       410       409       414       415       414       417       418
       415       414       417       419       416       414       417       418
       416       414       417       419       420       426       429       430
       420       426       429       431       420       426       429       432
       421       420       422       423       421       420       422       424
       421       420       422       425       421       420       426       427
       421       420       426       428       421       420       426       429
       422       420       426       427       422       420       426       428
       422       420       426       429       423       422       420       426
       424       422       420       426       425       422       420       426
       426       429       432       433       426       429       432       434
       426       429       432       435       427       426       429       430
       427       426       429       431       427       426       429       432
       428       426       429       430       428       426       429       431
       428       426       429       432       429       432       435       436
       429       432       435       437       429       432       435       441
       430       429       432       433       430       429       432       434
       430       429       432       435       431       429       432       433
       431       429       432       434       431       429       432       435
       432       435       437       438       432       435       437       439
       432       435       437       440       432       435       441       442
       432       435       441       443       432       435       441       444
       433       432       435       436       433       432       435       437
       433       432       435       441       434       432       435       436
       434       432       435       437       434       432       435       441
       436       435       437       438       436       435       437       439
       436       435       437       440       436       435       441       442
       436       435       441       443       436       435       441       444
       437       435       441       442       437       435       441       443
       437       435       441       444       438       437       435       441
       439       437       435       441       440       437       435       441
       445       449       452       453       445       449       452       483
       445       491       488       483       445       491       488       489
       445       491       488       490       446       445       447       448
       446       445       449       450       446       445       449       451
       446       445       449       452       446       445       491       488
       446       445       491       492       446       445       491       493
       447       445       449       450       447       445       449       451
       447       445       449       452       447       445       491       488
       447       445       491       492       447       445       491       493
       448       447       445       449       448       447       445       491
       449       445       491       488       449       445       491       492
       449       445       491       493       449       452       453       454
       449       452       453       455       449       452       483       481
       449       452       483       484       449       452       483       488
       450       449       445       491       450       449       452       453
       450       449       452       483       451       449       445       491
       451       449       452       453       451       449       452       483
       452       449       445       491       452       453       455       456
       452       453       455       457       452       453       455       458
       452       483       481       458       452       483       481       478
       452       483       481       482       452       483       484       485
       452       483       484       486       452       483       484       487
       452       483       488       489       452       483       488       490
       452       483       488       491       453       452       483       481
       453       452       483       484       453       452       483       488
       453       455       458       459       453       455       458       460
       453       455       458       481       454       453       452       483
       454       453       455       456       454       453       455       457
       454       453       455       458       455       453       452       483
       455       458       460       461       455       458       460       462
       455       458       460       470       455       458       481       478
       455       458       481       482       455       458       481       483
       456       455       458       459       456       455       458       460
       456       455       458       481       457       455       458       459
       457       455       458       460       457       455       458       481
       458       460       462       463       458       460       462       464
       458       460       462       465       458       460       470       468
       458       460       470       471       458       460       470       475
       458       481       478       475       458       481       478       479
       458       481       478       480       458       481       483       484
       458       481       483       488       459       458       460       461
       459       458       460       462       459       458       460       470
       459       458       481       478       459       458       481       482
       459       458       481       483       460       458       481       478
       460       458       481       482       460       458       481       483
       460       462       465       466       460       462       465       467
       460       462       465       468       460       470       468       465
       460       470       468       469       460       470       468       494
       460       470       471       472       460       470       471       473
       460       470       471       474       460       470       475       476
       460       470       475       477       460       470       475       478
       461       460       458       481       461       460       462       463
       461       460       462       464       461       460       462       465
       461       460       470       468       461       460       470       471
       461       460       470       475       462       460       458       481
       462       460       470       468       462       460       470       471
       462       460       470       475       462       465       468       469
       462       465       468       470       462       465       468       494
       463       462       460       470       463       462       465       466
       463       462       465       467       463       462       465       468
       464       462       460       470       464       462       465       466
       464       462       465       467       464       462       465       468
       465       462       460       470       465       468       470       471
       465       468       470       475       465       468       494       495
       465       468       494       496       465       468       494       500
       466       465       468       469       466       465       468       470
       466       465       468       494       467       465       468       469
       467       465       468       470       467       465       468       494
       468       470       471       472       468       470       471       473
       468       470       471       474       468       470       475       476
       468       470       475       477       468       470       475       478
       468       494       496       497       468       494       496       498
       468       494       496       499       468       494       500       501
       468       494       500       502       468       494       500       503
       469       468       470       471       469       468       470       475
       469       468       494       495       469       468       494       496
       469       468       494       500       470       460       458       481
       470       468       494       495       470       468       494       496
       470       468       494       500       470       475       478       479
       470       475       478       480       470       475       478       481
       471       470       468       494       471       470       475       476
       471       470       475       477       471       470       475       478
       472       471       470       475       473       471       470       475
       474       471       470       475       475       470       468       494
       475       478       481       482       475       478       481       483
       476       475       478       479       476       475       478       480
       476       475       478       481       477       475       478       479
       477       475       478       480       477       475       478       481
       478       481       483       484       478       481       483       488
       479       478       481       482       479       478       481       483
       480       478       481       482       480       478       481       483
       481       483       484       485       481       483       484       486
       481       483       484       487       481       483       488       489
       481       483       488       490       481       483       488       491
       482       481       483       484       482       481       483       488
       483       488       491       492       483       488       491       493
       484       483       488       489       484       483       488       490
       484       483       488       491       485       484       483       488
       486       484       483       488       487       484       483       488
       489       488       491       492       489       488       491       493
       490       488       491       492       490       488       491       493
       494       500       503       504       494       500       503       505
       494       500       503       506       495       494       496       497
       495       494       496       498       495       494       496       499
       495       494       500       501       495       494       500       502
       495       494       500       503       496       494       500       501
       496       494       500       502       496       494       500       503
       497       496       494       500       498       496       494       500
       499       496       494       500       500       503       506       507
       500       503       506       508       500       503       506       509
       501       500       503       504       501       500       503       505
       501       500       503       506       502       500       503       504
       502       500       503       505       502       500       503       506
       503       506       509       510       503       506       509       511
       503       506       509       515       504       503       506       507
       504       503       506       508       504       503       506       509
       505       503       506       507       505       503       506       508
       505       503       506       509       506       509       511       512
       506       509       511       513       506       509       511       514
       506       509       515       516       506       509       515       517
       506       509       515       518       507       506       509       510
       507       506       509       511       507       506       509       515
       508       506       509       510       508       506       509       511
       508       506       509       515       510       509       511       512
       510       509       511       513       510       509       511       514
       510       509       515       516       510       509       515       517
       510       509       515       518       511       509       515       516
       511       509       515       517       511       509       515       518
       512       511       509       515       513       511       509       515
       514       511       509       515       519       523       526       527
       519       523       526       557       519       565       562       557
       519       565       562       563       519       565       562       564
       520       519       521       522       520       519       523       524
       520       519       523       525       520       519       523       526
       520       519       565       562       520       519       565       566
       520       519       565       567       521       519       523       524
       521       519       523       525       521       519       523       526
       521       519       565       562       521       519       565       566
       521       519       565       567       522       521       519       523
       522       521       519       565       523       519       565       562
       523       519       565       566       523       519       565       567
       523       526       527       528       523       526       527       529
       523       526       557       555       523       526       557       558
       523       526       557       562       524       523       519       565
       524       523       526       527       524       523       526       557
       525       523       519       565       525       523       526       527
       525       523       526       557       526       523       519       565
       526       527       529       530       526       527       529       531
       526       527       529       532       526       557       555       532
       526       557       555       552       526       557       555       556
       526       557       558       559       526       557       558       560
       526       557       558       561       526       557       562       563
       526       557       562       564       526       557       562       565
       527       526       557       555       527       526       557       558
       527       526       557       562       527       529       532       533
       527       529       532       534       527       529       532       555
       528       527       526       557       528       527       529       530
       528       527       529       531       528       527       529       532
       529       527       526       557       529       532       534       535
       529       532       534       536       529       532       534       544
       529       532       555       552       529       532       555       556
       529       532       555       557       530       529       532       533
       530       529       532       534       530       529       532       555
       531       529       532       533       531       529       532       534
       531       529       532       555       532       534       536       537
       532       534       536       538       532       534       536       539
       532       534       544       542       532       534       544       545
       532       534       544       549       532       555       552       549
       532       555       552       553       532       555       552       554
       532       555       557       558       532       555       557       562
       533       532       534       535       533       532       534       536
       533       532       534       544       533       532       555       552
       533       532       555       556       533       532       555       557
       534       532       555       552       534       532       555       556
       534       532       555       557       534       536       539       540
       534       536       539       541       534       536       539       542
       534       544       542       539       534       544       542       543
       534       544       542       568       534       544       545       546
       534       544       545       547       534       544       545       548
       534       544       549       550       534       544       549       551
       534       544       549       552       535       534       532       555
       535       534       536       537       535       534       536       538
       535       534       536       539       535       534       544       542
       535       534       544       545       535       534       544       549
       536       534       532       555       536       534       544       542
       536       534       544       545       536       534       544       549
       536       539       542       543       536       539       542       544
       536       539       542       568       537       536       534       544
       537       536       539       540       537       536       539       541
       537       536       539       542       538       536       534       544
       538       536       539       540       538       536       539       541
       538       536       539       542       539       536       534       544
       539       542       544       545       539       542       544       549
       539       542       568       569       539       542       568       570
       539       542       568       574       540       539       542       543
       540       539       542       544       540       539       542       568
       541       539       542       543       541       539       542       544
       541       539       542       568       542       544       545       546
       542       544       545       547       542       544       545       548
       542       544       549       550       542       544       549       551
       542       544       549       552       542       568       570       571
       542       568       570       572       542       568       570       573
       542       568       574       575       542       568       574       576
       542       568       574       577       543       542       544       545
       543       542       544       549       543       542       568       569
       543       542       568       570       543       542       568       574
       544       534       532       555       544       542       568       569
       544       542       568       570       544       542       568       574
       544       549       552       553       544       549       552       554
       544       549       552       555       545       544       542       568
       545       544       549       550       545       544       549       551
       545       544       549       552       546       545       544       549
       547       545       544       549       548       545       544       549
       549       544       542       568       549       552       555       556
       549       552       555       557       550       549       552       553
       550       549       552       554       550       549       552       555
       551       549       552       553       551       549       552       554
       551       549       552       555       552       555       557       558
       552       555       557       562       553       552       555       556
       553       552       555       557       554       552       555       556
       554       552       555       557       555       557       558       559
       555       557       558       560       555       557       558       561
       555       557       562       563       555       557       562       564
       555       557       562       565       556       555       557       558
       556       555       557       562       557       562       565       566
       557       562       565       567       558       557       562       563
       558       557       562       564       558       557       562       565
       559       558       557       562       560       558       557       562
       561       558       557       562       563       562       565       566
       563       562       565       567       564       562       565       566
       564       562       565       567       568       574       577       578
       568       574       577       579       568       574       577       580
       569       568       570       571       569       568       570       572
       569       568       570       573       569       568       574       575
       569       568       574       576       569       568       574       577
       570       568       574       575       570       568       574       576
       570       568       574       577       571       570       568       574
       572       570       568       574       573       570       568       574
       574       577       580       581       574       577       580       582
       574       577       580       583       575       574       577       578
       575       574       577       579       575       574       577       580
       576       574       577       578       576       574       577       579
       576       574       577       580       577       580       583       584
       577       580       583       585       577       580       583       589
       578       577       580       581       578       577       580       582
       578       577       580       583       579       577       580       581
       579       577       580       582       579       577       580       583
       580       583       585       586       580       583       585       587
       580       583       585       588       580       583       589       590
       580       583       589       591       580       583       589       592
       581       580       583       584       581       580       583       585
       581       580       583       589       582       580       583       584
       582       580       583       585       582       580       583       589
       584       583       585       586       584       583       585       587
       584       583       585       588       584       583       589       590
       584       583       589       591       584       583       589       592
       585       583       589       590       585       583       589       591
       585       583       589       592       586       585       583       589
       587       585       583       589       588       585       583       589
       593       597       600       601       593       597       600       631
       593       639       636       631       593       639       636       637
       593       639       636       638       594       593       595       596
       594       593       597       598       594       593       597       599
       594       593       597       600       594       593       639       636
       594       593       639       640       594       593       639       641
       595       593       597       598       595       593       597       599
       595       593       597       600       595       593       639       636
       595       593       639       640       595       593       639       641
       596       595       593       597       596       595       593       639
       597       593       639       636       597       593       639       640
       597       593       639       641       597       600       601       602
       597       600       601       603       597       600       631       629
       597       600       631       632       597       600       631       636
       598       597       593       639       598       597       600       601
       598       597       600       631       599       597       593       639
       599       597       600       601       599       597       600       631
       600       597       593       639       600       601       603       604
       600       601       603       605       600       601       603       606
       600       631       629       606       600       631       629       626
       600       631       629       630       600       631       632       633
       600       631       632       634       600       631       632       635
       600       631       636       637       600       631       636       638
       600       631       636       639       601       600       631       629
       601       600       631       632       601       600       631       636
       601       603       606       607       601       603       606       608
       601       603       606       629       602       601       600       631
       602       601       603       604       602       601       603       605
       602       601       603       606       603       601       600       631
       603       606       608       609       603       606       608       610
       603       606       608       618       603       606       629       626
       603       606       629       630       603       606       629       631
       604       603       606       607       604       603       606       608
       604       603       606       629       605       603       606       607
       605       603       606       608       605       603       606       629
       606       608       610       611       606       608       610       612
       606       608       610       613       606       608       618       616
       606       608       618       619       606       608       618       623
       606       629       626       623       606       629       626       627
       606       629       626       628       606       629       631       632
       606       629       631       636       607       606       608       609
       607       606       608       610       607       606       608       618
       607       606       629       626       607       606       629       630
       607       606       629       631       608       606       629       626
       608       606       629       630       608       606       629       631
       608       610       613       614       608       610       613       615
       608       610       613       616       608       618       616       613
       608       618       616       617       608       618       616       642
       608       618       619       620       608       618       619       621
       608       618       619       622       608       618       623       624
       608       618       623       625       608       618       623       626
       609       608       606       629       609       608       610       611
       609       608       610       612       609       608       610       613
       609       608       618       616       609       608       618       619
       609       608       618       623       610       608       606       629
       610       608       618       616       610       608       618       619
       610       608       618       623       610       613       616       617
       610       613       616       618       610       613       616       642
       611       610       608       618       611       610       613       614
       611       610       613       615       611       610       613       616
       612       610       608       618       612       610       613       614
       612       610       613       615       612       610       613       616
       613       610       608       618       613       616       618       619
       613       616       618       623       613       616       642       643
       613       616       642       644       613       616       642       648
       614       613       616       617       614       613       616       618
       614       613       616       642       615       613       616       617
       615       613       616       618       615       613       616       642
       616       618       619       620       616       618       619       621
       616       618       619       622       616       618       623       624
       616       618       623       625       616       618       623       626
       616       642       644       645       616       642       644       646
       616       642       644       647       616       642       648       649
       616       642       648       650       616       642       648       651
       617       616       618       619       617       616       618       623
       617       616       642       643       617       616       642       644
       617       616       642       648       618       608       606       629
       618       616       642       643       618       616       642       644
       618       616       642       648       618       623       626       627
       618       623       626       628       618       623       626       629
       619       618       616       642       619       618       623       624
       619       618       623       625       619       618       623       626
       620       619       618       623       621       619       618       623
       622       619       618       623       623       618       616       642
       623       626       629       630       623       626       629       631
       624       623       626       627       624       623       626       628
       624       623       626       629       625       623       626       627
       625       623       626       628       625       623       626       629
       626       629       631       632       626       629       631       636
       627       626       629       630       627       626       629       631
       628       626       629       630       628       626       629       631
       629       631       632       633       629       631       632       634
       629       631       632       635       629       631       636       637
       629       631       636       638       629       631       636       639
       630       629       631       632       630       629       631       636
       631       636       639       640       631       636       639       641
       632       631       636       637       632       631       636       638
       632       631       636       639       633       632       631       636
       634       632       631       636       635       632       631       636
       637       636       639       640       637       636       639       641
       638       636       639       640       638       636       639       641
       642       648       651       652       642       648       651       653
       642       648       651       654       643       642       644       645
       643       642       644       646       643       642       644       647
       643       642       648       649       643       642       648       650
       643       642       648       651       644       642       648       649
       644       642       648       650       644       642       648       651
       645       644       642       648       646       644       642       648
       647       644       642       648       648       651       654       655
       648       651       654       656       648       651       654       657
       649       648       651       652       649       648       651       653
       649       648       651       654       650       648       651       652
       650       648       651       653       650       648       651       654
       651       654       657       658       651       654       657       659
       651       654       657       663       652       651       654       655
       652       651       654       656       652       651       654       657
       653       651       654       655       653       651       654       656
       653       651       654       657       654       657       659       660
       654       657       659       661       654       657       659       662
       654       657       663       664       654       657       663       665
       654       657       663       666       655       654       657       658
       655       654       657       659       655       654       657       663
       656       654       657       658       656       654       657       659
       656       654       657       663       658       657       659       660
       658       657       659       661       658       657       659       662
       658       657       663       664       658       657       663       665
       658       657       663       666       659       657       663       664
       659       657       663       665       659       657       663       666
       660       659       657       663       661       659       657       663
       662       659       657       663       667       671       674       675
       667       671       674       705       667       713       710       705
       667       713       710       711       667       713       710       712
       668       667       669       670       668       667       671       672
       668       667       671       673       668       667       671       674
       668       667       713       710       668       667       713       714
       668       667       713       715       669       667       671       672
       669       667       671       673       669       667       671       674
       669       667       713       710       669       667       713       714
       669       667       713       715       670       669       667       671
       670       669       667       713       671       667       713       710
       671       667       713       714       671       667       713       715
       671       674       675       676       671       674       675       677
       671       674       705       703       671       674       705       706
       671       674       705       710       672       671       667       713
       672       671       674       675       672       671       674       705
       673       671       667       713       673       671       674       675
       673       671       674       705       674       671       667       713
       674       675       677       678       674       675       677       679
       674       675       677       680       674       705       703       680
       674       705       703       700       674       705       703       704
       674       705       706       707       674       705       706       708
       674       705       706       709       674       705       710       711
       674       705       710       712       674       705       710       713
       675       674       705       703       675       674       705       706
       675       674       705       710       675       677       680       681
       675       677       680       682       675       677       680       703
       676       675       674       705       676       675       677       678
       676       675       677       679       676       675       677       680
       677       675       674       705       677       680       682       683
       677       680       682       684       677       680       682       692
       677       680       703       700       677       680       703       704
       677       680       703       705       678       677       680       681
       678       677       680       682       678       677       680       703
       679       677       680       681       679       677       680       682
       679       677       680       703       680       682       684       685
       680       682       684       686       680       682       684       687
       680       682       692       690       680       682       692       693
       680       682       692       697       680       703       700       697
       680       703       700       701       680       703       700       702
       680       703       705       706       680       703       705       710
       681       680       682       683       681       680       682       684
       681       680       682       692       681       680       703       700
       681       680       703       704       681       680       703       705
       682       680       703       700       682       680       703       704
       682       680       703       705       682       684       687       688
       682       684       687       689       682       684       687       690
       682       692       690       687       682       692       690       691
       682       692       690       716       682       692       693       694
       682       692       693       695       682       692       693       696
       682       692       697       698       682       692       697       699
       682       692       697       700       683       682       680       703
       683       682       684       685       683       682       684       686
       683       682       684       687       683       682       692       690
       683       682       692       693       683       682       692       697
       684       682       680       703       684       682       692       690
       684       682       692       693       684       682       692       697
       684       687       690       691       684       687       690       692
       684       687       690       716       685       684       682       692
       685       684       687       688       685       684       687       689
       685       684       687       690       686       684       682       692
       686       684       687       688       686       684       687       689
       686       684       687       690       687       684       682       692
       687       690       692       693       687       690       692       697
       687       690       716       717       687       690       716       718
       687       690       716       722       688       687       690       691
       688       687       690       692       688       687       690       716
       689       687       690       691       689       687       690       692
       689       687       690       716       690       692       693       694
       690       692       693       695       690       692       693       696
       690       692       697       698       690       692       697       699
       690       692       697       700       690       716       718       719
       690       716       718       720       690       716       718       721
       690       716       722       723       690       716       722       724
       690       716       722       725       691       690       692       693
       691       690       692       697       691       690       716       717
       691       690       716       718       691       690       716       722
       692       682       680       703       692       690       716       717
       692       690       716       718       692       690       716       722
       692       697       700       701       692       697       700       702
       692       697       700       703       693       692       690       716
       693       692       697       698       693       692       697       699
       693       692       697       700       694       693       692       697
       695       693       692       697       696       693       692       697
       697       692       690       716       697       700       703       704
       697       700       703       705       698       697       700       701
       698       697       700       702       698       697       700       703
       699       697       700       701       699       697       700       702
       699       697       700       703       700       703       705       706
       700       703       705       710       701       700       703       704
       701       700       703       705       702       700       703       704
       702       700       703       705       703       705       706       707
       703       705       706       708       703       705       706       709
       703       705       710       711       703       705       710       712
       703       705       710       713       704       703       705       706
       704       703       705       710       705       710       713       714
       705       710       713       715       706       705       710       711
       706       705       710       712       706       705       710       713
       707       706       705       710       708       706       705       710
       709       706       705       710       711       710       713       714
       711       710       713       715       712       710       713       714
       712       710       713       715       716       722       725       726
       716       722       725       727       716       722       725       728
       717       716       718       719       717       716       718       720
       717       716       718       721       717       716       722       723
       717       716       722       724       717       716       722       725
       718       716       722       723       718       716       722       724
       718       716       722       725       719       718       716       722
       720       718       716       722       721       718       716       722
       722       725       728       729       722       725       728       730
       722       725       728       731       723       722       725       726
       723       722       725       727       723       722       725       728
       724       722       725       726       724       722       725       727
       724       722       725       728       725       728       731       732
       725       728       731       733       725       728       731       737
       726       725       728       729       726       725       728       730
       726       725       728       731       727       725       728       729
       727       725       728       730       727       725       728       731
       728       731       733       734       728       731       733       735
       728       731       733       736       728       731       737       738
       728       731       737       739       728       731       737       740
       729       728       731       732       729       728       731       733
       729       728       731       737       730       728       731       732
       730       728       731       733       730       728       731       737
       732       731       733       734       732       731       733       735
       732       731       733       736       732       731       737       738
       732       731       737       739       732       731       737       740
       733       731       737       738       733       731       737       739
       733       731       737       740       734       733       731       737
       735       733       731       737       736       733       731       737
       741       745       748       749       741       745       748       779
       741       787       784       779       741       787       784       785
       741       787       784       786       742       741       743       744
       742       741       745       746       742       741       745       747
       742       741       745       748       742       741       787       784
       742       741       787       788       742       741       787       789
       743       741       745       746       743       741       745       747
       743       741       745       748       743       741       787       784
       743       741       787       788       743       741       787       789
       744       743       741       745       744       743       741       787
       745       741       787       784       745       741       787       788
       745       741       787       789       745       748       749       750
       745       748       749       751       745       748       779       777
       745       748       779       780       745       748       779       784
       746       745       741       787       746       745       748       749
       746       745       748       779       747       745       741       787
       747       745       748       749       747       745       748       779
       748       745       741       787       748       749       751       752
       748       749       751       753       748       749       751       754
       748       779       777       754       748       779       777       774
       748       779       777       778       748       779       780       781
       748       779       780       782       748       779       780       783
       748       779       784       785       748       779       784       786
       748       779       784       787       749       748       779       777
       749       748       779       780       749       748       779       784
       749       751       754       755       749       751       754       756
       749       751       754       777       750       749       748       779
       750       749       751       752       750       749       751       753
       750       749       751       754       751       749       748       779
       751       754       756       757       751       754       756       758
       751       754       756       766       751       754       777       774
       751       754       777       778       751       754       777       779
       752       751       754       755       752       751       754       756
       752       751       754       777       753       751       754       755
       753       751       754       756       753       751       754       777
       754       756       758       759       754       756       758       760
       754       756       758       761       754       756       766       764
       754       756       766       767       754       756       766       771
       754       777       774       771       754       777       774       775
       754       777       774       776       754       777       779       780
       754       777       779       784       755       754       756       757
       755       754       756       758       755       754       756       766
       755       754       777       774       755       754       777       778
       755       754       777       779       756       754       777       774
       756       754       777       778       756       754       777       779
       756       758       761       762       756       758       761       763
       756       758       761       764       756       766       764       761
       756       766       764       765       756       766       764       790
       756       766       767       768       756       766       767       769
       756       766       767       770       756       766       771       772
       756       766       771       773       756       766       771       774
       757       756       754       777       757       756       758       759
       757       756       758       760       757       756       758       761
       757       756       766       764       757       756       766       767
       757       756       766       771       758       756       754       777
       758       756       766       764       758       756       766       767
       758       756       766       771       758       761       764       765
       758       761       764       766       758       761       764       790
       759       758       756       766       759       758       761       762
       759       758       761       763       759       758       761       764
       760       758       756       766       760       758       761       762
       760       758       761       763       760       758       761       764
       761       758       756       766       761       764       766       767
       761       764       766       771       761       764       790       791
       761       764       790       792       761       764       790       796
       762       761       764       765       762       761       764       766
       762       761       764       790       763       761       764       765
       763       761       764       766       763       761       764       790
       764       766       767       768       764       766       767       769
       764       766       767       770       764       766       771       772
       764       766       771       773       764       766       771       774
       764       790       792       793       764       790       792       794
       764       790       792       795       764       790       796       797
       764       790       796       798       764       790       796       799
       765       764       766       767       765       764       766       771
       765       764       790       791       765       764       790       792
       765       764       790       796       766       756       754       777
       766       764       790       791       766       764       790       792
       766       764       790       796       766       771       774       775
       766       771       774       776       766       771       774       777
       767       766       764       790       767       766       771       772
       767       766       771       773       767       766       771       774
       768       767       766       771       769       767       766       771
       770       767       766       771       771       766       764       790
       771       774       777       778       771       774       777       779
       772       771       774       775       772       771       774       776
       772       771       774       777       773       771       774       775
       773       771       774       776       773       771       774       777
       774       777       779       780       774       777       779       784
       775       774       777       778       775       774       777       779
       776       774       777       778       776       774       777       779
       777       779       780       781       777       779       780       782
       777       779       780       783       777       779       784       785
       777       779       784       786       777       779       784       787
       778       777       779       780       778       777       779       784
       779       784       787       788       779       784       787       789
       780       779       784       785       780       779       784       786
       780       779       784       787       781       780       779       784
       782       780       779       784       783       780       779       784
       785       784       787       788       785       784       787       789
       786       784       787       788       786       784       787       789
       790       796       799       800       790       796       799       801
       790       796       799       802       791       790       792       793
       791       790       792       794       791       790       792       795
       791       790       796       797       791       790       796       798
       791       790       796       799       792       790       796       797
       792       790       796       798       792       790       796       799
       793       792       790       796       794       792       790       796
       795       792       790       796       796       799       802       803
       796       799       802       804       796       799       802       805
       797       796       799       800       797       796       799       801
       797       796       799       802       798       796       799       800
       798       796       799       801       798       796       799       802
       799       802       805       806       799       802       805       807
       799       802       805       811       800       799       802       803
       800       799       802       804       800       799       802       805
       801       799       802       803       801       799       802       804
       801       799       802       805       802       805       807       808
       802       805       807       809       802       805       807       810
       802       805       811       812       802       805       811       813
       802       805       811       814       803       802       805       806
       803       802       805       807       803       802       805       811
       804       802       805       806       804       802       805       807
       804       802       805       811       806       805       807       808
       806       805       807       809       806       805       807       810
       806       805       811       812       806       805       811       813
       806       805       811       814       807       805       811       812
       807       805       811       813       807       805       811       814
       808       807       805       811       809       807       805       811
       810       807       805       811       815       819       822       823
       815       819       822       853       815       861       858       853
       815       861       858       859       815       861       858       860
       816       815       817       818       816       815       819       820
       816       815       819       821       816       815       819       822
       816       815       861       858       816       815       861       862
       816       815       861       863       817       815       819       820
       817       815       819       821       817       815       819       822
       817       815       861       858       817       815       861       862
       817       815       861       863       818       817       815       819
       818       817       815       861       819       815       861       858
       819       815       861       862       819       815       861       863
       819       822       823       824       819       822       823       825
       819       822       853       851       819       822       853       854
       819       822       853       858       820       819       815       861
       820       819       822       823       820       819       822       853
       821       819       815       861       821       819       822       823
       821       819       822       853       822       819       815       861
       822       823       825       826       822       823       825       827
       822       823       825       828       822       853       851       828
       822       853       851       848       822       853       851       852
       822       853       854       855       822       853       854       856
       822       853       854       857       822       853       858       859
       822       853       858       860       822       853       858       861
       823       822       853       851       823       822       853       854
       823       822       853       858       823       825       828       829
       823       825       828       830       823       825       828       851
       824       823       822       853       824       823       825       826
       824       823       825       827       824       823       825       828
       825       823       822       853       825       828       830       831
       825       828       830       832       825       828       830       840
       825       828       851       848       825       828       851       852
       825       828       851       853       826       825       828       829
       826       825       828       830       826       825       828       851
       827       825       828       829       827       825       828       830
       827       825       828       851       828       830       832       833
       828       830       832       834       828       830       832       835
       828       830       840       838       828       830       840       841
       828       830       840       845       828       851       848       845
       828       851       848       849       828       851       848       850
       828       851       853       854       828       851       853       858
       829       828       830       831       829       828       830       832
       829       828       830       840       829       828       851       848
       829       828       851       852       829       828       851       853
       830       828       851       848       830       828       851       852
       830       828       851       853       830       832       835       836
       830       832       835       837       830       832       835       838
       830       840       838       835       830       840       838       839
       830       840       838       864       830       840       841       842
       830       840       841       843       830       840       841       844
       830       840       845       846       830       840       845       847
       830       840       845       848       831       830       828       851
       831       830       832       833       831       830       832       834
       831       830       832       835       831       830       840       838
       831       830       840       841       831       830       840       845
       832       830       828       851       832       830       840       838
       832       830       840       841       832       830       840       845
       832       835       838       839       832       835       838       840
       832       835       838       864       833       832       830       840
       833       832       835       836       833       832       835       837
       833       832       835       838       834       832       830       840
       834       832       835       836       834       832       835       837
       834       832       835       838       835       832       830       840
       835       838       840       841       835       838       840       845
       835       838       864       865       835       838       864       866
       835       838       864       870       836       835       838       839
       836       835       838       840       836       835       838       864
       837       835       838       839       837       835       838       840
       837       835       838       864       838       840       841       842
       838       840       841       843       838       840       841       844
       838       840       845       846       838       840       845       847
       838       840       845       848       838       864       866       867
       838       864       866       868       838       864       866       869
       838       864       870       871       838       864       870       872
       838       864       870       873       839       838       840       841
       839       838       840       845       839       838       864       865
       839       838       864       866       839       838       864       870
       840       830       828       851       840       838       864       865
       840       838       864       866       840       838       864       870
       840       845       848       849       840       845       848       850
       840       845       848       851       841       840       838       864
       841       840       845       846       841       840       845       847
       841       840       845       848       842       841       840       845
       843       841       840       845       844       841       840       845
       845       840       838       864       845       848       851       852
       845       848       851       853       846       845       848       849
       846       845       848       850       846       845       848       851
       847       845       848       849       847       845       848       850
       847       845       848       851       848       851       853       854
       848       851       853       858       849       848       851       852
       849       848       851       853       850       848       851       852
       850       848       851       853       851       853       854       855
       851       853       854       856       851       853       854       857
       851       853       858       859       851       853       858       860
       851       853       858       861       852       851       853       854
       852       851       853       858       853       858       861       862
       853       858       861       863       854       853       858       859
       854       853       858       860       854       853       858       861
       855       854       853       858       856       854       853       858
       857       854       853       858       859       858       861       862
       859       858       861       863       860       858       861       862
       860       858       861       863       864       870       873       874
       864       870       873       875       864       870       873       876
       865       864       866       867       865       864       866       868
       865       864       866       869       865       864       870       871
       865       864       870       872       865       864       870       873
       866       864       870       871       866       864       870       872
       866       864       870       873       867       866       864       870
       868       866       864       870       869       866       864       870
       870       873       876       877       870       873       876       878
       870       873       876       879       871       870       873       874
       871       870       873       875       871       870       873       876
       872       870       873       874       872       870       873       875
       872       870       873       876       873       876       879       880
       873       876       879       881       873       876       879       885
       874       873       876       877       874       873       876       878
       874       873       876       879       875       873       876       877
       875       873       876       878       875       873       876       879
       876       879       881       882       876       879       881       883
       876       879       881       884       876       879       885       886
       876       879       885       887       876       879       885       888
       877       876       879       880       877       876       879       881
       877       876       879       885       878       876       879       880
       878       876       879       881       878       876       879       885
       880       879       881       882       880       879       881       883
       880       879       881       884       880       879       885       886
       880       879       885       887       880       879       885       888
       881       879       885       886       881       879       885       887
       881       879       885       888       882       881       879       885
       883       881       879       885       884       881       879       885
       889       893       896       897       889       893       896       927
       889       935       932       927       889       935       932       933
       889       935       932       934       890       889       891       892
       890       889       893       894       890       889       893       895
       890       889       893       896       890       889       935       932
       890       889       935       936       890       889       935       937
       891       889       893       894       891       889       893       895
       891       889       893       896       891       889       935       932
       891       889       935       936       891       889       935       937
       892       891       889       893       892       891       889       935
       893       889       935       932       893       889       935       936
       893       889       935       937       893       896       897       898
       893       896       897       899       893       896       927       925
       893       896       927       928       893       896       927       932
       894       893       889       935       894       893       896       897
       894       893       896       927       895       893       889       935
       895       893       896       897       895       893       896       927
       896       893       889       935       896       897       899       900
       896       897       899       901       896       897       899       902
       896       927       925       902       896       927       925       922
       896       927       925       926       896       927       928       929
       896       927       928       930       896       927       928       931
       896       927       932       933       896       927       932       934
       896       927       932       935       897       896       927       925
       897       896       927       928       897       896       927       932
       897       899       902       903       897       899       902       904
       897       899       902       925       898       897       896       927
       898       897       899       900       898       897       899       901
       898       897       899       902       899       897       896       927
       899       902       904       905       899       902       904       906
       899       902       904       914       899       902       925       922
       899       902       925       926       899       902       925       927
       900       899       902       903       900       899       902       904
       900       899       902       925       901       899       902       903
       901       899       902       904       901       899       902       925
       902       904       906       907       902       904       906       908
       902       904       906       909       902       904       914       912
       902       904       914       915       902       904       914       919
       902       925       922       919       902       925       922       923
       902       925       922       924       902       925       927       928
       902       925       927       932       903       902       904       905
       903       902       904       906       903       902       904       914
       903       902       925       922       903       902       925       926
       903       902       925       927       904       902       925       922
       904       902       925       926       904       902       925       927
       904       906       909       910       904       906       909       911
       904       906       909       912       904       914       912       909
       904       914       912       913       904       914       912       938
       904       914       915       916       904       914       915       917
       904       914       915       918       904       914       919       920
       904       914       919       921       904       914       919       922
       905       904       902       925       905       904       906       907
       905       904       906       908       905       904       906       909
       905       904       914       912       905       904       914       915
       905       904       914       919       906       904       902       925
       906       904       914       912       906       904       914       915
       906       904       914       919       906       909       912       913
       906       909       912       914       906       909       912       938
       907       906       904       914       907       906       909       910
       907       906       909       911       907       906       909       912
       908       906       904       914       908       906       909       910
       908       906       909       911       908       906       909       912
       909       906       904       914       909       912       914       915
       909       912       914       919       909       912       938       939
       909       912       938       940       909       912       938       944
       910       909       912       913       910       909       912       914
       910       909       912       938       911       909       912       913
       911       909       912       914       911       909       912       938
       912       914       915       916       912       914       915       917
       912       914       915       918       912       914       919       920
       912       914       919       921       912       914       919       922
       912       938       940       941       912       938       940       942
       912       938       940       943       912       938       944       945
       912       938       944       946       912       938       944       947
       913       912       914       915       913       912       914       919
       913       912       938       939       913       912       938       940
       913       912       938       944       914       904       902       925
       914       912       938       939       914       912       938       940
       914       912       938       944       914       919       922       923
       914       919       922       924       914       919       922       925
       915       914       912       938       915       914       919       920
       915       914       919       921       915       914       919       922
       916       915       914       919       917       915       914       919
       918       915       914       919       919       914       912       938
       919       922       925       926       919       922       925       927
       920       919       922       923       920       919       922       924
       920       919       922       925       921       919       922       923
       921       919       922       924       921       919       922       925
       922       925       927       928       922       925       927       932
       923       922       925       926       923       922       925       927
       924       922       925       926       924       922       925       927
       925       927       928       929       925       927       928       930
       925       927       928       931       925       927       932       933
       925       927       932       934       925       927       932       935
       926       925       927       928       926       925       927       932
       927       932       935       936       927       932       935       937
       928       927       932       933       928       927       932       934
       928       927       932       935       929       928       927       932
       930       928       927       932       931       928       927       932
       933       932       935       936       933       932       935       937
       934       932       935       936       934       932       935       937
       938       944       947       948       938       944       947       949
       938       944       947       950       939       938       940       941
       939       938       940       942       939       938       940       943
       939       938       944       945       939       938       944       946
       939       938       944       947       940       938       944       945
       940       938       944       946       940       938       944       947
       941       940       938       944       942       940       938       944
       943       940       938       944       944       947       950       951
       944       947       950       952       944       947       950       953
       945       944       947       948       945       944       947       949
       945       944       947       950       946       944       947       948
       946       944       947       949       946       944       947       950
       947       950       953       954       947       950       953       955
       947       950       953       959       948       947       950       951
       948       947       950       952       948       947       950       953
       949       947       950       951       949       947       950       952
       949       947       950       953       950       953       955       956
       950       953       955       957       950       953       955       958
       950       953       959       960       950       953       959       961
       950       953       959       962       951       950       953       954
       951       950       953       955       951       950       953       959
       952       950       953       954       952       950       953       955
       952       950       953       959       954       953       955       956
       954       953       955       957       954       953       955       958
       954       953       959       960       954       953       959       961
       954       953       959       962       955       953       959       960
       955       953       959       961       955       953       959       962
       956       955       953       959       957       955       953       959
       958       955       953       959       963       967       970       971
       963       967       970      1001       963      1009      1006      1001
       963      1009      1006      1007       963      1009      1006      1008
       964       963       965       966       964       963       967       968
       964       963       967       969       964       963       967       970
       964       963      1009      1006       964       963      1009      1010
       964       963      1009      1011       965       963       967       968
       965       963       967       969       965       963       967       970
       965       963      1009      1006       965       963      1009      1010
       965       963      1009      1011       966       965       963       967
       966       965       963      1009       967       963      1009      1006
       967       963      1009      1010       967       963      1009      1011
       967       970       971       972       967       970       971       973
       967       970      1001       999       967       970      1001      1002
       967       970      1001      1006       968       967       963      1009
       968       967       970       971       968       967       970      1001
       969       967       963      1009       969       967       970       971
       969       967       970      1001       970       967       963      1009
       970       971       973       974       970       971       973       975
       970       971       973       976       970      1001       999       976
       970      1001       999       996       970      1001       999      1000
       970      1001      1002      1003       970      1001      1002      1004
       970      1001      1002      1005       970      1001      1006      1007
       970      1001      1006      1008       970      1001      1006      1009
       971       970      1001       999       971       970      1001      1002
       971       970      1001      1006       971       973       976       977
       971       973       976       978       971       973       976       999
       972       971       970      1001       972       971       973       974
       972       971       973       975       972       971       973       976
       973       971       970      1001       973       976       978       979
       973       976       978       980       973       976       978       988
       973       976       999       996       973       976       999      1000
       973       976       999      1001       974       973       976       977
       974       973       976       978       974       973       976       999
       975       973       976       977       975       973       976       978
       975       973       976       999       976       978       980       981
       976       978       980       982       976       978       980       983
       976       978       988       986       976       978       988       989
       976       978       988       993       976       999       996       993
       976       999       996       997       976       999       996       998
       976       999      1001      1002       976       999      1001      1006
       977       976       978       979       977       976       978       980
       977       976       978       988       977       976       999       996
       977       976       999      1000       977       976       999      1001
       978       976       999       996       978       976       999      1000
       978       976       999      1001       978       980       983       984
       978       980       983       985       978       980       983       986
       978       988       986       983       978       988       986       987
       978       988       986      1012       978       988       989       990
       978       988       989       991       978       988       989       992
       978       988       993       994       978       988       993       995
       978       988       993       996       979       978       976       999
       979       978       980       981       979       978       980       982
       979       978       980       983       979       978       988       986
       979       978       988       989       979       978       988       993
       980       978       976       999       980       978       988       986
       980       978       988       989       980       978       988       993
       980       983       986       987       980       983       986       988
       980       983       986      1012       981       980       978       988
       981       980       983       984       981       980       983       985
       981       980       983       986       982       980       978       988
       982       980       983       984       982       980       983       985
       982       980       983       986       983       980       978       988
       983       986       988       989       983       986       988       993
       983       986      1012      1013       983       986      1012      1014
       983       986      1012      1018       984       983       986       987
       984       983       986       988       984       983       986      1012
       985       983       986       987       985       983       986       988
       985       983       986      1012       986       988       989       990
       986       988       989       991       986       988       989       992
       986       988       993       994       986       988       993       995
       986       988       993       996       986      1012      1014      1015
       986      1012      1014      1016       986      1012      1014      1017
       986      1012      1018      1019       986      1012      1018      1020
       986      1012      1018      1021       987       986       988       989
       987       986       988       993       987       986      1012      1013
       987       986      1012      1014       987       986      1012      1018
       988       978       976       999       988       986      1012      1013
       988       986      1012      1014       988       986      1012      1018
       988       993       996       997       988       993       996       998
       988       993       996       999       989       988       986      1012
       989       988       993       994       989       988       993       995
       989       988       993       996       990       989       988       993
       991       989       988       993       992       989       988       993
       993       988       986      1012       993       996       999      1000
       993       996       999      1001       994       993       996       997
       994       993       996       998       994       993       996       999
       995       993       996       997       995       993       996       998
       995       993       996       999       996       999      1001      1002
       996       999      1001      1006       997       996       999      1000
       997       996       999      1001       998       996       999      1000
       998       996       999      1001       999      1001      1002      1003
       999      1001      1002      1004       999      1001      1002      1005
       999      1001      1006      1007       999      1001      1006      1008
       999      1001      1006      1009      1000       999      1001      1002
      1000       999      1001      1006      1001      1006      1009      1010
      1001      1006      1009      1011      1002      1001      1006      1007
      1002      1001      1006      1008      1002      1001      1006      1009
      1003      1002      1001      1006      1004      1002      1001      1006
      1005      1002      1001      1006      1007      1006      1009      1010
      1007      1006      1009      1011      1008      1006      1009      1010
      1008      1006      1009      1011      1012      1018      1021      1022
      1012      1018      1021      1023      1012      1018      1021      1024
      1013      1012      1014      1015      1013      1012      1014      1016
      1013      1012      1014      1017      1013      1012      1018      1019
      1013      1012      1018      1020      1013      1012      1018      1021
      1014      1012      1018      1019      1014      1012      1018      1020
      1014      1012      1018      1021      1015      1014      1012      1018
      1016      1014      1012      1018      1017      1014      1012      1018
      1018      1021      1024      1025      1018      1021      1024      1026
      1018      1021      1024      1027      1019      1018      1021      1022
      1019      1018      1021      1023      1019      1018      1021      1024
      1020      1018      1021      1022      1020      1018      1021      1023
      1020      1018      1021      1024      1021      1024      1027      1028
      1021      1024      1027      1029      1021      1024      1027      1033
      1022      1021      1024      1025      1022      1021      1024      1026
      1022      1021      1024      1027      1023      1021      1024      1025
      1023      1021      1024      1026      1023      1021      1024      1027
      1024      1027      1029      1030      1024      1027      1029      1031
      1024      1027      1029      1032      1024      1027      1033      1034
      1024      1027      1033      1035      1024      1027      1033      1036
      1025      1024      1027      1028      1025      1024      1027      1029
      1025      1024      1027      1033      1026      1024      1027      1028
      1026      1024      1027      1029      1026      1024      1027      1033
      1028      1027      1029      1030      1028      1027      1029      1031
      1028      1027      1029      1032      1028      1027      1033      1034
      1028      1027      1033      1035      1028      1027      1033      1036
      1029      1027      1033      1034      1029      1027      1033      1035
      1029      1027      1033      1036      1030      1029      1027      1033
      1031      1029      1027      1033      1032      1029      1027      1033
      1037      1041      1044      1045      1037      1041      1044      1075
      1037      1083      1080      1075      1037      1083      1080      1081
      1037      1083      1080      1082      1038      1037      1039      1040
      1038      1037      1041      1042      1038      1037      1041      1043
      1038      1037      1041      1044      1038      1037      1083      1080
      1038      1037      1083      1084      1038      1037      1083      1085
      1039      1037      1041      1042      1039      1037      1041      1043
      1039      1037      1041      1044      1039      1037      1083      1080
      1039      1037      1083      1084      1039      1037      1083      1085
      1040      1039      1037      1041      1040      1039      1037      1083
      1041      1037      1083      1080      1041      1037      1083      1084
      1041      1037      1083      1085      1041      1044      1045      1046
      1041      1044      1045      1047      1041      1044      1075      1073
      1041      1044      1075      1076      1041      1044      1075      1080
      1042      1041      1037      1083      1042      1041      1044      1045
      1042      1041      1044      1075      1043      1041      1037      1083
      1043      1041      1044      1045      1043      1041      1044      1075
      1044      1041      1037      1083      1044      1045      1047      1048
      1044      1045      1047      1049      1044      1045      1047      1050
      1044      1075      1073      1050      1044      1075      1073      1070
      1044      1075      1073      1074      1044      1075      1076      1077
      1044      1075      1076      1078      1044      1075      1076      1079
      1044      1075      1080      1081      1044      1075      1080      1082
      1044      1075      1080      1083      1045      1044      1075      1073
      1045      1044      1075      1076      1045      1044      1075      1080
      1045      1047      1050      1051      1045      1047      1050      1052
      1045      1047      1050      1073      1046      1045      1044      1075
      1046      1045      1047      1048      1046      1045      1047      1049
      1046      1045      1047      1050      1047      1045      1044      1075
      1047      1050      1052      1053      1047      1050      1052      1054
      1047      1050      1052      1062      1047      1050      1073      1070
      1047      1050      1073      1074      1047      1050      1073      1075
      1048      1047      1050      1051      1048      1047      1050      1052
      1048      1047      1050      1073      1049      1047      1050      1051
      1049      1047      1050      1052      1049      1047      1050      1073
      1050      1052      1054      1055      1050      1052      1054      1056
      1050      1052      1054      1057      1050      1052      1062      1060
      1050      1052      1062      1063      1050      1052      1062      1067
      1050      1073      1070      1067      1050      1073      1070      1071
      1050      1073      1070      1072      1050      1073      1075      1076
      1050      1073      1075      1080      1051      1050      1052      1053
      1051      1050      1052      1054      1051      1050      1052      1062
      1051      1050      1073      1070      1051      1050      1073      1074
      1051      1050      1073      1075      1052      1050      1073      1070
      1052      1050      1073      1074      1052      1050      1073      1075
      1052      1054      1057      1058      1052      1054      1057      1059
      1052      1054      1057      1060      1052      1062      1060      1057
      1052      1062      1060      1061      1052      1062      1060      1086
      1052      1062      1063      1064      1052      1062      1063      1065
      1052      1062      1063      1066      1052      1062      1067      1068
      1052      1062      1067      1069      1052      1062      1067      1070
      1053      1052      1050      1073      1053      1052      1054      1055
      1053      1052      1054      1056      1053      1052      1054      1057
      1053      1052      1062      1060      1053      1052      1062      1063
      1053      1052      1062      1067      1054      1052      1050      1073
      1054      1052      1062      1060      1054      1052      1062      1063
      1054      1052      1062      1067      1054      1057      1060      1061
      1054      1057      1060      1062      1054      1057      1060      1086
      1055      1054      1052      1062      1055      1054      1057      1058
      1055      1054      1057      1059      1055      1054      1057      1060
      1056      1054      1052      1062      1056      1054      1057      1058
      1056      1054      1057      1059      1056      1054      1057      1060
      1057      1054      1052      1062      1057      1060      1062      1063
      1057      1060      1062      1067      1057      1060      1086      1087
      1057      1060      1086      1088      1057      1060      1086      1092
      1058      1057      1060      1061      1058      1057      1060      1062
      1058      1057      1060      1086      1059      1057      1060      1061
      1059      1057      1060      1062      1059      1057      1060      1086
      1060      1062      1063      1064      1060      1062      1063      1065
      1060      1062      1063      1066      1060      1062      1067      1068
      1060      1062      1067      1069      1060      1062      1067      1070
      1060      1086      1088      1089      1060      1086      1088      1090
      1060      1086      1088      1091      1060      1086      1092      1093
      1060      1086      1092      1094      1060      1086      1092      1095
      1061      1060      1062      1063      1061      1060      1062      1067
      1061      1060      1086      1087      1061      1060      1086      1088
      1061      1060      1086      1092      1062      1052      1050      1073
      1062      1060      1086      1087      1062      1060      1086      1088
      1062      1060      1086      1092      1062      1067      1070      1071
      1062      1067      1070      1072      1062      1067      1070      1073
      1063      1062      1060      1086      1063      1062      1067      1068
      1063      1062      1067      1069      1063      1062      1067      1070
      1064      1063      1062      1067      1065      1063      1062      1067
      1066      1063      1062      1067      1067      1062      1060      1086
      1067      1070      1073      1074      1067      1070      1073      1075
      1068      1067      1070      1071      1068      1067      1070      1072
      1068      1067      1070      1073      1069      1067      1070      1071
      1069      1067      1070      1072      1069      1067      1070      1073
      1070      1073      1075      1076      1070      1073      1075      1080
      1071      1070      1073      1074      1071      1070      1073      1075
      1072      1070      1073      1074      1072      1070      1073      1075
      1073      1075      1076      1077      1073      1075      1076      1078
      1073      1075      1076      1079      1073      1075      1080      1081
      1073      1075      1080      1082      1073      1075      1080      1083
      1074      1073      1075      1076      1074      1073      1075      1080
      1075      1080      1083      1084      1075      1080      1083      1085
      1076      1075      1080      1081      1076      1075      1080      1082
      1076      1075      1080      1083      1077      1076      1075      1080
      1078      1076      1075      1080      1079      1076      1075      1080
      1081      1080      1083      1084      1081      1080      1083      1085
      1082      1080      1083      1084      1082      1080      1083      1085
      1086      1092      1095      1096      1086      1092      1095      1097
      1086      1092      1095      1098      1087      1086      1088      1089
      1087      1086      1088      1090      1087      1086      1088      1091
      1087      1086      1092      1093      1087      1086      1092      1094
      1087      1086      1092      1095      1088      1086      1092      1093
      1088      1086      1092      1094      1088      1086      1092      1095
      1089      1088      1086      1092      1090      1088      1086      1092
      1091      1088      1086      1092      1092      1095      1098      1099
      1092      1095      1098      1100      1092      1095      1098      1101
      1093      1092      1095      1096      1093      1092      1095      1097
      1093      1092      1095      1098      1094      1092      1095      1096
      1094      1092      1095      1097      1094      1092      1095      1098
      1095      1098      1101      1102      1095      1098      1101      1103
      1095      1098      1101      1107      1096      1095      1098      1099
      1096      1095      1098      1100      1096      1095      1098      1101
      1097      1095      1098      1099      1097      1095      1098      1100
      1097      1095      1098      1101      1098      1101      1103      1104
      1098      1101      1103      1105      1098      1101      1103      1106
      1098      1101      1107      1108      1098      1101      1107      1109
      1098      1101      1107      1110      1099      1098      1101      1102
      1099      1098      1101      1103      1099      1098      1101      1107
      1100      1098      1101      1102      1100      1098      1101      1103
      1100      1098      1101      1107      1102      1101      1103      1104
      1102      1101      1103      1105      1102      1101      1103      1106
      1102      1101      1107      1108      1102      1101      1107      1109
      1102      1101      1107      1110      1103      1101      1107      1108
      1103      1101      1107      1109      1103      1101      1107      1110
      1104      1103      1101      1107      1105      1103      1101      1107
      1106      1103      1101      1107      1111      1115      1118      1119
      1111      1115      1118      1149      1111      1157      1154      1149
      1111      1157      1154      1155      1111      1157      1154      1156
      1112      1111      1113      1114      1112      1111      1115      1116
      1112      1111      1115      1117      1112      1111      1115      1118
      1112      1111      1157      1154      1112      1111      1157      1158
      1112      1111      1157      1159      1113      1111      1115      1116
      1113      1111      1115      1117      1113      1111      1115      1118
      1113      1111      1157      1154      1113      1111      1157      1158
      1113      1111      1157      1159      1114      1113      1111      1115
      1114      1113      1111      1157      1115      1111      1157      1154
      1115      1111      1157      1158      1115      1111      1157      1159
      1115      1118      1119      1120      1115      1118      1119      1121
      1115      1118      1149      1147      1115      1118      1149      1150
      1115      1118      1149      1154      1116      1115      1111      1157
      1116      1115      1118      1119      1116      1115      1118      1149
      1117      1115      1111      1157      1117      1115      1118      1119
      1117      1115      1118      1149      1118      1115      1111      1157
      1118      1119      1121      1122      1118      1119      1121      1123
      1118      1119      1121      1124      1118      1149      1147      1124
      1118      1149      1147      1144      1118      1149      1147      1148
      1118      1149      1150      1151      1118      1149      1150      1152
      1118      1149      1150      1153      1118      1149      1154      1155
      1118      1149      1154      1156      1118      1149      1154      1157
      1119      1118      1149      1147      1119      1118      1149      1150
      1119      1118      1149      1154      1119      1121      1124      1125
      1119      1121      1124      1126      1119      1121      1124      1147
      1120      1119      1118      1149      1120      1119      1121      1122
      1120      1119      1121      1123      1120      1119      1121      1124
      1121      1119      1118      1149      1121      1124      1126      1127
      1121      1124      1126      1128      1121      1124      1126      1136
      1121      1124      1147      1144      1121      1124      1147      1148
      1121      1124      1147      1149      1122      1121      1124      1125
      1122      1121      1124      1126      1122      1121      1124      1147
      1123      1121      1124      1125      1123      1121      1124      1126
      1123      1121      1124      1147      1124      1126      1128      1129
      1124      1126      1128      1130      1124      1126      1128      1131
      1124      1126      1136      1134      1124      1126      1136      1137
      1124      1126      1136      1141      1124      1147      1144      1141
      1124      1147      1144      1145      1124      1147      1144      1146
      1124      1147      1149      1150      1124      1147      1149      1154
      1125      1124      1126      1127      1125      1124      1126      1128
      1125      1124      1126      1136      1125      1124      1147      1144
      1125      1124      1147      1148      1125      1124      1147      1149
      1126      1124      1147      1144      1126      1124      1147      1148
      1126      1124      1147      1149      1126      1128      1131      1132
      1126      1128      1131      1133      1126      1128      1131      1134
      1126      1136      1134      1131      1126      1136      1134      1135
      1126      1136      1134      1160      1126      1136      1137      1138
      1126      1136      1137      1139      1126      1136      1137      1140
      1126      1136      1141      1142      1126      1136      1141      1143
      1126      1136      1141      1144      1127      1126      1124      1147
      1127      1126      1128      1129      1127      1126      1128      1130
      1127      1126      1128      1131      1127      1126      1136      1134
      1127      1126      1136      1137      1127      1126      1136      1141
      1128      1126      1124      1147      1128      1126      1136      1134
      1128      1126      1136      1137      1128      1126      1136      1141
      1128      1131      1134      1135      1128      1131      1134      1136
      1128      1131      1134      1160      1129      1128      1126      1136
      1129      1128      1131      1132      1129      1128      1131      1133
      1129      1128      1131      1134      1130      1128      1126      1136
      1130      1128      1131      1132      1130      1128      1131      1133
      1130      1128      1131      1134      1131      1128      1126      1136
      1131      1134      1136      1137      1131      1134      1136      1141
      1131      1134      1160      1161      1131      1134      1160      1162
      1131      1134      1160      1166      1132      1131      1134      1135
      1132      1131      1134      1136      1132      1131      1134      1160
      1133      1131      1134      1135      1133      1131      1134      1136
      1133      1131      1134      1160      1134      1136      1137      1138
      1134      1136      1137      1139      1134      1136      1137      1140
      1134      1136      1141      1142      1134      1136      1141      1143
      1134      1136      1141      1144      1134      1160      1162      1163
      1134      1160      1162      1164      1134      1160      1162      1165
      1134      1160      1166      1167      1134      1160      1166      1168
      1134      1160      1166      1169      1135      1134      1136      1137
      1135      1134      1136      1141      1135      1134      1160      1161
      1135      1134      1160      1162      1135      1134      1160      1166
      1136      1126      1124      1147      1136      1134      1160      1161
      1136      1134      1160      1162      1136      1134      1160      1166
      1136      1141      1144      1145      1136      1141      1144      1146
      1136      1141      1144      1147      1137      1136      1134      1160
      1137      1136      1141      1142      1137      1136      1141      1143
      1137      1136      1141      1144      1138      1137      1136      1141
      1139      1137      1136      1141      1140      1137      1136      1141
      1141      1136      1134      1160      1141      1144      1147      1148
      1141      1144      1147      1149      1142      1141      1144      1145
      1142      1141      1144      1146      1142      1141      1144      1147
      1143      1141      1144      1145      1143      1141      1144      1146
      1143      1141      1144      1147      1144      1147      1149      1150
      1144      1147      1149      1154      1145      1144      1147      1148
      1145      1144      1147      1149      1146      1144      1147      1148
      1146      1144      1147      1149      1147      1149      1150      1151
      1147      1149      1150      1152      1147      1149      1150      1153
      1147      1149      1154      1155      1147      1149      1154      1156
      1147      1149      1154      1157      1148      1147      1149      1150
      1148      1147      1149      1154      1149      1154      1157      1158
      1149      1154      1157      1159      1150      1149      1154      1155
      1150      1149      1154      1156      1150      1149      1154      1157
      1151      1150      1149      1154      1152      1150      1149      1154
      1153      1150      1149      1154      1155      1154      1157      1158
      1155      1154      1157      1159      1156      1154      1157      1158
      1156      1154      1157      1159      1160      1166      1169      1170
      1160      1166      1169      1171      1160      1166      1169      1172
      1161      1160      1162      1163      1161      1160      1162      1164
      1161      1160      1162      1165      1161      1160      1166      1167
      1161      1160      1166      1168      1161      1160      1166      1169
      1162      1160      1166      1167      1162      1160      1166      1168
      1162      1160      1166      1169      1163      1162      1160      1166
      1164      1162      1160      1166      1165      1162      1160      1166
      1166      1169      1172      1173      1166      1169      1172      1174
      1166      1169      1172      1175      1167      1166      1169      1170
      1167      1166      1169      1171      1167      1166      1169      1172
      1168      1166      1169      1170      1168      1166      1169      1171
      1168      1166      1169      1172      1169      1172      1175      1176
      1169      1172      1175      1177      1169      1172      1175      1181
      1170      1169      1172      1173      1170      1169      1172      1174
      1170      1169      1172      1175      1171      1169      1172      1173
      1171      1169      1172      1174      1171      1169      1172      1175
      1172      1175      1177      1178      1172      1175      1177      1179
      1172      1175      1177      1180      1172      1175      1181      1182
      1172      1175      1181      1183      1172      1175      1181      1184
      1173      1172      1175      1176      1173      1172      1175      1177
      1173      1172      1175      1181      1174      1172      1175      1176
      1174      1172      1175      1177      1174      1172      1175      1181
      1176      1175      1177      1178      1176      1175      1177      1179
      1176      1175      1177      1180      1176      1175      1181      1182
      1176      1175      1181      1183      1176      1175      1181      1184
      1177      1175      1181      1182      1177      1175      1181      1183
      1177      1175      1181      1184      1178      1177      1175      1181
      1179      1177      1175      1181      1180      1177      1175      1181
      1185      1189      1192      1193      1185      1189      1192      1223
      1185      1231      1228      1223      1185      1231      1228      1229
      1185      1231      1228      1230      1186      1185      1187      1188
      1186      1185      1189      1190      1186      1185      1189      1191
      1186      1185      1189      1192      1186      1185      1231      1228
      1186      1185      1231      1232      1186      1185      1231      1233
      1187      1185      1189      1190      1187      1185      1189      1191
      1187      1185      1189      1192      1187      1185      1231      1228
      1187      1185      1231      1232      1187      1185      1231      1233
      1188      1187      1185      1189      1188      1187      1185      1231
      1189      1185      1231      1228      1189      1185      1231      1232
      1189      1185      1231      1233      1189      1192      1193      1194
      1189      1192      1193      1195      1189      1192      1223      1221
      1189      1192      1223      1224      1189      1192      1223      1228
      1190      1189      1185      1231      1190      1189      1192      1193
      1190      1189      1192      1223      1191      1189      1185      1231
      1191      1189      1192      1193      1191      1189      1192      1223
      1192      1189      1185      1231      1192      1193      1195      1196
      1192      1193      1195      1197      1192      1193      1195      1198
      1192      1223      1221      1198      1192      1223      1221      1218
      1192      1223      1221      1222      1192      1223      1224      1225
      1192      1223      1224      1226      1192      1223      1224      1227
      1192      1223      1228      1229      1192      1223      1228      1230
      1192      1223      1228      1231      1193      1192      1223      1221
      1193      1192      1223      1224      1193      1192      1223      1228
      1193      1195      1198      1199      1193      1195      1198      1200
      1193      1195      1198      1221      1194      1193      1192      1223
      1194      1193      1195      1196      1194      1193      1195      1197
      1194      1193      1195      1198      1195      1193      1192      1223
      1195      1198      1200      1201      1195      1198      1200      1202
      1195      1198      1200      1210      1195      1198      1221      1218
      1195      1198      1221      1222      1195      1198      1221      1223
      1196      1195      1198      1199      1196      1195      1198      1200
      1196      1195      1198      1221      1197      1195      1198      1199
      1197      1195      1198      1200      1197      1195      1198      1221
      1198      1200      1202      1203      1198      1200      1202      1204
      1198      1200      1202      1205      1198      1200      1210      1208
      1198      1200      1210      1211      1198      1200      1210      1215
      1198      1221      1218      1215      1198      1221      1218      1219
      1198      1221      1218      1220      1198      1221      1223      1224
      1198      1221      1223      1228      1199      1198      1200      1201
      1199      1198      1200      1202      1199      1198      1200      1210
      1199      1198      1221      1218      1199      1198      1221      1222
      1199      1198      1221      1223      1200      1198      1221      1218
      1200      1198      1221      1222      1200      1198      1221      1223
      1200      1202      1205      1206      1200      1202      1205      1207
      1200      1202      1205      1208      1200      1210      1208      1205
      1200      1210      1208      1209      1200      1210      1208      1234
      1200      1210      1211      1212      1200      1210      1211      1213
      1200      1210      1211      1214      1200      1210      1215      1216
      1200      1210      1215      1217      1200      1210      1215      1218
      1201      1200      1198      1221      1201      1200      1202      1203
      1201      1200      1202      1204      1201      1200      1202      1205
      1201      1200      1210      1208      1201      1200      1210      1211
      1201      1200      1210      1215      1202      1200      1198      1221
      1202      1200      1210      1208      1202      1200      1210      1211
      1202      1200      1210      1215      1202      1205      1208      1209
      1202      1205      1208      1210      1202      1205      1208      1234
      1203      1202      1200      1210      1203      1202      1205      1206
      1203      1202      1205      1207      1203      1202      1205      1208
      1204      1202      1200      1210      1204      1202      1205      1206
      1204      1202      1205      1207      1204      1202      1205      1208
      1205      1202      1200      1210      1205      1208      1210      1211
      1205      1208      1210      1215      1205      1208      1234      1235
      1205      1208      1234      1236      1205      1208      1234      1240
      1206      1205      1208      1209      1206      1205      1208      1210
      1206      1205      1208      1234      1207      1205      1208      1209
      1207      1205      1208      1210      1207      1205      1208      1234
      1208      1210      1211      1212      1208      1210      1211      1213
      1208      1210      1211      1214      1208      1210      1215      1216
      1208      1210      1215      1217      1208      1210      1215      1218
      1208      1234      1236      1237      1208      1234      1236      1238
      1208      1234      1236      1239      1208      1234      1240      1241
      1208      1234      1240      1242      1208      1234      1240      1243
      1209      1208      1210      1211      1209      1208      1210      1215
      1209      1208      1234      1235      1209      1208      1234      1236
      1209      1208      1234      1240      1210      1200      1198      1221
      1210      1208      1234      1235      1210      1208      1234      1236
      1210      1208      1234      1240      1210      1215      1218      1219
      1210      1215      1218      1220      1210      1215      1218      1221
      1211      1210      1208      1234      1211      1210      1215      1216
      1211      1210      1215      1217      1211      1210      1215      1218
      1212      1211      1210      1215      1213      1211      1210      1215
      1214      1211      1210      1215      1215      1210      1208      1234
      1215      1218      1221      1222      1215      1218      1221      1223
      1216      1215      1218      1219      1216      1215      1218      1220
      1216      1215      1218      1221      1217      1215      1218      1219
      1217      1215      1218      1220      1217      1215      1218      1221
      1218      1221      1223      1224      1218      1221      1223      1228
      1219      1218      1221      1222      1219      1218      1221      1223
      1220      1218      1221      1222      1220      1218      1221      1223
      1221      1223      1224      1225      1221      1223      1224      1226
      1221      1223      1224      1227      1221      1223      1228      1229
      1221      1223      1228      1230      1221      1223      1228      1231
      1222      1221      1223      1224      1222      1221      1223      1228
      1223      1228      1231      1232      1223      1228      1231      1233
      1224      1223      1228      1229      1224      1223      1228      1230
      1224      1223      1228      1231      1225      1224      1223      1228
      1226      1224      1223      1228      1227      1224      1223      1228
      1229      1228      1231      1232      1229      1228      1231      1233
      1230      1228      1231      1232      1230      1228      1231      1233
      1234      1240      1243      1244      1234      1240      1243      1245
      1234      1240      1243      1246      1235      1234      1236      1237
      1235      1234      1236      1238      1235      1234      1236      1239
      1235      1234      1240      1241      1235      1234      1240      1242
      1235      1234      1240      1243      1236      1234      1240      1241
      1236      1234      1240      1242      1236      1234      1240      1243
      1237      1236      1234      1240      1238      1236      1234      1240
      1239      1236      1234      1240      1240      1243      1246      1247
      1240      1243      1246      1248      1240      1243      1246      1249
      1241      1240      1243      1244      1241      1240      1243      1245
      1241      1240      1243      1246      1242      1240      1243      1244
      1242      1240      1243      1245      1242      1240      1243      1246
      1243      1246      1249      1250      1243      1246      1249      1251
      1243      1246      1249      1255      1244      1243      1246      1247
      1244      1243      1246      1248      1244      1243      1246      1249
      1245      1243      1246      1247      1245      1243      1246      1248
      1245      1243      1246      1249      1246      1249      1251      1252
      1246      1249      1251      1253      1246      1249      1251      1254
      1246      1249      1255      1256      1246      1249      1255      1257
      1246      1249      1255      1258      1247      1246      1249      1250
      1247      1246      1249      1251      1247      1246      1249      1255
      1248      1246      1249      1250      1248      1246      1249      1251
      1248      1246      1249      1255      1250      1249      1251      1252
      1250      1249      1251      1253      1250      1249      1251      1254
      1250      1249      1255      1256      1250      1249      1255      1257
      1250      1249      1255      1258      1251      1249      1255      1256
      1251      1249      1255      1257      1251      1249      1255      1258
      1252      1251      1249      1255      1253      1251      1249      1255
      1254      1251      1249      1255      1259      1263      1266      1267
      1259      1263      1266      1297      1259      1305      1302      1297
      1259      1305      1302      1303      1259      1305      1302      1304
      1260      1259      1261      1262      1260      1259      1263      1264
      1260      1259      1263      1265      1260      1259      1263      1266
      1260      1259      1305      1302      1260      1259      1305      1306
      1260      1259      1305      1307      1261      1259      1263      1264
      1261      1259      1263      1265      1261      1259      1263      1266
      1261      1259      1305      1302      1261      1259      1305      1306
      1261      1259      1305      1307      1262      1261      1259      1263
      1262      1261      1259      1305      1263      1259      1305      1302
      1263      1259      1305      1306      1263      1259      1305      1307
      1263      1266      1267      1268      1263      1266      1267      1269
      1263      1266      1297      1295      1263      1266      1297      1298
      1263      1266      1297      1302      1264      1263      1259      1305
      1264      1263      1266      1267      1264      1263      1266      1297
      1265      1263      1259      1305      1265      1263      1266      1267
      1265      1263      1266      1297      1266      1263      1259      1305
      1266      1267      1269      1270      1266      1267      1269      1271
      1266      1267      1269      1272      1266      1297      1295      1272
      1266      1297      1295      1292      1266      1297      1295      1296
      1266      1297      1298      1299      1266      1297      1298      1300
      1266      1297      1298      1301      1266      1297      1302      1303
      1266      1297      1302      1304      1266      1297      1302      1305
      1267      1266      1297      1295      1267      1266      1297      1298
      1267      1266      1297      1302      1267      1269      1272      1273
      1267      1269      1272      1274      1267      1269      1272      1295
      1268      1267      1266      1297      1268      1267      1269      1270
      1268      1267      1269      1271      1268      1267      1269      1272
      1269      1267      1266      1297      1269      1272      1274      1275
      1269      1272      1274      1276      1269      1272      1274      1284
      1269      1272      1295      1292      1269      1272      1295      1296
      1269      1272      1295      1297      1270      1269      1272      1273
      1270      1269      1272      1274      1270      1269      1272      1295
      1271      1269      1272      1273      1271      1269      1272      1274
      1271      1269      1272      1295      1272      1274      1276      1277
      1272      1274      1276      1278      1272      1274      1276      1279
      1272      1274      1284      1282      1272      1274      1284      1285
      1272      1274      1284      1289      1272      1295      1292      1289
      1272      1295      1292      1293      1272      1295      1292      1294
      1272      1295      1297      1298      1272      1295      1297      1302
      1273      1272      1274      1275      1273      1272      1274      1276
      1273      1272      1274      1284      1273      1272      1295      1292
      1273      1272      1295      1296      1273      1272      1295      1297
      1274      1272      1295      1292      1274      1272      1295      1296
      1274      1272      1295      1297      1274      1276      1279      1280
      1274      1276      1279      1281      1274      1276      1279      1282
      1274      1284      1282      1279      1274      1284      1282      1283
      1274      1284      1282      1308      1274      1284      1285      1286
      1274      1284      1285      1287      1274      1284      1285      1288
      1274      1284      1289      1290      1274      1284      1289      1291
      1274      1284      1289      1292      1275      1274      1272      1295
      1275      1274      1276      1277      1275      1274      1276      1278
      1275      1274      1276      1279      1275      1274      1284      1282
      1275      1274      1284      1285      1275      1274      1284      1289
      1276      1274      1272      1295      1276      1274      1284      1282
      1276      1274      1284      1285      1276      1274      1284      1289
      1276      1279      1282      1283      1276      1279      1282      1284
      1276      1279      1282      1308      1277      1276      1274      1284
      1277      1276      1279      1280      1277      1276      1279      1281
      1277      1276      1279      1282      1278      1276      1274      1284
      1278      1276      1279      1280      1278      1276      1279      1281
      1278      1276      1279      1282      1279      1276      1274      1284
      1279      1282      1284      1285      1279      1282      1284      1289
      1279      1282      1308      1309      1279      1282      1308      1310
      1279      1282      1308      1314      1280      1279      1282      1283
      1280      1279      1282      1284      1280      1279      1282      1308
      1281      1279      1282      1283      1281      1279      1282      1284
      1281      1279      1282      1308      1282      1284      1285      1286
      1282      1284      1285      1287      1282      1284      1285      1288
      1282      1284      1289      1290      1282      1284      1289      1291
      1282      1284      1289      1292      1282      1308      1310      1311
      1282      1308      1310      1312      1282      1308      1310      1313
      1282      1308      1314      1315      1282      1308      1314      1316
      1282      1308      1314      1317      1283      1282      1284      1285
      1283      1282      1284      1289      1283      1282      1308      1309
      1283      1282      1308      1310      1283      1282      1308      1314
      1284      1274      1272      1295      1284      1282      1308      1309
      1284      1282      1308      1310      1284      1282      1308      1314
      1284      1289      1292      1293      1284      1289      1292      1294
      1284      1289      1292      1295      1285      1284      1282      1308
      1285      1284      1289      1290      1285      1284      1289      1291
      1285      1284      1289      1292      1286      1285      1284      1289
      1287      1285      1284      1289      1288      1285      1284      1289
      1289      1284      1282      1308      1289      1292      1295      1296
      1289      1292      1295      1297      1290      1289      1292      1293
      1290      1289      1292      1294      1290      1289      1292      1295
      1291      1289      1292      1293      1291      1289      1292      1294
      1291      1289      1292      1295      1292      1295      1297      1298
      1292      1295      1297      1302      1293      1292      1295      1296
      1293      1292      1295      1297      1294      1292      1295      1296
      1294      1292      1295      1297      1295      1297      1298      1299
      1295      1297      1298      1300      1295      1297      1298      1301
      1295      1297      1302      1303      1295      1297      1302      1304
      1295      1297      1302      1305      1296      1295      1297      1298
      1296      1295      1297      1302      1297      1302      1305      1306
      1297      1302      1305      1307      1298      1297      1302      1303
      1298      1297      1302      1304      1298      1297      1302      1305
      1299      1298      1297      1302      1300      1298      1297      1302
      1301      1298      1297      1302      1303      1302      1305      1306
      1303      1302      1305      1307      1304      1302      1305      1306
      1304      1302      1305      1307      1308      1314      1317      1318
      1308      1314      1317      1319      1308      1314      1317      1320
      1309      1308      1310      1311      1309      1308      1310      1312
      1309      1308      1310      1313      1309      1308      1314      1315
      1309      1308      1314      1316      1309      1308      1314      1317
      1310      1308      1314      1315      1310      1308      1314      1316
      1310      1308      1314      1317      1311      1310      1308      1314
      1312      1310      1308      1314      1313      1310      1308      1314
      1314      1317      1320      1321      1314      1317      1320      1322
      1314      1317      1320      1323      1315      1314      1317      1318
      1315      1314      1317      1319      1315      1314      1317      1320
      1316      1314      1317      1318      1316      1314      1317      1319
      1316      1314      1317      1320      1317      1320      1323      1324
      1317      1320      1323      1325      1317      1320      1323      1329
      1318      1317      1320      1321      1318      1317      1320      1322
      1318      1317      1320      1323      1319      1317      1320      1321
      1319      1317      1320      1322      1319      1317      1320      1323
      1320      1323      1325      1326      1320      1323      1325      1327
      1320      1323      1325      1328      1320      1323      1329      1330
      1320      1323      1329      1331      1320      1323      1329      1332
      1321      1320      1323      1324      1321      1320      1323      1325
      1321      1320      1323      1329      1322      1320      1323      1324
      1322      1320      1323      1325      1322      1320      1323      1329
      1324      1323      1325      1326      1324      1323      1325      1327
      1324      1323      1325      1328      1324      1323      1329      1330
      1324      1323      1329      1331      1324      1323      1329      1332
      1325      1323      1329      1330      1325      1323      1329      1331
      1325      1323      1329      1332      1326      1325      1323      1329
      1327      1325      1323      1329      1328      1325      1323      1329
      1333      1337      1340      1341      1333      1337      1340      1371
      1333      1379      1376      1371      1333      1379      1376      1377
      1333      1379      1376      1378      1334      1333      1335      1336
      1334      1333      1337      1338      1334      1333      1337      1339
      1334      1333      1337      1340      1334      1333      1379      1376
      1334      1333      1379      1380      1334      1333      1379      1381
      1335      1333      1337      1338      1335      1333      1337      1339
      1335      1333      1337      1340      1335      1333      1379      1376
      1335      1333      1379      1380      1335      1333      1379      1381
      1336      1335      1333      1337      1336      1335      1333      1379
      1337      1333      1379      1376      1337      1333      1379      1380
      1337      1333      1379      1381      1337      1340      1341      1342
      1337      1340      1341      1343      1337      1340      1371      1369
      1337      1340      1371      1372      1337      1340      1371      1376
      1338      1337      1333      1379      1338      1337      1340      1341
      1338      1337      1340      1371      1339      1337      1333      1379
      1339      1337      1340      1341      1339      1337      1340      1371
      1340      1337      1333      1379      1340      1341      1343      1344
      1340      1341      1343      1345      1340      1341      1343      1346
      1340      1371      1369      1346      1340      1371      1369      1366
      1340      1371      1369      1370      1340      1371      1372      1373
      1340      1371      1372      1374      1340      1371      1372      1375
      1340      1371      1376      1377      1340      1371      1376      1378
      1340      1371      1376      1379      1341      1340      1371      1369
      1341      1340      1371      1372      1341      1340      1371      1376
      1341      1343      1346      1347      1341      1343      1346      1348
      1341      1343      1346      1369      1342      1341      1340      1371
      1342      1341      1343      1344      1342      1341      1343      1345
      1342      1341      1343      1346      1343      1341      1340      1371
      1343      1346      1348      1349      1343      1346      1348      1350
      1343      1346      1348      1358      1343      1346      1369      1366
      1343      1346      1369      1370      1343      1346      1369      1371
      1344      1343      1346      1347      1344      1343      1346      1348
      1344      1343      1346      1369      1345      1343      1346      1347
      1345      1343      1346      1348      1345      1343      1346      1369
      1346      1348      1350      1351      1346      1348      1350      1352
      1346      1348      1350      1353      1346      1348      1358      1356
      1346      1348      1358      1359      1346      1348      1358      1363
      1346      1369      1366      1363      1346      1369      1366      1367
      1346      1369      1366      1368      1346      1369      1371      1372
      1346      1369      1371      1376      1347      1346      1348      1349
      1347      1346      1348      1350      1347      1346      1348      1358
      1347      1346      1369      1366      1347      1346      1369      1370
      1347      1346      1369      1371      1348      1346      1369      1366
      1348      1346      1369      1370      1348      1346      1369      1371
      1348      1350      1353      1354      1348      1350      1353      1355
      1348      1350      1353      1356      1348      1358      1356      1353
      1348      1358      1356      1357      1348      1358      1356      1382
      1348      1358      1359      1360      1348      1358      1359      1361
      1348      1358      1359      1362      1348      1358      1363      1364
      1348      1358      1363      1365      1348      1358      1363      1366
      1349      1348      1346      1369      1349      1348      1350      1351
      1349      1348      1350      1352      1349      1348      1350      1353
      1349      1348      1358      1356      1349      1348      1358      1359
      1349      1348      1358      1363      1350      1348      1346      1369
      1350      1348      1358      1356      1350      1348      1358      1359
      1350      1348      1358      1363      1350      1353      1356      1357
      1350      1353      1356      1358      1350      1353      1356      1382
      1351      1350      1348      1358      1351      1350      1353      1354
      1351      1350      1353      1355      1351      1350      1353      1356
      1352      1350      1348      1358      1352      1350      1353      1354
      1352      1350      1353      1355      1352      1350      1353      1356
      1353      1350      1348      1358      1353      1356      1358      1359
      1353      1356      1358      1363      1353      1356      1382      1383
      1353      1356      1382      1384      1353      1356      1382      1388
      1354      1353      1356      1357      1354      1353      1356      1358
      1354      1353      1356      1382      1355      1353      1356      1357
      1355      1353      1356      1358      1355      1353      1356      1382
      1356      1358      1359      1360      1356      1358      1359      1361
      1356      1358      1359      1362      1356      1358      1363      1364
      1356      1358      1363      1365      1356      1358      1363      1366
      1356      1382      1384      1385      1356      1382      1384      1386
      1356      1382      1384      1387      1356      1382      1388      1389
      1356      1382      1388      1390      1356      1382      1388      1391
      1357      1356      1358      1359      1357      1356      1358      1363
      1357      1356      1382      1383      1357      1356      1382      1384
      1357      1356      1382      1388      1358      1348      1346      1369
      1358      1356      1382      1383      1358      1356      1382      1384
      1358      1356      1382      1388      1358      1363      1366      1367
      1358      1363      1366      1368      1358      1363      1366      1369
      1359      1358      1356      1382      1359      1358      1363      1364
      1359      1358      1363      1365      1359      1358      1363      1366
      1360      1359      1358      1363      1361      1359      1358      1363
      1362      1359      1358      1363      1363      1358      1356      1382
      1363      1366      1369      1370      1363      1366      1369      1371
      1364      1363      1366      1367      1364      1363      1366      1368
      1364      1363      1366      1369      1365      1363      1366      1367
      1365      1363      1366      1368      1365      1363      1366      1369
      1366      1369      1371      1372      1366      1369      1371      1376
      1367      1366      1369      1370      1367      1366      1369      1371
      1368      1366      1369      1370      1368      1366      1369      1371
      1369      1371      1372      1373      1369      1371      1372      1374
      1369      1371      1372      1375      1369      1371      1376      1377
      1369      1371      1376      1378      1369      1371      1376      1379
      1370      1369      1371      1372      1370      1369      1371      1376
      1371      1376      1379      1380      1371      1376      1379      1381
      1372      1371      1376      1377      1372      1371      1376      1378
      1372      1371      1376      1379      1373      1372      1371      1376
      1374      1372      1371      1376      1375      1372      1371      1376
      1377      1376      1379      1380      1377      1376      1379      1381
      1378      1376      1379      1380      1378      1376      1379      1381
      1382      1388      1391      1392      1382      1388      1391      1393
      1382      1388      1391      1394      1383      1382      1384      1385
      1383      1382      1384      1386      1383      1382      1384      1387
      1383      1382      1388      1389      1383      1382      1388      1390
      1383      1382      1388      1391      1384      1382      1388      1389
      1384      1382      1388      1390      1384      1382      1388      1391
      1385      1384      1382      1388      1386      1384      1382      1388
      1387      1384      1382      1388      1388      1391      1394      1395
      1388      1391      1394      1396      1388      1391      1394      1397
      1389      1388      1391      1392      1389      1388      1391      1393
      1389      1388      1391      1394      1390      1388      1391      1392
      1390      1388      1391      1393      1390      1388      1391      1394
      1391      1394      1397      1398      1391      1394      1397      1399
      1391      1394      1397      1403      1392      1391      1394      1395
      1392      1391      1394      1396      1392      1391      1394      1397
      1393      1391      1394      1395      1393      1391      1394      1396
      1393      1391      1394      1397      1394      1397      1399      1400
      1394      1397      1399      1401      1394      1397      1399      1402
      1394      1397      1403      1404      1394      1397      1403      1405
      1394      1397      1403      1406      1395      1394      1397      1398
      1395      1394      1397      1399      1395      1394      1397      1403
      1396      1394      1397      1398      1396      1394      1397      1399
      1396      1394      1397      1403      1398      1397      1399      1400
      1398      1397      1399      1401      1398      1397      1399      1402
      1398      1397      1403      1404      1398      1397      1403      1405
      1398      1397      1403      1406      1399      1397      1403      1404
      1399      1397      1403      1405      1399      1397      1403      1406
      1400      1399      1397      1403      1401      1399      1397      1403
      1402      1399      1397      1403      1407      1411      1414      1415
      1407      1411      1414      1445      1407      1453      1450      1445
      1407      1453      1450      1451      1407      1453      1450      1452
      1408      1407      1409      1410      1408      1407      1411      1412
      1408      1407      1411      1413      1408      1407      1411      1414
      1408      1407      1453      1450      1408      1407      1453      1454
      1408      1407      1453      1455      1409      1407      1411      1412
      1409      1407      1411      1413      1409      1407      1411      1414
      1409      1407      1453      1450      1409      1407      1453      1454
      1409      1407      1453      1455      1410      1409      1407      1411
      1410      1409      1407      1453      1411      1407      1453      1450
      1411      1407      1453      1454      1411      1407      1453      1455
      1411      1414      1415      1416      1411      1414      1415      1417
      1411      1414      1445      1443      1411      1414      1445      1446
      1411      1414      1445      1450      1412      1411      1407      1453
      1412      1411      1414      1415      1412      1411      1414      1445
      1413      1411      1407      1453      1413      1411      1414      1415
      1413      1411      1414      1445      1414      1411      1407      1453
      1414      1415      1417      1418      1414      1415      1417      1419
      1414      1415      1417      1420      1414      1445      1443      1420
      1414      1445      1443      1440      1414      1445      1443      1444
      1414      1445      1446      1447      1414      1445      1446      1448
      1414      1445      1446      1449      1414      1445      1450      1451
      1414      1445      1450      1452      1414      1445      1450      1453
      1415      1414      1445      1443      1415      1414      1445      1446
      1415      1414      1445      1450      1415      1417      1420      1421
      1415      1417      1420      1422      1415      1417      1420      1443
      1416      1415      1414      1445      1416      1415      1417      1418
      1416      1415      1417      1419      1416      1415      1417      1420
      1417      1415      1414      1445      1417      1420      1422      1423
      1417      1420      1422      1424      1417      1420      1422      1432
      1417      1420      1443      1440      1417      1420      1443      1444
      1417      1420      1443      1445      1418      1417      1420      1421
      1418      1417      1420      1422      1418      1417      1420      1443
      1419      1417      1420      1421      1419      1417      1420      1422
      1419      1417      1420      1443      1420      1422      1424      1425
      1420      1422      1424      1426      1420      1422      1424      1427
      1420      1422      1432      1430      1420      1422      1432      1433
      1420      1422      1432      1437      1420      1443      1440      1437
      1420      1443      1440      1441      1420      1443      1440      1442
      1420      1443      1445      1446      1420      1443      1445      1450
      1421      1420      1422      1423      1421      1420      1422      1424
      1421      1420      1422      1432      1421      1420      1443      1440
      1421      1420      1443      1444      1421      1420      1443      1445
      1422      1420      1443      1440      1422      1420      1443      1444
      1422      1420      1443      1445      1422      1424      1427      1428
      1422      1424      1427      1429      1422      1424      1427      1430
      1422      1432      1430      1427      1422      1432      1430      1431
      1422      1432      1430      1456      1422      1432      1433      1434
      1422      1432      1433      1435      1422      1432      1433      1436
      1422      1432      1437      1438      1422      1432      1437      1439
      1422      1432      1437      1440      1423      1422      1420      1443
      1423      1422      1424      1425      1423      1422      1424      1426
      1423      1422      1424      1427      1423      1422      1432      1430
      1423      1422      1432      1433      1423      1422      1432      1437
      1424      1422      1420      1443      1424      1422      1432      1430
      1424      1422      1432      1433      1424      1422      1432      1437
      1424      1427      1430      1431      1424      1427      1430      1432
      1424      1427      1430      1456      1425      1424      1422      1432
      1425      1424      1427      1428      1425      1424      1427      1429
      1425      1424      1427      1430      1426      1424      1422      1432
      1426      1424      1427      1428      1426      1424      1427      1429
      1426      1424      1427      1430      1427      1424      1422      1432
      1427      1430      1432      1433      1427      1430      1432      1437
      1427      1430      1456      1457      1427      1430      1456      1458
      1427      1430      1456      1462      1428      1427      1430      1431
      1428      1427      1430      1432      1428      1427      1430      1456
      1429      1427      1430      1431      1429      1427      1430      1432
      1429      1427      1430      1456      1430      1432      1433      1434
      1430      1432      1433      1435      1430      1432      1433      1436
      1430      1432      1437      1438      1430      1432      1437      1439
      1430      1432      1437      1440      1430      1456      1458      1459
      1430      1456      1458      1460      1430      1456      1458      1461
      1430      1456      1462      1463      1430      1456      1462      1464
      1430      1456      1462      1465      1431      1430      1432      1433
      1431      1430      1432      1437      1431      1430      1456      1457
      1431      1430      1456      1458      1431      1430      1456      1462
      1432      1422      1420      1443      1432      1430      1456      1457
      1432      1430      1456      1458      1432      1430      1456      1462
      1432      1437      1440      1441      1432      1437      1440      1442
      1432      1437      1440      1443      1433      1432      1430      1456
      1433      1432      1437      1438      1433      1432      1437      1439
      1433      1432      1437      1440      1434      1433      1432      1437
      1435      1433      1432      1437      1436      1433      1432      1437
      1437      1432      1430      1456      1437      1440      1443      1444
      1437      1440      1443      1445      1438      1437      1440      1441
      1438      1437      1440      1442      1438      1437      1440      1443
      1439      1437      1440      1441      1439      1437      1440      1442
      1439      1437      1440      1443      1440      1443      1445      1446
      1440      1443      1445      1450      1441      1440      1443      1444
      1441      1440      1443      1445      1442      1440      1443      1444
      1442      1440      1443      1445      1443      1445      1446      1447
      1443      1445      1446      1448      1443      1445      1446      1449
      1443      1445      1450      1451      1443      1445      1450      1452
      1443      1445      1450      1453      1444      1443      1445      1446
      1444      1443      1445      1450      1445      1450      1453      1454
      1445      1450      1453      1455      1446      1445      1450      1451
      1446      1445      1450      1452      1446      1445      1450      1453
      1447      1446      1445      1450      1448      1446      1445      1450
      1449      1446      1445      1450      1451      1450      1453      1454
      1451      1450      1453      1455      1452      1450      1453      1454
      1452      1450      1453      1455      1456      1462      1465      1466
      1456      1462      1465      1467      1456      1462      1465      1468
      1457      1456      1458      1459      1457      1456      1458      1460
      1457      1456      1458      1461      1457      1456      1462      1463
      1457      1456      1462      1464      1457      1456      1462      1465
      1458      1456      1462      1463      1458      1456      1462      1464
      1458      1456      1462      1465      1459      1458      1456      1462
      1460      1458      1456      1462      1461      1458      1456      1462
      1462      1465      1468      1469      1462      1465      1468      1470
      1462      1465      1468      1471      1463      1462      1465      1466
      1463      1462      1465      1467      1463      1462      1465      1468
      1464      1462      1465      1466      1464      1462      1465      1467
      1464      1462      1465      1468      1465      1468      1471      1472
      1465      1468      1471      1473      1465      1468      1471      1477
      1466      1465      1468      1469      1466      1465      1468      1470
      1466      1465      1468      1471      1467      1465      1468      1469
      1467      1465      1468      1470      1467      1465      1468      1471
      1468      1471      1473      1474      1468      1471      1473      1475
      1468      1471      1473      1476      1468      1471      1477      1478
      1468      1471      1477      1479      1468      1471      1477      1480
      1469      1468      1471      1472      1469      1468      1471      1473
      1469      1468      1471      1477      1470      1468      1471      1472
      1470      1468      1471      1473      1470      1468      1471      1477
      1472      1471      1473      1474      1472      1471      1473      1475
      1472      1471      1473      1476      1472      1471      1477      1478
      1472      1471      1477      1479      1472      1471      1477      1480
      1473      1471      1477      1478      1473      1471      1477      1479
      1473      1471      1477      1480      1474      1473      1471      1477
      1475      1473      1471      1477      1476      1473      1471      1477
      1481      1485      1488      1489      1481      1485      1488      1519
      1481      1527      1524      1519      1481      1527      1524      1525
      1481      1527      1524      1526      1482      1481      1483      1484
      1482      1481      1485      1486      1482      1481      1485      1487
      1482      1481      1485      1488      1482      1481      1527      1524
      1482      1481      1527      1528      1482      1481      1527      1529
      1483      1481      1485      1486      1483      1481      1485      1487
      1483      1481      1485      1488      1483      1481      1527      1524
      1483      1481      1527      1528      1483      1481      1527      1529
      1484      1483      1481      1485      1484      1483      1481      1527
      1485      1481      1527      1524      1485      1481      1527      1528
      1485      1481      1527      1529      1485      1488      1489      1490
      1485      1488      1489      1491      1485      1488      1519      1517
      1485      1488      1519      1520      1485      1488      1519      1524
      1486      1485      1481      1527      1486      1485      1488      1489
      1486      1485      1488      1519      1487      1485      1481      1527
      1487      1485      1488      1489      1487      1485      1488      1519
      1488      1485      1481      1527      1488      1489      1491      1492
      1488      1489      1491      1493      1488      1489      1491      1494
      1488      1519      1517      1494      1488      1519      1517      1514
      1488      1519      1517      1518      1488      1519      1520      1521
      1488      1519      1520      1522      1488      1519      1520      1523
      1488      1519      1524      1525      1488      1519      1524      1526
      1488      1519      1524      1527      1489      1488      1519      1517
      1489      1488      1519      1520      1489      1488      1519      1524
      1489      1491      1494      1495      1489      1491      1494      1496
      1489      1491      1494      1517      1490      1489      1488      1519
      1490      1489      1491      1492      1490      1489      1491      1493
      1490      1489      1491      1494      1491      1489      1488      1519
      1491      1494      1496      1497      1491      1494      1496      1498
      1491      1494      1496      1506      1491      1494      1517      1514
      1491      1494      1517      1518      1491      1494      1517      1519
      1492      1491      1494      1495      1492      1491      1494      1496
      1492      1491      1494      1517      1493      1491      1494      1495
      1493      1491      1494      1496      1493      1491      1494      1517
      1494      1496      1498      1499      1494      1496      1498      1500
      1494      1496      1498      1501      1494      1496      1506      1504
      1494      1496      1506      1507      1494      1496      1506      1511
      1494      1517      1514      1511      1494      1517      1514      1515
      1494      1517      1514      1516      1494      1517      1519      1520
      1494      1517      1519      1524      1495      1494      1496      1497
      1495      1494      1496      1498      1495      1494      1496      1506
      1495      1494      1517      1514      1495      1494      1517      1518
      1495      1494      1517      1519      1496      1494      1517      1514
      1496      1494      1517      1518      1496      1494      1517      1519
      1496      1498      1501      1502      1496      1498      1501      1503
      1496      1498      1501      1504      1496      1506      1504      1501
      1496      1506      1504      1505      1496      1506      1504      1530
      1496      1506      1507      1508      1496      1506      1507      1509
      1496      1506      1507      1510      1496      1506      1511      1512
      1496      1506      1511      1513      1496      1506      1511      1514
      1497      1496      1494      1517      1497      1496      1498      1499
      1497      1496      1498      1500      1497      1496      1498      1501
      1497      1496      1506      1504      1497      1496      1506      1507
      1497      1496      1506      1511      1498      1496      1494      1517
      1498      1496      1506      1504      1498      1496      1506      1507
      1498      1496      1506      1511      1498      1501      1504      1505
      1498      1501      1504      1506      1498      1501      1504      1530
      1499      1498      1496      1506      1499      1498      1501      1502
      1499      1498      1501      1503      1499      1498      1501      1504
      1500      1498      1496      1506      1500      1498      1501      1502
      1500      1498      1501      1503      1500      1498      1501      1504
      1501      1498      1496      1506      1501      1504      1506      1507
      1501      1504      1506      1511      1501      1504      1530      1531
      1501      1504      1530      1532      1501      1504      1530      1536
      1502      1501      1504      1505      1502      1501      1504      1506
      1502      1501      1504      1530      1503      1501      1504      1505
      1503      1501      1504      1506      1503      1501      1504      1530
      1504      1506      1507      1508      1504      1506      1507      1509
      1504      1506      1507      1510      1504      1506      1511      1512
      1504      1506      1511      1513      1504      1506      1511      1514
      1504      1530      1532      1533      1504      1530      1532      1534
      1504      1530      1532      1535      1504      1530      1536      1537
      1504      1530      1536      1538      1504      1530      1536      1539
      1505      1504      1506      1507      1505      1504      1506      1511
      1505      1504      1530      1531      1505      1504      1530      1532
      1505      1504      1530      1536      1506      1496      1494      1517
      1506      1504      1530      1531      1506      1504      1530      1532
      1506      1504      1530      1536      1506      1511      1514      1515
      1506      1511      1514      1516      1506      1511      1514      1517
      1507      1506      1504      1530      1507      1506      1511      1512
      1507      1506      1511      1513      1507      1506      1511      1514
      1508      1507      1506      1511      1509      1507      1506      1511
      1510      1507      1506      1511      1511      1506      1504      1530
      1511      1514      1517      1518      1511      1514      1517      1519
      1512      1511      1514      1515      1512      1511      1514      1516
      1512      1511      1514      1517      1513      1511      1514      1515
      1513      1511      1514      1516      1513      1511      1514      1517
      1514      1517      1519      1520      1514      1517      1519      1524
      1515      1514      1517      1518      1515      1514      1517      1519
      1516      1514      1517      1518      1516      1514      1517      1519
      1517      1519      1520      1521      1517      1519      1520      1522
      1517      1519      1520      1523      1517      1519      1524      1525
      1517      1519      1524      1526      1517      1519      1524      1527
      1518      1517      1519      1520      1518      1517      1519      1524
      1519      1524      1527      1528      1519      1524      1527      1529
      1520      1519      1524      1525      1520      1519      1524      1526
      1520      1519      1524      1527      1521      1520      1519      1524
      1522      1520      1519      1524      1523      1520      1519      1524
      1525      1524      1527      1528      1525      1524      1527      1529
      1526      1524      1527      1528      1526      1524      1527      1529
      1530      1536      1539      1540      1530      1536      1539      1541
      1530      1536      1539      1542      1531      1530      1532      1533
      1531      1530      1532      1534      1531      1530      1532      1535
      1531      1530      1536      1537      1531      1530      1536      1538
      1531      1530      1536      1539      1532      1530      1536      1537
      1532      1530      1536      1538      1532      1530      1536      1539
      1533      1532      1530      1536      1534      1532      1530      1536
      1535      1532      1530      1536      1536      1539      1542      1543
      1536      1539      1542      1544      1536      1539      1542      1545
      1537      1536      1539      1540      1537      1536      1539      1541
      1537      1536      1539      1542      1538      1536      1539      1540
      1538      1536      1539      1541      1538      1536      1539      1542
      1539      1542      1545      1546      1539      1542      1545      1547
      1539      1542      1545      1551      1540      1539      1542      1543
      1540      1539      1542      1544      1540      1539      1542      1545
      1541      1539      1542      1543      1541      1539      1542      1544
      1541      1539      1542      1545      1542      1545      1547      1548
      1542      1545      1547      1549      1542      1545      1547      1550
      1542      1545      1551      1552      1542      1545      1551      1553
      1542      1545      1551      1554      1543      1542      1545      1546
      1543      1542      1545      1547      1543      1542      1545      1551
      1544      1542      1545      1546      1544      1542      1545      1547
      1544      1542      1545      1551      1546      1545      1547      1548
      1546      1545      1547      1549      1546      1545      1547      1550
      1546      1545      1551      1552      1546      1545      1551      1553
      1546      1545      1551      1554      1547      1545      1551      1552
      1547      1545      1551      1553      1547      1545      1551      1554
      1548      1547      1545      1551      1549      1547      1545      1551
      1550      1547      1545      1551      1555      1559      1562      1563
      1555      1559      1562      1593      1555      1601      1598      1593
      1555      1601      1598      1599      1555      1601      1598      1600
      1556      1555      1557      1558      1556      1555      1559      1560
      1556      1555      1559      1561      1556      1555      1559      1562
      1556      1555      1601      1598      1556      1555      1601      1602
      1556      1555      1601      1603      1557      1555      1559      1560
      1557      1555      1559      1561      1557      1555      1559      1562
      1557      1555      1601      1598      1557      1555      1601      1602
      1557      1555      1601      1603      1558      1557      1555      1559
      1558      1557      1555      1601      1559      1555      1601      1598
      1559      1555      1601      1602      1559      1555      1601      1603
      1559      1562      1563      1564      1559      1562      1563      1565
      1559      1562      1593      1591      1559      1562      1593      1594
      1559      1562      1593      1598      1560      1559      1555      1601
      1560      1559      1562      1563      1560      1559      1562      1593
      1561      1559      1555      1601      1561      1559      1562      1563
      1561      1559      1562      1593      1562      1559      1555      1601
      1562      1563      1565      1566      1562      1563      1565      1567
      1562      1563      1565      1568      1562      1593      1591      1568
      1562      1593      1591      1588      1562      1593      1591      1592
      1562      1593      1594      1595      1562      1593      1594      1596
      1562      1593      1594      1597      1562      1593      1598      1599
      1562      1593      1598      1600      1562      1593      1598      1601
      1563      1562      1593      1591      1563      1562      1593      1594
      1563      1562      1593      1598      1563      1565      1568      1569
      1563      1565      1568      1570      1563      1565      1568      1591
      1564      1563      1562      1593      1564      1563      1565      1566
      1564      1563      1565      1567      1564      1563      1565      1568
      1565      1563      1562      1593      1565      1568      1570      1571
      1565      1568      1570      1572      1565      1568      1570      1580
      1565      1568      1591      1588      1565      1568      1591      1592
      1565      1568      1591      1593      1566      1565      1568      1569
      1566      1565      1568      1570      1566      1565      1568      1591
      1567      1565      1568      1569      1567      1565      1568      1570
      1567      1565      1568      1591      1568      1570      1572      1573
      1568      1570      1572      1574      1568      1570      1572      1575
      1568      1570      1580      1578      1568      1570      1580      1581
      1568      1570      1580      1585      1568      1591      1588      1585
      1568      1591      1588      1589      1568      1591      1588      1590
      1568      1591      1593      1594      1568      1591      1593      1598
      1569      1568      1570      1571      1569      1568      1570      1572
      1569      1568      1570      1580      1569      1568      1591      1588
      1569      1568      1591      1592      1569      1568      1591      1593
      1570      1568      1591      1588      1570      1568      1591      1592
      1570      1568      1591      1593      1570      1572      1575      1576
      1570      1572      1575      1577      1570      1572      1575      1578
      1570      1580      1578      1575      1570      1580      1578      1579
      1570      1580      1578      1604      1570      1580      1581      1582
      1570      1580      1581      1583      1570      1580      1581      1584
      1570      1580      1585      1586      1570      1580      1585      1587
      1570      1580      1585      1588      1571      1570      1568      1591
      1571      1570      1572      1573      1571      1570      1572      1574
      1571      1570      1572      1575      1571      1570      1580      1578
      1571      1570      1580      1581      1571      1570      1580      1585
      1572      1570      1568      1591      1572      1570      1580      1578
      1572      1570      1580      1581      1572      1570      1580      1585
      1572      1575      1578      1579      1572      1575      1578      1580
      1572      1575      1578      1604      1573      1572      1570      1580
      1573      1572      1575      1576      1573      1572      1575      1577
      1573      1572      1575      1578      1574      1572      1570      1580
      1574      1572      1575      1576      1574      1572      1575      1577
      1574      1572      1575      1578      1575      1572      1570      1580
      1575      1578      1580      1581      1575      1578      1580      1585
      1575      1578      1604      1605      1575      1578      1604      1606
      1575      1578      1604      1610      1576      1575      1578      1579
      1576      1575      1578      1580      1576      1575      1578      1604
      1577      1575      1578      1579      1577      1575      1578      1580
      1577      1575      1578      1604      1578      1580      1581      1582
      1578      1580      1581      1583      1578      1580      1581      1584
      1578      1580      1585      1586      1578      1580      1585      1587
      1578      1580      1585      1588      1578      1604      1606      1607
      1578      1604      1606      1608      1578      1604      1606      1609
      1578      1604      1610      1611      1578      1604      1610      1612
      1578      1604      1610      1613      1579      1578      1580      1581
      1579      1578      1580      1585      1579      1578      1604      1605
      1579      1578      1604      1606      1579      1578      1604      1610
      1580      1570      1568      1591      1580      1578      1604      1605
      1580      1578      1604      1606      1580      1578      1604      1610
      1580      1585      1588      1589      1580      1585      1588      1590
      1580      1585      1588      1591      1581      1580      1578      1604
      1581      1580      1585      1586      1581      1580      1585      1587
      1581      1580      1585      1588      1582      1581      1580      1585
      1583      1581      1580      1585      1584      1581      1580      1585
      1585      1580      1578      1604      1585      1588      1591      1592
      1585      1588      1591      1593      1586      1585      1588      1589
      1586      1585      1588      1590      1586      1585      1588      1591
      1587      1585      1588      1589      1587      1585      1588      1590
      1587      1585      1588      1591      1588      1591      1593      1594
      1588      1591      1593      1598      1589      1588      1591      1592
      1589      1588      1591      1593      1590      1588      1591      1592
      1590      1588      1591      1593      1591      1593      1594      1595
      1591      1593      1594      1596      1591      1593      1594      1597
      1591      1593      1598      1599      1591      1593      1598      1600
      1591      1593      1598      1601      1592      1591      1593      1594
      1592      1591      1593      1598      1593      1598      1601      1602
      1593      1598      1601      1603      1594      1593      1598      1599
      1594      1593      1598      1600      1594      1593      1598      1601
      1595      1594      1593      1598      1596      1594      1593      1598
      1597      1594      1593      1598      1599      1598      1601      1602
      1599      1598      1601      1603      1600      1598      1601      1602
      1600      1598      1601      1603      1604      1610      1613      1614
      1604      1610      1613      1615      1604      1610      1613      1616
      1605      1604      1606      1607      1605      1604      1606      1608
      1605      1604      1606      1609      1605      1604      1610      1611
      1605      1604      1610      1612      1605      1604      1610      1613
      1606      1604      1610      1611      1606      1604      1610      1612
      1606      1604      1610      1613      1607      1606      1604      1610
      1608      1606      1604      1610      1609      1606      1604      1610
      1610      1613      1616      1617      1610      1613      1616      1618
      1610      1613      1616      1619      1611      1610      1613      1614
      1611      1610      1613      1615      1611      1610      1613      1616
      1612      1610      1613      1614      1612      1610      1613      1615
      1612      1610      1613      1616      1613      1616      1619      1620
      1613      1616      1619      1621      1613      1616      1619      1625
      1614      1613      1616      1617      1614      1613      1616      1618
      1614      1613      1616      1619      1615      1613      1616      1617
      1615      1613      1616      1618      1615      1613      1616      1619
      1616      1619      1621      1622      1616      1619      1621      1623
      1616      1619      1621      1624      1616      1619      1625      1626
      1616      1619      1625      1627      1616      1619      1625      1628
      1617      1616      1619      1620      1617      1616      1619      1621
      1617      1616      1619      1625      1618      1616      1619      1620
      1618      1616      1619      1621      1618      1616      1619      1625
      1620      1619      1621      1622      1620      1619      1621      1623
      1620      1619      1621      1624      1620      1619      1625      1626
      1620      1619      1625      1627      1620      1619      1625      1628
      1621      1619      1625      1626      1621      1619      1625      1627
      1621      1619      1625      1628      1622      1621      1619      1625
      1623      1621      1619      1625      1624      1621      1619      1625
      1629      1633      1636      1637      1629      1633      1636      1667
      1629      1675      1672      1667      1629      1675      1672      1673
      1629      1675      1672      1674      1630      1629      1631      1632
      1630      1629      1633      1634      1630      1629      1633      1635
      1630      1629      1633      1636      1630      1629      1675      1672
      1630      1629      1675      1676      1630      1629      1675      1677
      1631      1629      1633      1634      1631      1629      1633      1635
      1631      1629      1633      1636      1631      1629      1675      1672
      1631      1629      1675      1676      1631      1629      1675      1677
      1632      1631      1629      1633      1632      1631      1629      1675
      1633      1629      1675      1672      1633      1629      1675      1676
      1633      1629      1675      1677      1633      1636      1637      1638
      1633      1636      1637      1639      1633      1636      1667      1665
      1633      1636      1667      1668      1633      1636      1667      1672
      1634      1633      1629      1675      1634      1633      1636      1637
      1634      1633      1636      1667      1635      1633      1629      1675
      1635      1633      1636      1637      1635      1633      1636      1667
      1636      1633      1629      1675      1636      1637      1639      1640
      1636      1637      1639      1641      1636      1637      1639      1642
      1636      1667      1665      1642      1636      1667      1665      1662
      1636      1667      1665      1666      1636      1667      1668      1669
      1636      1667      1668      1670      1636      1667      1668      1671
      1636      1667      1672      1673      1636      1667      1672      1674
      1636      1667      1672      1675      1637      1636      1667      1665
      1637      1636      1667      1668      1637      1636      1667      1672
      1637      1639      1642      1643      1637      1639      1642      1644
      1637      1639      1642      1665      1638      1637      1636      1667
      1638      1637      1639      1640      1638      1637      1639      1641
      1638      1637      1639      1642      1639      1637      1636      1667
      1639      1642      1644      1645      1639      1642      1644      1646
      1639      1642      1644      1654      1639      1642      1665      1662
      1639      1642      1665      1666      1639      1642      1665      1667
      1640      1639      1642      1643      1640      1639      1642      1644
      1640      1639      1642      1665      1641      1639      1642      1643
      1641      1639      1642      1644      1641      1639      1642      1665
      1642      1644      1646      1647      1642      1644      1646      1648
      1642      1644      1646      1649      1642      1644      1654      1652
      1642      1644      1654      1655      1642      1644      1654      1659
      1642      1665      1662      1659      1642      1665      1662      1663
      1642      1665      1662      1664      1642      1665      1667      1668
      1642      1665      1667      1672      1643      1642      1644      1645
      1643      1642      1644      1646      1643      1642      1644      1654
      1643      1642      1665      1662      1643      1642      1665      1666
      1643      1642      1665      1667      1644      1642      1665      1662
      1644      1642      1665      1666      1644      1642      1665      1667
      1644      1646      1649      1650      1644      1646      1649      1651
      1644      1646      1649      1652      1644      1654      1652      1649
      1644      1654      1652      1653      1644      1654      1652      1678
      1644      1654      1655      1656      1644      1654      1655      1657
      1644      1654      1655      1658      1644      1654      1659      1660
      1644      1654      1659      1661      1644      1654      1659      1662
      1645      1644      1642      1665      1645      1644      1646      1647
      1645      1644      1646      1648      1645      1644      1646      1649
      1645      1644      1654      1652      1645      1644      1654      1655
      1645      1644      1654      1659      1646      1644      1642      1665
      1646      1644      1654      1652      1646      1644      1654      1655
      1646      1644      1654      1659      1646      1649      1652      1653
      1646      1649      1652      1654      1646      1649      1652      1678
      1647      1646      1644      1654      1647      1646      1649      1650
      1647      1646      1649      1651      1647      1646      1649      1652
      1648      1646      1644      1654      1648      1646      1649      1650
      1648      1646      1649      1651      1648      1646      1649      1652
      1649      1646      1644      1654      1649      1652      1654      1655
      1649      1652      1654      1659      1649      1652      1678      1679
      1649      1652      1678      1680      1649      1652      1678      1684
      1650      1649      1652      1653      1650      1649      1652      1654
      1650      1649      1652      1678      1651      1649      1652      1653
      1651      1649      1652      1654      1651      1649      1652      1678
      1652      1654      1655      1656      1652      1654      1655      1657
      1652      1654      1655      1658      1652      1654      1659      1660
      1652      1654      1659      1661      1652      1654      1659      1662
      1652      1678      1680      1681      1652      1678      1680      1682
      1652      1678      1680      1683      1652      1678      1684      1685
      1652      1678      1684      1686      1652      1678      1684      1687
      1653      1652      1654      1655      1653      1652      1654      1659
      1653      1652      1678      1679      1653      1652      1678      1680
      1653      1652      1678      1684      1654      1644      1642      1665
      1654      1652      1678      1679      1654      1652      1678      1680
      1654      1652      1678      1684      1654      1659      1662      1663
      1654      1659      1662      1664      1654      1659      1662      1665
      1655      1654      1652      1678      1655      1654      1659      1660
      1655      1654      1659      1661      1655      1654      1659      1662
      1656      1655      1654      1659      1657      1655      1654      1659
      1658      1655      1654      1659      1659      1654      1652      1678
      1659      1662      1665      1666      1659      1662      1665      1667
      1660      1659      1662      1663      1660      1659      1662      1664
      1660      1659      1662      1665      1661      1659      1662      1663
      1661      1659      1662      1664      1661      1659      1662      1665
      1662      1665      1667      1668      1662      1665      1667      1672
      1663      1662      1665      1666      1663      1662      1665      1667
      1664      1662      1665      1666      1664      1662      1665      1667
      1665      1667      1668      1669      1665      1667      1668      1670
      1665      1667      1668      1671      1665      1667      1672      1673
      1665      1667      1672      1674      1665      1667      1672      1675
      1666      1665      1667      1668      1666      1665      1667      1672
      1667      1672      1675      1676      1667      1672      1675      1677
      1668      1667      1672      1673      1668      1667      1672      1674
      1668      1667      1672      1675      1669      1668      1667      1672
      1670      1668      1667      1672      1671      1668      1667      1672
      1673      1672      1675      1676      1673      1672      1675      1677
      1674      1672      1675      1676      1674      1672      1675      1677
      1678      1684      1687      1688      1678      1684      1687      1689
      1678      1684      1687      1690      1679      1678      1680      1681
      1679      1678      1680      1682      1679      1678      1680      1683
      1679      1678      1684      1685      1679      1678      1684      1686
      1679      1678      1684      1687      1680      1678      1684      1685
      1680      1678      1684      1686      1680      1678      1684      1687
      1681      1680      1678      1684      1682      1680      1678      1684
      1683      1680      1678      1684      1684      1687      1690      1691
      1684      1687      1690      1692      1684      1687      1690      1693
      1685      1684      1687      1688      1685      1684      1687      1689
      1685      1684      1687      1690      1686      1684      1687      1688
      1686      1684      1687      1689      1686      1684      1687      1690
      1687      1690      1693      1694      1687      1690      1693      1695
      1687      1690      1693      1699      1688      1687      1690      1691
      1688      1687      1690      1692      1688      1687      1690      1693
      1689      1687      1690      1691      1689      1687      1690      1692
      1689      1687      1690      1693      1690      1693      1695      1696
      1690      1693      1695      1697      1690      1693      1695      1698
      1690      1693      1699      1700      1690      1693      1699      1701
      1690      1693      1699      1702      1691      1690      1693      1694
      1691      1690      1693      1695      1691      1690      1693      1699
      1692      1690      1693      1694      1692      1690      1693      1695
      1692      1690      1693      1699      1694      1693      1695      1696
      1694      1693      1695      1697      1694      1693      1695      1698
      1694      1693      1699      1700      1694      1693      1699      1701
      1694      1693      1699      1702      1695      1693      1699      1700
      1695      1693      1699      1701      1695      1693      1699      1702
      1696      1695      1693      1699      1697      1695      1693      1699
      1698      1695      1693      1699      1703      1707      1710      1711
      1703      1707      1710      1741      1703      1749      1746      1741
      1703      1749      1746      1747      1703      1749      1746      1748
      1704      1703      1705      1706      1704      1703      1707      1708
      1704      1703      1707      1709      1704      1703      1707      1710
      1704      1703      1749      1746      1704      1703      1749      1750
      1704      1703      1749      1751      1705      1703      1707      1708
      1705      1703      1707      1709      1705      1703      1707      1710
      1705      1703      1749      1746      1705      1703      1749      1750
      1705      1703      1749      1751      1706      1705      1703      1707
      1706      1705      1703      1749      1707      1703      1749      1746
      1707      1703      1749      1750      1707      1703      1749      1751
      1707      1710      1711      1712      1707      1710      1711      1713
      1707      1710      1741      1739      1707      1710      1741      1742
      1707      1710      1741      1746      1708      1707      1703      1749
      1708      1707      1710      1711      1708      1707      1710      1741
      1709      1707      1703      1749      1709      1707      1710      1711
      1709      1707      1710      1741      1710      1707      1703      1749
      1710      1711      1713      1714      1710      1711      1713      1715
      1710      1711      1713      1716      1710      1741      1739      1716
      1710      1741      1739      1736      1710      1741      1739      1740
      1710      1741      1742      1743      1710      1741      1742      1744
      1710      1741      1742      1745      1710      1741      1746      1747
      1710      1741      1746      1748      1710      1741      1746      1749
      1711      1710      1741      1739      1711      1710      1741      1742
      1711      1710      1741      1746      1711      1713      1716      1717
      1711      1713      1716      1718      1711      1713      1716      1739
      1712      1711      1710      1741      1712      1711      1713      1714
      1712      1711      1713      1715      1712      1711      1713      1716
      1713      1711      1710      1741      1713      1716      1718      1719
      1713      1716      1718      1720      1713      1716      1718      1728
      1713      1716      1739      1736      1713      1716      1739      1740
      1713      1716      1739      1741      1714      1713      1716      1717
      1714      1713      1716      1718      1714      1713      1716      1739
      1715      1713      1716      1717      1715      1713      1716      1718
      1715      1713      1716      1739      1716      1718      1720      1721
      1716      1718      1720      1722      1716      1718      1720      1723
      1716      1718      1728      1726      1716      1718      1728      1729
      1716      1718      1728      1733      1716      1739      1736      1733
      1716      1739      1736      1737      1716      1739      1736      1738
      1716      1739      1741      1742      1716      1739      1741      1746
      1717      1716      1718      1719      1717      1716      1718      1720
      1717      1716      1718      1728      1717      1716      1739      1736
      1717      1716      1739      1740      1717      1716      1739      1741
      1718      1716      1739      1736      1718      1716      1739      1740
      1718      1716      1739      1741      1718      1720      1723      1724
      1718      1720      1723      1725      1718      1720      1723      1726
      1718      1728      1726      1723      1718      1728      1726      1727
      1718      1728      1726      1752      1718      1728      1729      1730
      1718      1728      1729      1731      1718      1728      1729      1732
      1718      1728      1733      1734      1718      1728      1733      1735
      1718      1728      1733      1736      1719      1718      1716      1739
      1719      1718      1720      1721      1719      1718      1720      1722
      1719      1718      1720      1723      1719      1718      1728      1726
      1719      1718      1728      1729      1719      1718      1728      1733
      1720      1718      1716      1739      1720      1718      1728      1726
      1720      1718      1728      1729      1720      1718      1728      1733
      1720      1723      1726      1727      1720      1723      1726      1728
      1720      1723      1726      1752      1721      1720      1718      1728
      1721      1720      1723      1724      1721      1720      1723      1725
      1721      1720      1723      1726      1722      1720      1718      1728
      1722      1720      1723      1724      1722      1720      1723      1725
      1722      1720      1723      1726      1723      1720      1718      1728
      1723      1726      1728      1729      1723      1726      1728      1733
      1723      1726      1752      1753      1723      1726      1752      1754
      1723      1726      1752      1758      1724      1723      1726      1727
      1724      1723      1726      1728      1724      1723      1726      1752
      1725      1723      1726      1727      1725      1723      1726      1728
      1725      1723      1726      1752      1726      1728      1729      1730
      1726      1728      1729      1731      1726      1728      1729      1732
      1726      1728      1733      1734      1726      1728      1733      1735
      1726      1728      1733      1736      1726      1752      1754      1755
      1726      1752      1754      1756      1726      1752      1754      1757
      1726      1752      1758      1759      1726      1752      1758      1760
      1726      1752      1758      1761      1727      1726      1728      1729
      1727      1726      1728      1733      1727      1726      1752      1753
      1727      1726      1752      1754      1727      1726      1752      1758
      1728      1718      1716      1739      1728      1726      1752      1753
      1728      1726      1752      1754      1728      1726      1752      1758
      1728      1733      1736      1737      1728      1733      1736      1738
      1728      1733      1736      1739      1729      1728      1726      1752
      1729      1728      1733      1734      1729      1728      1733      1735
      1729      1728      1733      1736      1730      1729      1728      1733
      1731      1729      1728      1733      1732      1729      1728      1733
      1733      1728      1726      1752      1733      1736      1739      1740
      1733      1736      1739      1741      1734      1733      1736      1737
      1734      1733      1736      1738      1734      1733      1736      1739
      1735      1733      1736      1737      1735      1733      1736      1738
      1735      1733      1736      1739      1736      1739      1741      1742
      1736      1739      1741      1746      1737      1736      1739      1740
      1737      1736      1739      1741      1738      1736      1739      1740
      1738      1736      1739      1741      1739      1741      1742      1743
      1739      1741      1742      1744      1739      1741      1742      1745
      1739      1741      1746      1747      1739      1741      1746      1748
      1739      1741      1746      1749      1740      1739      1741      1742
      1740      1739      1741      1746      1741      1746      1749      1750
      1741      1746      1749      1751      1742      1741      1746      1747
      1742      1741      1746      1748      1742      1741      1746      1749
      1743      1742      1741      1746      1744      1742      1741      1746
      1745      1742      1741      1746      1747      1746      1749      1750
      1747      1746      1749      1751      1748      1746      1749      1750
      1748      1746      1749      1751      1752      1758      1761      1762
      1752      1758      1761      1763      1752      1758      1761      1764
      1753      1752      1754      1755      1753      1752      1754      1756
      1753      1752      1754      1757      1753      1752      1758      1759
      1753      1752      1758      1760      1753      1752      1758      1761
      1754      1752      1758      1759      1754      1752      1758      1760
      1754      1752      1758      1761      1755      1754      1752      1758
      1756      1754      1752      1758      1757      1754      1752      1758
      1758      1761      1764      1765      1758      1761      1764      1766
      1758      1761      1764      1767      1759      1758      1761      1762
      1759      1758      1761      1763      1759      1758      1761      1764
      1760      1758      1761      1762      1760      1758      1761      1763
      1760      1758      1761      1764      1761      1764      1767      1768
      1761      1764      1767      1769      1761      1764      1767      1773
      1762      1761      1764      1765      1762      1761      1764      1766
      1762      1761      1764      1767      1763      1761      1764      1765
      1763      1761      1764      1766      1763      1761      1764      1767
      1764      1767      1769      1770      1764      1767      1769      1771
      1764      1767      1769      1772      1764      1767      1773      1774
      1764      1767      1773      1775      1764      1767      1773      1776
      1765      1764      1767      1768      1765      1764      1767      1769
      1765      1764      1767      1773      1766      1764      1767      1768
      1766      1764      1767      1769      1766      1764      1767      1773
      1768      1767      1769      1770      1768      1767      1769      1771
      1768      1767      1769      1772      1768      1767      1773      1774
      1768      1767      1773      1775      1768      1767      1773      1776
      1769      1767      1773      1774      1769      1767      1773      1775
      1769      1767      1773      1776      1770      1769      1767      1773
      1771      1769      1767      1773      1772      1769      1767      1773
      1777      1781      1784      1785      1777      1781      1784      1815
      1777      1823      1820      1815      1777      1823      1820      1821
      1777      1823      1820      1822      1778      1777      1779      1780
      1778      1777      1781      1782      1778      1777      1781      1783
      1778      1777      1781      1784      1778      1777      1823      1820
      1778      1777      1823      1824      1778      1777      1823      1825
      1779      1777      1781      1782      1779      1777      1781      1783
      1779      1777      1781      1784      1779      1777      1823      1820
      1779      1777      1823      1824      1779      1777      1823      1825
      1780      1779      1777      1781      1780      1779      1777      1823
      1781      1777      1823      1820      1781      1777      1823      1824
      1781      1777      1823      1825      1781      1784      1785      1786
      1781      1784      1785      1787      1781      1784      1815      1813
      1781      1784      1815      1816      1781      1784      1815      1820
      1782      1781      1777      1823      1782      1781      1784      1785
      1782      1781      1784      1815      1783      1781      1777      1823
      1783      1781      1784      1785      1783      1781      1784      1815
      1784      1781      1777      1823      1784      1785      1787      1788
      1784      1785      1787      1789      1784      1785      1787      1790
      1784      1815      1813      1790      1784      1815      1813      1810
      1784      1815      1813      1814      1784      1815      1816      1817
      1784      1815      1816      1818      1784      1815      1816      1819
      1784      1815      1820      1821      1784      1815      1820      1822
      1784      1815      1820      1823      1785      1784      1815      1813
      1785      1784      1815      1816      1785      1784      1815      1820
      1785      1787      1790      1791      1785      1787      1790      1792
      1785      1787      1790      1813      1786      1785      1784      1815
      1786      1785      1787      1788      1786      1785      1787      1789
      1786      1785      1787      1790      1787      1785      1784      1815
      1787      1790      1792      1793      1787      1790      1792      1794
      1787      1790      1792      1802      1787      1790      1813      1810
      1787      1790      1813      1814      1787      1790      1813      1815
      1788      1787      1790      1791      1788      1787      1790      1792
      1788      1787      1790      1813      1789      1787      1790      1791
      1789      1787      1790      1792      1789      1787      1790      1813
      1790      1792      1794      1795      1790      1792      1794      1796
      1790      1792      1794      1797      1790      1792      1802      1800
      1790      1792      1802      1803      1790      1792      1802      1807
      1790      1813      1810      1807      1790      1813      1810      1811
      1790      1813      1810      1812      1790      1813      1815      1816
      1790      1813      1815      1820      1791      1790      1792      1793
      1791      1790      1792      1794      1791      1790      1792      1802
      1791      1790      1813      1810      1791      1790      1813      1814
      1791      1790      1813      1815      1792      1790      1813      1810
      1792      1790      1813      1814      1792      1790      1813      1815
      1792      1794      1797      1798      1792      1794      1797      1799
      1792      1794      1797      1800      1792      1802      1800      1797
      1792      1802      1800      1801      1792      1802      1800      1826
      1792      1802      1803      1804      1792      1802      1803      1805
      1792      1802      1803      1806      1792      1802      1807      1808
      1792      1802      1807      1809      1792      1802      1807      1810
      1793      1792      1790      1813      1793      1792      1794      1795
      1793      1792      1794      1796      1793      1792      1794      1797
      1793      1792      1802      1800      1793      1792      1802      1803
      1793      1792      1802      1807      1794      1792      1790      1813
      1794      1792      1802      1800      1794      1792      1802      1803
      1794      1792      1802      1807      1794      1797      1800      1801
      1794      1797      1800      1802      1794      1797      1800      1826
      1795      1794      1792      1802      1795      1794      1797      1798
      1795      1794      1797      1799      1795      1794      1797      1800
      1796      1794      1792      1802      1796      1794      1797      1798
      1796      1794      1797      1799      1796      1794      1797      1800
      1797      1794      1792      1802      1797      1800      1802      1803
      1797      1800      1802      1807      1797      1800      1826      1827
      1797      1800      1826      1828      1797      1800      1826      1832
      1798      1797      1800      1801      1798      1797      1800      1802
      1798      1797      1800      1826      1799      1797      1800      1801
      1799      1797      1800      1802      1799      1797      1800      1826
      1800      1802      1803      1804      1800      1802      1803      1805
      1800      1802      1803      1806      1800      1802      1807      1808
      1800      1802      1807      1809      1800      1802      1807      1810
      1800      1826      1828      1829      1800      1826      1828      1830
      1800      1826      1828      1831      1800      1826      1832      1833
      1800      1826      1832      1834      1800      1826      1832      1835
      1801      1800      1802      1803      1801      1800      1802      1807
      1801      1800      1826      1827      1801      1800      1826      1828
      1801      1800      1826      1832      1802      1792      1790      1813
      1802      1800      1826      1827      1802      1800      1826      1828
      1802      1800      1826      1832      1802      1807      1810      1811
      1802      1807      1810      1812      1802      1807      1810      1813
      1803      1802      1800      1826      1803      1802      1807      1808
      1803      1802      1807      1809      1803      1802      1807      1810
      1804      1803      1802      1807      1805      1803      1802      1807
      1806      1803      1802      1807      1807      1802      1800      1826
      1807      1810      1813      1814      1807      1810      1813      1815
      1808      1807      1810      1811      1808      1807      1810      1812
      1808      1807      1810      1813      1809      1807      1810      1811
      1809      1807      1810      1812      1809      1807      1810      1813
      1810      1813      1815      1816      1810      1813      1815      1820
      1811      1810      1813      1814      1811      1810      1813      1815
      1812      1810      1813      1814      1812      1810      1813      1815
      1813      1815      1816      1817      1813      1815      1816      1818
      1813      1815      1816      1819      1813      1815      1820      1821
      1813      1815      1820      1822      1813      1815      1820      1823
      1814      1813      1815      1816      1814      1813      1815      1820
      1815      1820      1823      1824      1815      1820      1823      1825
      1816      1815      1820      1821      1816      1815      1820      1822
      1816      1815      1820      1823      1817      1816      1815      1820
      1818      1816      1815      1820      1819      1816      1815      1820
      1821      1820      1823      1824      1821      1820      1823      1825
      1822      1820      1823      1824      1822      1820      1823      1825
      1826      1832      1835      1836      1826      1832      1835      1837
      1826      1832      1835      1838      1827      1826      1828      1829
      1827      1826      1828      1830      1827      1826      1828      1831
      1827      1826      1832      1833      1827      1826      1832      1834
      1827      1826      1832      1835      1828      1826      1832      1833
      1828      1826      1832      1834      1828      1826      1832      1835
      1829      1828      1826      1832      1830      1828      1826      1832
      1831      1828      1826      1832      1832      1835      1838      1839
      1832      1835      1838      1840      1832      1835      1838      1841
      1833      1832      1835      1836      1833      1832      1835      1837
      1833      1832      1835      1838      1834      1832      1835      1836
      1834      1832      1835      1837      1834      1832      1835      1838
      1835      1838      1841      1842      1835      1838      1841      1843
      1835      1838      1841      1847      1836      1835      1838      1839
      1836      1835      1838      1840      1836      1835      1838      1841
      1837      1835      1838      1839      1837      1835      1838      1840
      1837      1835      1838      1841      1838      1841      1843      1844
      1838      1841      1843      1845      1838      1841      1843      1846
      1838      1841      1847      1848      1838      1841      1847      1849
      1838      1841      1847      1850      1839      1838      1841      1842
      1839      1838      1841      1843      1839      1838      1841      1847
      1840      1838      1841      1842      1840      1838      1841      1843
      1840      1838      1841      1847      1842      1841      1843      1844
      1842      1841      1843      1845      1842      1841      1843      1846
      1842      1841      1847      1848      1842      1841      1847      1849
      1842      1841      1847      1850      1843      1841      1847      1848
      1843      1841      1847      1849      1843      1841      1847      1850
      1844      1843      1841      1847      1845      1843      1841      1847
      1846      1843      1841      1847      1851      1855      1858      1859
      1851      1855      1858      1889      1851      1897      1894      1889
      1851      1897      1894      1895      1851      1897      1894      1896
      1852      1851      1853      1854      1852      1851      1855      1856
      1852      1851      1855      1857      1852      1851      1855      1858
      1852      1851      1897      1894      1852      1851      1897      1898
      1852      1851      1897      1899      1853      1851      1855      1856
      1853      1851      1855      1857      1853      1851      1855      1858
      1853      1851      1897      1894      1853      1851      1897      1898
      1853      1851      1897      1899      1854      1853      1851      1855
      1854      1853      1851      1897      1855      1851      1897      1894
      1855      1851      1897      1898      1855      1851      1897      1899
      1855      1858      1859      1860      1855      1858      1859      1861
      1855      1858      1889      1887      1855      1858      1889      1890
      1855      1858      1889      1894      1856      1855      1851      1897
      1856      1855      1858      1859      1856      1855      1858      1889
      1857      1855      1851      1897      1857      1855      1858      1859
      1857      1855      1858      1889      1858      1855      1851      1897
      1858      1859      1861      1862      1858      1859      1861      1863
      1858      1859      1861      1864      1858      1889      1887      1864
      1858      1889      1887      1884      1858      1889      1887      1888
      1858      1889      1890      1891      1858      1889      1890      1892
      1858      1889      1890      1893      1858      1889      1894      1895
      1858      1889      1894      1896      1858      1889      1894      1897
      1859      1858      1889      1887      1859      1858      1889      1890
      1859      1858      1889      1894      1859      1861      1864      1865
      1859      1861      1864      1866      1859      1861      1864      1887
      1860      1859      1858      1889      1860      1859      1861      1862
      1860      1859      1861      1863      1860      1859      1861      1864
      1861      1859      1858      1889      1861      1864      1866      1867
      1861      1864      1866      1868      1861      1864      1866      1876
      1861      1864      1887      1884      1861      1864      1887      1888
      1861      1864      1887      1889      1862      1861      1864      1865
      1862      1861      1864      1866      1862      1861      1864      1887
      1863      1861      1864      1865      1863      1861      1864      1866
      1863      1861      1864      1887      1864      1866      1868      1869
      1864      1866      1868      1870      1864      1866      1868      1871
      1864      1866      1876      1874      1864      1866      1876      1877
      1864      1866      1876      1881      1864      1887      1884      1881
      1864      1887      1884      1885      1864      1887      1884      1886
      1864      1887      1889      1890      1864      1887      1889      1894
      1865      1864      1866      1867      1865      1864      1866      1868
      1865      1864      1866      1876      1865      1864      1887      1884
      1865      1864      1887      1888      1865      1864      1887      1889
      1866      1864      1887      1884      1866      1864      1887      1888
      1866      1864      1887      1889      1866      1868      1871      1872
      1866      1868      1871      1873      1866      1868      1871      1874
      1866      1876      1874      1871      1866      1876      1874      1875
      1866      1876      1874      1900      1866      1876      1877      1878
      1866      1876      1877      1879      1866      1876      1877      1880
      1866      1876      1881      1882      1866      1876      1881      1883
      1866      1876      1881      1884      1867      1866      1864      1887
      1867      1866      1868      1869      1867      1866      1868      1870
      1867      1866      1868      1871      1867      1866      1876      1874
      1867      1866      1876      1877      1867      1866      1876      1881
      1868      1866      1864      1887      1868      1866      1876      1874
      1868      1866      1876      1877      1868      1866      1876      1881
      1868      1871      1874      1875      1868      1871      1874      1876
      1868      1871      1874      1900      1869      1868      1866      1876
      1869      1868      1871      1872      1869      1868      1871      1873
      1869      1868      1871      1874      1870      1868      1866      1876
      1870      1868      1871      1872      1870      1868      1871      1873
      1870      1868      1871      1874      1871      1868      1866      1876
      1871      1874      1876      1877      1871      1874      1876      1881
      1871      1874      1900      1901      1871      1874      1900      1902
      1871      1874      1900      1906      1872      1871      1874      1875
      1872      1871      1874      1876      1872      1871      1874      1900
      1873      1871      1874      1875      1873      1871      1874      1876
      1873      1871      1874      1900      1874      1876      1877      1878
      1874      1876      1877      1879      1874      1876      1877      1880
      1874      1876      1881      1882      1874      1876      1881      1883
      1874      1876      1881      1884      1874      1900      1902      1903
      1874      1900      1902      1904      1874      1900      1902      1905
      1874      1900      1906      1907      1874      1900      1906      1908
      1874      1900      1906      1909      1875      1874      1876      1877
      1875      1874      1876      1881      1875      1874      1900      1901
      1875      1874      1900      1902      1875      1874      1900      1906
      1876      1866      1864      1887      1876      1874      1900      1901
      1876      1874      1900      1902      1876      1874      1900      1906
      1876      1881      1884      1885      1876      1881      1884      1886
      1876      1881      1884      1887      1877      1876      1874      1900
      1877      1876      1881      1882      1877      1876      1881      1883
      1877      1876      1881      1884      1878      1877      1876      1881
      1879      1877      1876      1881      1880      1877      1876      1881
      1881      1876      1874      1900      1881      1884      1887      1888
      1881      1884      1887      1889      1882      1881      1884      1885
      1882      1881      1884      1886      1882      1881      1884      1887
      1883      1881      1884      1885      1883      1881      1884      1886
      1883      1881      1884      1887      1884      1887      1889      1890
      1884      1887      1889      1894      1885      1884      1887      1888
      1885      1884      1887      1889      1886      1884      1887      1888
      1886      1884      1887      1889      1887      1889      1890      1891
      1887      1889      1890      1892      1887      1889      1890      1893
      1887      1889      1894      1895      1887      1889      1894      1896
      1887      1889      1894      1897      1888      1887      1889      1890
      1888      1887      1889      1894      1889      1894      1897      1898
      1889      1894      1897      1899      1890      1889      1894      1895
      1890      1889      1894      1896      1890      1889      1894      1897
      1891      1890      1889      1894      1892      1890      1889      1894
      1893      1890      1889      1894      1895      1894      1897      1898
      1895      1894      1897      1899      1896      1894      1897      1898
      1896      1894      1897      1899      1900      1906      1909      1910
      1900      1906      1909      1911      1900      1906      1909      1912
      1901      1900      1902      1903      1901      1900      1902      1904
      1901      1900      1902      1905      1901      1900      1906      1907
      1901      1900      1906      1908      1901      1900      1906      1909
      1902      1900      1906      1907      1902      1900      1906      1908
      1902      1900      1906      1909      1903      1902      1900      1906
      1904      1902      1900      1906      1905      1902      1900      1906
      1906      1909      1912      1913      1906      1909      1912      1914
      1906      1909      1912      1915      1907      1906      1909      1910
      1907      1906      1909      1911      1907      1906      1909      1912
      1908      1906      1909      1910      1908      1906      1909      1911
      1908      1906      1909      1912      1909      1912      1915      1916
      1909      1912      1915      1917      1909      1912      1915      1921
      1910      1909      1912      1913      1910      1909      1912      1914
      1910      1909      1912      1915      1911      1909      1912      1913
      1911      1909      1912      1914      1911      1909      1912      1915
      1912      1915      1917      1918      1912      1915      1917      1919
      1912      1915      1917      1920      1912      1915      1921      1922
      1912      1915      1921      1923      1912      1915      1921      1924
      1913      1912      1915      1916      1913      1912      1915      1917
      1913      1912      1915      1921      1914      1912      1915      1916
      1914      1912      1915      1917      1914      1912      1915      1921
      1916      1915      1917      1918      1916      1915      1917      1919
      1916      1915      1917      1920      1916      1915      1921      1922
      1916      1915      1921      1923      1916      1915      1921      1924
      1917      1915      1921      1922      1917      1915      1921      1923
      1917      1915      1921      1924      1918      1917      1915      1921
      1919      1917      1915      1921      1920      1917      1915      1921
      1925      1929      1932      1933      1925      1929      1932      1963
      1925      1971      1968      1963      1925      1971      1968      1969
      1925      1971      1968      1970      1926      1925      1927      1928
      1926      1925      1929      1930      1926      1925      1929      1931
      1926      1925      1929      1932      1926      1925      1971      1968
      1926      1925      1971      1972      1926      1925      1971      1973
      1927      1925      1929      1930      1927      1925      1929      1931
      1927      1925      1929      1932      1927      1925      1971      1968
      1927      1925      1971      1972      1927      1925      1971      1973
      1928      1927      1925      1929      1928      1927      1925      1971
      1929      1925      1971      1968      1929      1925      1971      1972
      1929      1925      1971      1973      1929      1932      1933      1934
      1929      1932      1933      1935      1929      1932      1963      1961
      1929      1932      1963      1964      1929      1932      1963      1968
      1930      1929      1925      1971      1930      1929      1932      1933
      1930      1929      1932      1963      1931      1929      1925      1971
      1931      1929      1932      1933      1931      1929      1932      1963
      1932      1929      1925      1971      1932      1933      1935      1936
      1932      1933      1935      1937      1932      1933      1935      1938
      1932      1963      1961      1938      1932      1963      1961      1958
      1932      1963      1961      1962      1932      1963      1964      1965
      1932      1963      1964      1966      1932      1963      1964      1967
      1932      1963      1968      1969      1932      1963      1968      1970
      1932      1963      1968      1971      1933      1932      1963      1961
      1933      1932      1963      1964      1933      1932      1963      1968
      1933      1935      1938      1939      1933      1935      1938      1940
      1933      1935      1938      1961      1934      1933      1932      1963
      1934      1933      1935      1936      1934      1933      1935      1937
      1934      1933      1935      1938      1935      1933      1932      1963
      1935      1938      1940      1941      1935      1938      1940      1942
      1935      1938      1940      1950      1935      1938      1961      1958
      1935      1938      1961      1962      1935      1938      1961      1963
      1936      1935      1938      1939      1936      1935      1938      1940
      1936      1935      1938      1961      1937      1935      1938      1939
      1937      1935      1938      1940      1937      1935      1938      1961
      1938      1940      1942      1943      1938      1940      1942      1944
      1938      1940      1942      1945      1938      1940      1950      1948
      1938      1940      1950      1951      1938      1940      1950      1955
      1938      1961      1958      1955      1938      1961      1958      1959
      1938      1961      1958      1960      1938      1961      1963      1964
      1938      1961      1963      1968      1939      1938      1940      1941
      1939      1938      1940      1942      1939      1938      1940      1950
      1939      1938      1961      1958      1939      1938      1961      1962
      1939      1938      1961      1963      1940      1938      1961      1958
      1940      1938      1961      1962      1940      1938      1961      1963
      1940      1942      1945      1946      1940      1942      1945      1947
      1940      1942      1945      1948      1940      1950      1948      1945
      1940      1950      1948      1949      1940      1950      1948      1974
      1940      1950      1951      1952      1940      1950      1951      1953
      1940      1950      1951      1954      1940      1950      1955      1956
      1940      1950      1955      1957      1940      1950      1955      1958
      1941      1940      1938      1961      1941      1940      1942      1943
      1941      1940      1942      1944      1941      1940      1942      1945
      1941      1940      1950      1948      1941      1940      1950      1951
      1941      1940      1950      1955      1942      1940      1938      1961
      1942      1940      1950      1948      1942      1940      1950      1951
      1942      1940      1950      1955      1942      1945      1948      1949
      1942      1945      1948      1950      1942      1945      1948      1974
      1943      1942      1940      1950      1943      1942      1945      1946
      1943      1942      1945      1947      1943      1942      1945      1948
      1944      1942      1940      1950      1944      1942      1945      1946
      1944      1942      1945      1947      1944      1942      1945      1948
      1945      1942      1940      1950      1945      1948      1950      1951
      1945      1948      1950      1955      1945      1948      1974      1975
      1945      1948      1974      1976      1945      1948      1974      1980
      1946      1945      1948      1949      1946      1945      1948      1950
      1946      1945      1948      1974      1947      1945      1948      1949
      1947      1945      1948      1950      1947      1945      1948      1974
      1948      1950      1951      1952      1948      1950      1951      1953
      1948      1950      1951      1954      1948      1950      1955      1956
      1948      1950      1955      1957      1948      1950      1955      1958
      1948      1974      1976      1977      1948      1974      1976      1978
      1948      1974      1976      1979      1948      1974      1980      1981
      1948      1974      1980      1982      1948      1974      1980      1983
      1949      1948      1950      1951      1949      1948      1950      1955
      1949      1948      1974      1975      1949      1948      1974      1976
      1949      1948      1974      1980      1950      1940      1938      1961
      1950      1948      1974      1975      1950      1948      1974      1976
      1950      1948      1974      1980      1950      1955      1958      1959
      1950      1955      1958      1960      1950      1955      1958      1961
      1951      1950      1948      1974      1951      1950      1955      1956
      1951      1950      1955      1957      1951      1950      1955      1958
      1952      1951      1950      1955      1953      1951      1950      1955
      1954      1951      1950      1955      1955      1950      1948      1974
      1955      1958      1961      1962      1955      1958      1961      1963
      1956      1955      1958      1959      1956      1955      1958      1960
      1956      1955      1958      1961      1957      1955      1958      1959
      1957      1955      1958      1960      1957      1955      1958      1961
      1958      1961      1963      1964      1958      1961      1963      1968
      1959      1958      1961      1962      1959      1958      1961      1963
      1960      1958      1961      1962      1960      1958      1961      1963
      1961      1963      1964      1965      1961      1963      1964      1966
      1961      1963      1964      1967      1961      1963      1968      1969
      1961      1963      1968      1970      1961      1963      1968      1971
      1962      1961      1963      1964      1962      1961      1963      1968
      1963      1968      1971      1972      1963      1968      1971      1973
      1964      1963      1968      1969      1964      1963      1968      1970
      1964      1963      1968      1971      1965      1964      1963      1968
      1966      1964      1963      1968      1967      1964      1963      1968
      1969      1968      1971      1972      1969      1968      1971      1973
      1970      1968      1971      1972      1970      1968      1971      1973
      1974      1980      1983      1984      1974      1980      1983      1985
      1974      1980      1983      1986      1975      1974      1976      1977
      1975      1974      1976      1978      1975      1974      1976      1979
      1975      1974      1980      1981      1975      1974      1980      1982
      1975      1974      1980      1983      1976      1974      1980      1981
      1976      1974      1980      1982      1976      1974      1980      1983
      1977      1976      1974      1980      1978      1976      1974      1980
      1979      1976      1974      1980      1980      1983      1986      1987
      1980      1983      1986      1988      1980      1983      1986      1989
      1981      1980      1983      1984      1981      1980      1983      1985
      1981      1980      1983      1986      1982      1980      1983      1984
      1982      1980      1983      1985      1982      1980      1983      1986
      1983      1986      1989      1990      1983      1986      1989      1991
      1983      1986      1989      1995      1984      1983      1986      1987
      1984      1983      1986      1988      1984      1983      1986      1989
      1985      1983      1986      1987      1985      1983      1986      1988
      1985      1983      1986      1989      1986      1989      1991      1992
      1986      1989      1991      1993      1986      1989      1991      1994
      1986      1989      1995      1996      1986      1989      1995      1997
      1986      1989      1995      1998      1987      1986      1989      1990
      1987      1986      1989      1991      1987      1986      1989      1995
      1988      1986      1989      1990      1988      1986      1989      1991
      1988      1986      1989      1995      1990      1989      1991      1992
      1990      1989      1991      1993      1990      1989      1991      1994
      1990      1989      1995      1996      1990      1989      1995      1997
      1990      1989      1995      1998      1991      1989      1995      1996
      1991      1989      1995      1997      1991      1989      1995      1998
      1992      1991      1989      1995      1993      1991      1989      1995
      1994      1991      1989      1995      1999      2003      2006      2007
      1999      2003      2006      2037      1999      2045      2042      2037
      1999      2045      2042      2043      1999      2045      2042      2044
      2000      1999      2001      2002      2000      1999      2003      2004
      2000      1999      2003      2005      2000      1999      2003      2006
      2000      1999      2045      2042      2000      1999      2045      2046
      2000      1999      2045      2047      2001      1999      2003      2004
      2001      1999      2003      2005      2001      1999      2003      2006
      2001      1999      2045      2042      2001      1999      2045      2046
      2001      1999      2045      2047      2002      2001      1999      2003
      2002      2001      1999      2045      2003      1999      2045      2042
      2003      1999      2045      2046      2003      1999      2045      2047
      2003      2006      2007      2008      2003      2006      2007      2009
      2003      2006      2037      2035      2003      2006      2037      2038
      2003      2006      2037      2042      2004      2003      1999      2045
      2004      2003      2006      2007      2004      2003      2006      2037
      2005      2003      1999      2045      2005      2003      2006      2007
      2005      2003      2006      2037      2006      2003      1999      2045
      2006      2007      2009      2010      2006      2007      2009      2011
      2006      2007      2009      2012      2006      2037      2035      2012
      2006      2037      2035      2032      2006      2037      2035      2036
      2006      2037      2038      2039      2006      2037      2038      2040
      2006      2037      2038      2041      2006      2037      2042      2043
      2006      2037      2042      2044      2006      2037      2042      2045
      2007      2006      2037      2035      2007      2006      2037      2038
      2007      2006      2037      2042      2007      2009      2012      2013
      2007      2009      2012      2014      2007      2009      2012      2035
      2008      2007      2006      2037      2008      2007      2009      2010
      2008      2007      2009      2011      2008      2007      2009      2012
      2009      2007      2006      2037      2009      2012      2014      2015
      2009      2012      2014      2016      2009      2012      2014      2024
      2009      2012      2035      2032      2009      2012      2035      2036
      2009      2012      2035      2037      2010      2009      2012      2013
      2010      2009      2012      2014      2010      2009      2012      2035
      2011      2009      2012      2013      2011      2009      2012      2014
      2011      2009      2012      2035      2012      2014      2016      2017
      2012      2014      2016      2018      2012      2014      2016      2019
      2012      2014      2024      2022      2012      2014      2024      2025
      2012      2014      2024      2029      2012      2035      2032      2029
      2012      2035      2032      2033      2012      2035      2032      2034
      2012      2035      2037      2038      2012      2035      2037      2042
      2013      2012      2014      2015      2013      2012      2014      2016
      2013      2012      2014      2024      2013      2012      2035      2032
      2013      2012      2035      2036      2013      2012      2035      2037
      2014      2012      2035      2032      2014      2012      2035      2036
      2014      2012      2035      2037      2014      2016      2019      2020
      2014      2016      2019      2021      2014      2016      2019      2022
      2014      2024      2022      2019      2014      2024      2022      2023
      2014      2024      2022      2048      2014      2024      2025      2026
      2014      2024      2025      2027      2014      2024      2025      2028
      2014      2024      2029      2030      2014      2024      2029      2031
      2014      2024      2029      2032      2015      2014      2012      2035
      2015      2014      2016      2017      2015      2014      2016      2018
      2015      2014      2016      2019      2015      2014      2024      2022
      2015      2014      2024      2025      2015      2014      2024      2029
      2016      2014      2012      2035      2016      2014      2024      2022
      2016      2014      2024      2025      2016      2014      2024      2029
      2016      2019      2022      2023      2016      2019      2022      2024
      2016      2019      2022      2048      2017      2016      2014      2024
      2017      2016      2019      2020      2017      2016      2019      2021
      2017      2016      2019      2022      2018      2016      2014      2024
      2018      2016      2019      2020      2018      2016      2019      2021
      2018      2016      2019      2022      2019      2016      2014      2024
      2019      2022      2024      2025      2019      2022      2024      2029
      2019      2022      2048      2049      2019      2022      2048      2050
      2019      2022      2048      2054      2020      2019      2022      2023
      2020      2019      2022      2024      2020      2019      2022      2048
      2021      2019      2022      2023      2021      2019      2022      2024
      2021      2019      2022      2048      2022      2024      2025      2026
      2022      2024      2025      2027      2022      2024      2025      2028
      2022      2024      2029      2030      2022      2024      2029      2031
      2022      2024      2029      2032      2022      2048      2050      2051
      2022      2048      2050      2052      2022      2048      2050      2053
      2022      2048      2054      2055      2022      2048      2054      2056
      2022      2048      2054      2057      2023      2022      2024      2025
      2023      2022      2024      2029      2023      2022      2048      2049
      2023      2022      2048      2050      2023      2022      2048      2054
      2024      2014      2012      2035      2024      2022      2048      2049
      2024      2022      2048      2050      2024      2022      2048      2054
      2024      2029      2032      2033      2024      2029      2032      2034
      2024      2029      2032      2035      2025      2024      2022      2048
      2025      2024      2029      2030      2025      2024      2029      2031
      2025      2024      2029      2032      2026      2025      2024      2029
      2027      2025      2024      2029      2028      2025      2024      2029
      2029      2024      2022      2048      2029      2032      2035      2036
      2029      2032      2035      2037      2030      2029      2032      2033
      2030      2029      2032      2034      2030      2029      2032      2035
      2031      2029      2032      2033      2031      2029      2032      2034
      2031      2029      2032      2035      2032      2035      2037      2038
      2032      2035      2037      2042      2033      2032      2035      2036
      2033      2032      2035      2037      2034      2032      2035      2036
      2034      2032      2035      2037      2035      2037      2038      2039
      2035      2037      2038      2040      2035      2037      2038      2041
      2035      2037      2042      2043      2035      2037      2042      2044
      2035      2037      2042      2045      2036      2035      2037      2038
      2036      2035      2037      2042      2037      2042      2045      2046
      2037      2042      2045      2047      2038      2037      2042      2043
      2038      2037      2042      2044      2038      2037      2042      2045
      2039      2038      2037      2042      2040      2038      2037      2042
      2041      2038      2037      2042      2043      2042      2045      2046
      2043      2042      2045      2047      2044      2042      2045      2046
      2044      2042      2045      2047      2048      2054      2057      2058
      2048      2054      2057      2059      2048      2054      2057      2060
      2049      2048      2050      2051      2049      2048      2050      2052
      2049      2048      2050      2053      2049      2048      2054      2055
      2049      2048      2054      2056      2049      2048      2054      2057
      2050      2048      2054      2055      2050      2048      2054      2056
      2050      2048      2054      2057      2051      2050      2048      2054
      2052      2050      2048      2054      2053      2050      2048      2054
      2054      2057      2060      2061      2054      2057      2060      2062
      2054      2057      2060      2063      2055      2054      2057      2058
      2055      2054      2057      2059      2055      2054      2057      2060
      2056      2054      2057      2058      2056      2054      2057      2059
      2056      2054      2057      2060      2057      2060      2063      2064
      2057      2060      2063      2065      2057      2060      2063      2069
      2058      2057      2060      2061      2058      2057      2060      2062
      2058      2057      2060      2063      2059      2057      2060      2061
      2059      2057      2060      2062      2059      2057      2060      2063
      2060      2063      2065      2066      2060      2063      2065      2067
      2060      2063      2065      2068      2060      2063      2069      2070
      2060      2063      2069      2071      2060      2063      2069      2072
      2061      2060      2063      2064      2061      2060      2063      2065
      2061      2060      2063      2069      2062      2060      2063      2064
      2062      2060      2063      2065      2062      2060      2063      2069
      2064      2063      2065      2066      2064      2063      2065      2067
      2064      2063      2065      2068      2064      2063      2069      2070
      2064      2063      2069      2071      2064      2063      2069      2072
      2065      2063      2069      2070      2065      2063      2069      2071
      2065      2063      2069      2072      2066      2065      2063      2069
      2067      2065      2063      2069      2068      2065      2063      2069
      2073      2077      2080      2081      2073      2077      2080      2111
      2073      2119      2116      2111      2073      2119      2116      2117
      2073      2119      2116      2118      2074      2073      2075      2076
      2074      2073      2077      2078      2074      2073      2077      2079
      2074      2073      2077      2080      2074      2073      2119      2116
      2074      2073      2119      2120      2074      2073      2119      2121
      2075      2073      2077      2078      2075      2073      2077      2079
      2075      2073      2077      2080      2075      2073      2119      2116
      2075      2073      2119      2120      2075      2073      2119      2121
      2076      2075      2073      2077      2076      2075      2073      2119
      2077      2073      2119      2116      2077      2073      2119      2120
      2077      2073      2119      2121      2077      2080      2081      2082
      2077      2080      2081      2083      2077      2080      2111      2109
      2077      2080      2111      2112      2077      2080      2111      2116
      2078      2077      2073      2119      2078      2077      2080      2081
      2078      2077      2080      2111      2079      2077      2073      2119
      2079      2077      2080      2081      2079      2077      2080      2111
      2080      2077      2073      2119      2080      2081      2083      2084
      2080      2081      2083      2085      2080      2081      2083      2086
      2080      2111      2109      2086      2080      2111      2109      2106
      2080      2111      2109      2110      2080      2111      2112      2113
      2080      2111      2112      2114      2080      2111      2112      2115
      2080      2111      2116      2117      2080      2111      2116      2118
      2080      2111      2116      2119      2081      2080      2111      2109
      2081      2080      2111      2112      2081      2080      2111      2116
      2081      2083      2086      2087      2081      2083      2086      2088
      2081      2083      2086      2109      2082      2081      2080      2111
      2082      2081      2083      2084      2082      2081      2083      2085
      2082      2081      2083      2086      2083      2081      2080      2111
      2083      2086      2088      2089      2083      2086      2088      2090
      2083      2086      2088      2098      2083      2086      2109      2106
      2083      2086      2109      2110      2083      2086      2109      2111
      2084      2083      2086      2087      2084      2083      2086      2088
      2084      2083      2086      2109      2085      2083      2086      2087
      2085      2083      2086      2088      2085      2083      2086      2109
      2086      2088      2090      2091      2086      2088      2090      2092
      2086      2088      2090      2093      2086      2088      2098      2096
      2086      2088      2098      2099      2086      2088      2098      2103
      2086      2109      2106      2103      2086      2109      2106      2107
      2086      2109      2106      2108      2086      2109      2111      2112
      2086      2109      2111      2116      2087      2086      2088      2089
      2087      2086      2088      2090      2087      2086      2088      2098
      2087      2086      2109      2106      2087      2086      2109      2110
      2087      2086      2109      2111      2088      2086      2109      2106
      2088      2086      2109      2110      2088      2086      2109      2111
      2088      2090      2093      2094      2088      2090      2093      2095
      2088      2090      2093      2096      2088      2098      2096      2093
      2088      2098      2096      2097      2088      2098      2096      2122
      2088      2098      2099      2100      2088      2098      2099      2101
      2088      2098      2099      2102      2088      2098      2103      2104
      2088      2098      2103      2105      2088      2098      2103      2106
      2089      2088      2086      2109      2089      2088      2090      2091
      2089      2088      2090      2092      2089      2088      2090      2093
      2089      2088      2098      2096      2089      2088      2098      2099
      2089      2088      2098      2103      2090      2088      2086      2109
      2090      2088      2098      2096      2090      2088      2098      2099
      2090      2088      2098      2103      2090      2093      2096      2097
      2090      2093      2096      2098      2090      2093      2096      2122
      2091      2090      2088      2098      2091      2090      2093      2094
      2091      2090      2093      2095      2091      2090      2093      2096
      2092      2090      2088      2098      2092      2090      2093      2094
      2092      2090      2093      2095      2092      2090      2093      2096
      2093      2090      2088      2098      2093      2096      2098      2099
      2093      2096      2098      2103      2093      2096      2122      2123
      2093      2096      2122      2124      2093      2096      2122      2128
      2094      2093      2096      2097      2094      2093      2096      2098
      2094      2093      2096      2122      2095      2093      2096      2097
      2095      2093      2096      2098      2095      2093      2096      2122
      2096      2098      2099      2100      2096      2098      2099      2101
      2096      2098      2099      2102      2096      2098      2103      2104
      2096      2098      2103      2105      2096      2098      2103      2106
      2096      2122      2124      2125      2096      2122      2124      2126
      2096      2122      2124      2127      2096      2122      2128      2129
      2096      2122      2128      2130      2096      2122      2128      2131
      2097      2096      2098      2099      2097      2096      2098      2103
      2097      2096      2122      2123      2097      2096      2122      2124
      2097      2096      2122      2128      2098      2088      2086      2109
      2098      2096      2122      2123      2098      2096      2122      2124
      2098      2096      2122      2128      2098      2103      2106      2107
      2098      2103      2106      2108      2098      2103      2106      2109
      2099      2098      2096      2122      2099      2098      2103      2104
      2099      2098      2103      2105      2099      2098      2103      2106
      2100      2099      2098      2103      2101      2099      2098      2103
      2102      2099      2098      2103      2103      2098      2096      2122
      2103      2106      2109      2110      2103      2106      2109      2111
      2104      2103      2106      2107      2104      2103      2106      2108
      2104      2103      2106      2109      2105      2103      2106      2107
      2105      2103      2106      2108      2105      2103      2106      2109
      2106      2109      2111      2112      2106      2109      2111      2116
      2107      2106      2109      2110      2107      2106      2109      2111
      2108      2106      2109      2110      2108      2106      2109      2111
      2109      2111      2112      2113      2109      2111      2112      2114
      2109      2111      2112      2115      2109      2111      2116      2117
      2109      2111      2116      2118      2109      2111      2116      2119
      2110      2109      2111      2112      2110      2109      2111      2116
      2111      2116      2119      2120      2111      2116      2119      2121
      2112      2111      2116      2117      2112      2111      2116      2118
      2112      2111      2116      2119      2113      2112      2111      2116
      2114      2112      2111      2116      2115      2112      2111      2116
      2117      2116      2119      2120      2117      2116      2119      2121
      2118      2116      2119      2120      2118      2116      2119      2121
      2122      2128      2131      2132      2122      2128      2131      2133
      2122      2128      2131      2134      2123      2122      2124      2125
      2123      2122      2124      2126      2123      2122      2124      2127
      2123      2122      2128      2129      2123      2122      2128      2130
      2123      2122      2128      2131      2124      2122      2128      2129
      2124      2122      2128      2130      2124      2122      2128      2131
      2125      2124      2122      2128      2126      2124      2122      2128
      2127      2124      2122      2128      2128      2131      2134      2135
      2128      2131      2134      2136      2128      2131      2134      2137
      2129      2128      2131      2132      2129      2128      2131      2133
      2129      2128      2131      2134      2130      2128      2131      2132
      2130      2128      2131      2133      2130      2128      2131      2134
      2131      2134      2137      2138      2131      2134      2137      2139
      2131      2134      2137      2143      2132      2131      2134      2135
      2132      2131      2134      2136      2132      2131      2134      2137
      2133      2131      2134      2135      2133      2131      2134      2136
      2133      2131      2134      2137      2134      2137      2139      2140
      2134      2137      2139      2141      2134      2137      2139      2142
      2134      2137      2143      2144      2134      2137      2143      2145
      2134      2137      2143      2146      2135      2134      2137      2138
      2135      2134      2137      2139      2135      2134      2137      2143
      2136      2134      2137      2138      2136      2134      2137      2139
      2136      2134      2137      2143      2138      2137      2139      2140
      2138      2137      2139      2141      2138      2137      2139      2142
      2138      2137      2143      2144      2138      2137      2143      2145
      2138      2137      2143      2146      2139      2137      2143      2144
      2139      2137      2143      2145      2139      2137      2143      2146
      2140      2139      2137      2143      2141      2139      2137      2143
      2142      2139      2137      2143      2147      2151      2154      2155
      2147      2151      2154      2185      2147      2193      2190      2185
      2147      2193      2190      2191      2147      2193      2190      2192
      2148      2147      2149      2150      2148      2147      2151      2152
      2148      2147      2151      2153      2148      2147      2151      2154
      2148      2147      2193      2190      2148      2147      2193      2194
      2148      2147      2193      2195      2149      2147      2151      2152
      2149      2147      2151      2153      2149      2147      2151      2154
      2149      2147      2193      2190      2149      2147      2193      2194
      2149      2147      2193      2195      2150      2149      2147      2151
      2150      2149      2147      2193      2151      2147      2193      2190
      2151      2147      2193      2194      2151      2147      2193      2195
      2151      2154      2155      2156      2151      2154      2155      2157
      2151      2154      2185      2183      2151      2154      2185      2186
      2151      2154      2185      2190      2152      2151      2147      2193
      2152      2151      2154      2155      2152      2151      2154      2185
      2153      2151      2147      2193      2153      2151      2154      2155
      2153      2151      2154      2185      2154      2151      2147      2193
      2154      2155      2157      2158      2154      2155      2157      2159
      2154      2155      2157      2160      2154      2185      2183      2160
      2154      2185      2183      2180      2154      2185      2183      2184
      2154      2185      2186      2187      2154      2185      2186      2188
      2154      2185      2186      2189      2154      2185      2190      2191
      2154      2185      2190      2192      2154      2185      2190      2193
      2155      2154      2185      2183      2155      2154      2185      2186
      2155      2154      2185      2190      2155      2157      2160      2161
      2155      2157      2160      2162      2155      2157      2160      2183
      2156      2155      2154      2185      2156      2155      2157      2158
      2156      2155      2157      2159      2156      2155      2157      2160
      2157      2155      2154      2185      2157      2160      2162      2163
      2157      2160      2162      2164      2157      2160      2162      2172
      2157      2160      2183      2180      2157      2160      2183      2184
      2157      2160      2183      2185      2158      2157      2160      2161
      2158      2157      2160      2162      2158      2157      2160      2183
      2159      2157      2160      2161      2159      2157      2160      2162
      2159      2157      2160      2183      2160      2162      2164      2165
      2160      2162      2164      2166      2160      2162      2164      2167
      2160      2162      2172      2170      2160      2162      2172      2173
      2160      2162      2172      2177      2160      2183      2180      2177
      2160      2183      2180      2181      2160      2183      2180      2182
      2160      2183      2185      2186      2160      2183      2185      2190
      2161      2160      2162      2163      2161      2160      2162      2164
      2161      2160      2162      2172      2161      2160      2183      2180
      2161      2160      2183      2184      2161      2160      2183      2185
      2162      2160      2183      2180      2162      2160      2183      2184
      2162      2160      2183      2185      2162      2164      2167      2168
      2162      2164      2167      2169      2162      2164      2167      2170
      2162      2172      2170      2167      2162      2172      2170      2171
      2162      2172      2170      2196      2162      2172      2173      2174
      2162      2172      2173      2175      2162      2172      2173      2176
      2162      2172      2177      2178      2162      2172      2177      2179
      2162      2172      2177      2180      2163      2162      2160      2183
      2163      2162      2164      2165      2163      2162      2164      2166
      2163      2162      2164      2167      2163      2162      2172      2170
      2163      2162      2172      2173      2163      2162      2172      2177
      2164      2162      2160      2183      2164      2162      2172      2170
      2164      2162      2172      2173      2164      2162      2172      2177
      2164      2167      2170      2171      2164      2167      2170      2172
      2164      2167      2170      2196      2165      2164      2162      2172
      2165      2164      2167      2168      2165      2164      2167      2169
      2165      2164      2167      2170      2166      2164      2162      2172
      2166      2164      2167      2168      2166      2164      2167      2169
      2166      2164      2167      2170      2167      2164      2162      2172
      2167      2170      2172      2173      2167      2170      2172      2177
      2167      2170      2196      2197      2167      2170      2196      2198
      2167      2170      2196      2202      2168      2167      2170      2171
      2168      2167      2170      2172      2168      2167      2170      2196
      2169      2167      2170      2171      2169      2167      2170      2172
      2169      2167      2170      2196      2170      2172      2173      2174
      2170      2172      2173      2175      2170      2172      2173      2176
      2170      2172      2177      2178      2170      2172      2177      2179
      2170      2172      2177      2180      2170      2196      2198      2199
      2170      2196      2198      2200      2170      2196      2198      2201
      2170      2196      2202      2203      2170      2196      2202      2204
      2170      2196      2202      2205      2171      2170      2172      2173
      2171      2170      2172      2177      2171      2170      2196      2197
      2171      2170      2196      2198      2171      2170      2196      2202
      2172      2162      2160      2183      2172      2170      2196      2197
      2172      2170      2196      2198      2172      2170      2196      2202
      2172      2177      2180      2181      2172      2177      2180      2182
      2172      2177      2180      2183      2173      2172      2170      2196
      2173      2172      2177      2178      2173      2172      2177      2179
      2173      2172      2177      2180      2174      2173      2172      2177
      2175      2173      2172      2177      2176      2173      2172      2177
      2177      2172      2170      2196      2177      2180      2183      2184
      2177      2180      2183      2185      2178      2177      2180      2181
      2178      2177      2180      2182      2178      2177      2180      2183
      2179      2177      2180      2181      2179      2177      2180      2182
      2179      2177      2180      2183      2180      2183      2185      2186
      2180      2183      2185      2190      2181      2180      2183      2184
      2181      2180      2183      2185      2182      2180      2183      2184
      2182      2180      2183      2185      2183      2185      2186      2187
      2183      2185      2186      2188      2183      2185      2186      2189
      2183      2185      2190      2191      2183      2185      2190      2192
      2183      2185      2190      2193      2184      2183      2185      2186
      2184      2183      2185      2190      2185      2190      2193      2194
      2185      2190      2193      2195      2186      2185      2190      2191
      2186      2185      2190      2192      2186      2185      2190      2193
      2187      2186      2185      2190      2188      2186      2185      2190
      2189      2186      2185      2190      2191      2190      2193      2194
      2191      2190      2193      2195      2192      2190      2193      2194
      2192      2190      2193      2195      2196      2202      2205      2206
      2196      2202      2205      2207      2196      2202      2205      2208
      2197      2196      2198      2199      2197      2196      2198      2200
      2197      2196      2198      2201      2197      2196      2202      2203
      2197      2196      2202      2204      2197      2196      2202      2205
      2198      2196      2202      2203      2198      2196      2202      2204
      2198      2196      2202      2205      2199      2198      2196      2202
      2200      2198      2196      2202      2201      2198      2196      2202
      2202      2205      2208      2209      2202      2205      2208      2210
      2202      2205      2208      2211      2203      2202      2205      2206
      2203      2202      2205      2207      2203      2202      2205      2208
      2204      2202      2205      2206      2204      2202      2205      2207
      2204      2202      2205      2208      2205      2208      2211      2212
      2205      2208      2211      2213      2205      2208      2211      2217
      2206      2205      2208      2209      2206      2205      2208      2210
      2206      2205      2208      2211      2207      2205      2208      2209
      2207      2205      2208      2210      2207      2205      2208      2211
      2208      2211      2213      2214      2208      2211      2213      2215
      2208      2211      2213      2216      2208      2211      2217      2218
      2208      2211      2217      2219      2208      2211      2217      2220
      2209      2208      2211      2212      2209      2208      2211      2213
      2209      2208      2211      2217      2210      2208      2211      2212
      2210      2208      2211      2213      2210      2208      2211      2217
      2212      2211      2213      2214      2212      2211      2213      2215
      2212      2211      2213      2216      2212      2211      2217      2218
      2212      2211      2217      2219      2212      2211      2217      2220
      2213      2211      2217      2218      2213      2211      2217      2219
      2213      2211      2217      2220      2214      2213      2211      2217
      2215      2213      2211      2217      2216      2213      2211      2217
      2221      2225      2228      2229      2221      2225      2228      2259
      2221      2267      2264      2259      2221      2267      2264      2265
      2221      2267      2264      2266      2222      2221      2223      2224
      2222      2221      2225      2226      2222      2221      2225      2227
      2222      2221      2225      2228      2222      2221      2267      2264
      2222      2221      2267      2268      2222      2221      2267      2269
      2223      2221      2225      2226      2223      2221      2225      2227
      2223      2221      2225      2228      2223      2221      2267      2264
      2223      2221      2267      2268      2223      2221      2267      2269
      2224      2223      2221      2225      2224      2223      2221      2267
      2225      2221      2267      2264      2225      2221      2267      2268
      2225      2221      2267      2269      2225      2228      2229      2230
      2225      2228      2229      2231      2225      2228      2259      2257
      2225      2228      2259      2260      2225      2228      2259      2264
      2226      2225      2221      2267      2226      2225      2228      2229
      2226      2225      2228      2259      2227      2225      2221      2267
      2227      2225      2228      2229      2227      2225      2228      2259
      2228      2225      2221      2267      2228      2229      2231      2232
      2228      2229      2231      2233      2228      2229      2231      2234
      2228      2259      2257      2234      2228      2259      2257      2254
      2228      2259      2257      2258      2228      2259      2260      2261
      2228      2259      2260      2262      2228      2259      2260      2263
      2228      2259      2264      2265      2228      2259      2264      2266
      2228      2259      2264      2267      2229      2228      2259      2257
      2229      2228      2259      2260      2229      2228      2259      2264
      2229      2231      2234      2235      2229      2231      2234      2236
      2229      2231      2234      2257      2230      2229      2228      2259
      2230      2229      2231      2232      2230      2229      2231      2233
      2230      2229      2231      2234      2231      2229      2228      2259
      2231      2234      2236      2237      2231      2234      2236      2238
      2231      2234      2236      2246      2231      2234      2257      2254
      2231      2234      2257      2258      2231      2234      2257      2259
      2232      2231      2234      2235      2232      2231      2234      2236
      2232      2231      2234      2257      2233      2231      2234      2235
      2233      2231      2234      2236      2233      2231      2234      2257
      2234      2236      2238      2239      2234      2236      2238      2240
      2234      2236      2238      2241      2234      2236      2246      2244
      2234      2236      2246      2247      2234      2236      2246      2251
      2234      2257      2254      2251      2234      2257      2254      2255
      2234      2257      2254      2256      2234      2257      2259      2260
      2234      2257      2259      2264      2235      2234      2236      2237
      2235      2234      2236      2238      2235      2234      2236      2246
      2235      2234      2257      2254      2235      2234      2257      2258
      2235      2234      2257      2259      2236      2234      2257      2254
      2236      2234      2257      2258      2236      2234      2257      2259
      2236      2238      2241      2242      2236      2238      2241      2243
      2236      2238      2241      2244      2236      2246      2244      2241
      2236      2246      2244      2245      2236      2246      2244      2270
      2236      2246      2247      2248      2236      2246      2247      2249
      2236      2246      2247      2250      2236      2246      2251      2252
      2236      2246      2251      2253      2236      2246      2251      2254
      2237      2236      2234      2257      2237      2236      2238      2239
      2237      2236      2238      2240      2237      2236      2238      2241
      2237      2236      2246      2244      2237      2236      2246      2247
      2237      2236      2246      2251      2238      2236      2234      2257
      2238      2236      2246      2244      2238      2236      2246      2247
      2238      2236      2246      2251      2238      2241      2244      2245
      2238      2241      2244      2246      2238      2241      2244      2270
      2239      2238      2236      2246      2239      2238      2241      2242
      2239      2238      2241      2243      2239      2238      2241      2244
      2240      2238      2236      2246      2240      2238      2241      2242
      2240      2238      2241      2243      2240      2238      2241      2244
      2241      2238      2236      2246      2241      2244      2246      2247
      2241      2244      2246      2251      2241      2244      2270      2271
      2241      2244      2270      2272      2241      2244      2270      2276
      2242      2241      2244      2245      2242      2241      2244      2246
      2242      2241      2244      2270      2243      2241      2244      2245
      2243      2241      2244      2246      2243      2241      2244      2270
      2244      2246      2247      2248      2244      2246      2247      2249
      2244      2246      2247      2250      2244      2246      2251      2252
      2244      2246      2251      2253      2244      2246      2251      2254
      2244      2270      2272      2273      2244      2270      2272      2274
      2244      2270      2272      2275      2244      2270      2276      2277
      2244      2270      2276      2278      2244      2270      2276      2279
      2245      2244      2246      2247      2245      2244      2246      2251
      2245      2244      2270      2271      2245      2244      2270      2272
      2245      2244      2270      2276      2246      2236      2234      2257
      2246      2244      2270      2271      2246      2244      2270      2272
      2246      2244      2270      2276      2246      2251      2254      2255
      2246      2251      2254      2256      2246      2251      2254      2257
      2247      2246      2244      2270      2247      2246      2251      2252
      2247      2246      2251      2253      2247      2246      2251      2254
      2248      2247      2246      2251      2249      2247      2246      2251
      2250      2247      2246      2251      2251      2246      2244      2270
      2251      2254      2257      2258      2251      2254      2257      2259
      2252      2251      2254      2255      2252      2251      2254      2256
      2252      2251      2254      2257      2253      2251      2254      2255
      2253      2251      2254      2256      2253      2251      2254      2257
      2254      2257      2259      2260      2254      2257      2259      2264
      2255      2254      2257      2258      2255      2254      2257      2259
      2256      2254      2257      2258      2256      2254      2257      2259
      2257      2259      2260      2261      2257      2259      2260      2262
      2257      2259      2260      2263      2257      2259      2264      2265
      2257      2259      2264      2266      2257      2259      2264      2267
      2258      2257      2259      2260      2258      2257      2259      2264
      2259      2264      2267      2268      2259      2264      2267      2269
      2260      2259      2264      2265      2260      2259      2264      2266
      2260      2259      2264      2267      2261      2260      2259      2264
      2262      2260      2259      2264      2263      2260      2259      2264
      2265      2264      2267      2268      2265      2264      2267      2269
      2266      2264      2267      2268      2266      2264      2267      2269
      2270      2276      2279      2280      2270      2276      2279      2281
      2270      2276      2279      2282      2271      2270      2272      2273
      2271      2270      2272      2274      2271      2270      2272      2275
      2271      2270      2276      2277      2271      2270      2276      2278
      2271      2270      2276      2279      2272      2270      2276      2277
      2272      2270      2276      2278      2272      2270      2276      2279
      2273      2272      2270      2276      2274      2272      2270      2276
      2275      2272      2270      2276      2276      2279      2282      2283
      2276      2279      2282      2284      2276      2279      2282      2285
      2277      2276      2279      2280      2277      2276      2279      2281
      2277      2276      2279      2282      2278      2276      2279      2280
      2278      2276      2279      2281      2278      2276      2279      2282
      2279      2282      2285      2286      2279      2282      2285      2287
      2279      2282      2285      2291      2280      2279      2282      2283
      2280      2279      2282      2284      2280      2279      2282      2285
      2281      2279      2282      2283      2281      2279      2282      2284
      2281      2279      2282      2285      2282      2285      2287      2288
      2282      2285      2287      2289      2282      2285      2287      2290
      2282      2285      2291      2292      2282      2285      2291      2293
      2282      2285      2291      2294      2283      2282      2285      2286
      2283      2282      2285      2287      2283      2282      2285      2291
      2284      2282      2285      2286      2284      2282      2285      2287
      2284      2282      2285      2291      2286      2285      2287      2288
      2286      2285      2287      2289      2286      2285      2287      2290
      2286      2285      2291      2292      2286      2285      2291      2293
      2286      2285      2291      2294      2287      2285      2291      2292
      2287      2285      2291      2293      2287      2285      2291      2294
      2288      2287      2285      2291      2289      2287      2285      2291
      2290      2287      2285      2291      2295      2299      2302      2303
      2295      2299      2302      2333      2295      2341      2338      2333
      2295      2341      2338      2339      2295      2341      2338      2340
      2296      2295      2297      2298      2296      2295      2299      2300
      2296      2295      2299      2301      2296      2295      2299      2302
      2296      2295      2341      2338      2296      2295      2341      2342
      2296      2295      2341      2343      2297      2295      2299      2300
      2297      2295      2299      2301      2297      2295      2299      2302
      2297      2295      2341      2338      2297      2295      2341      2342
      2297      2295      2341      2343      2298      2297      2295      2299
      2298      2297      2295      2341      2299      2295      2341      2338
      2299      2295      2341      2342      2299      2295      2341      2343
      2299      2302      2303      2304      2299      2302      2303      2305
      2299      2302      2333      2331      2299      2302      2333      2334
      2299      2302      2333      2338      2300      2299      2295      2341
      2300      2299      2302      2303      2300      2299      2302      2333
      2301      2299      2295      2341      2301      2299      2302      2303
      2301      2299      2302      2333      2302      2299      2295      2341
      2302      2303      2305      2306      2302      2303      2305      2307
      2302      2303      2305      2308      2302      2333      2331      2308
      2302      2333      2331      2328      2302      2333      2331      2332
      2302      2333      2334      2335      2302      2333      2334      2336
      2302      2333      2334      2337      2302      2333      2338      2339
      2302      2333      2338      2340      2302      2333      2338      2341
      2303      2302      2333      2331      2303      2302      2333      2334
      2303      2302      2333      2338      2303      2305      2308      2309
      2303      2305      2308      2310      2303      2305      2308      2331
      2304      2303      2302      2333      2304      2303      2305      2306
      2304      2303      2305      2307      2304      2303      2305      2308
      2305      2303      2302      2333      2305      2308      2310      2311
      2305      2308      2310      2312      2305      2308      2310      2320
      2305      2308      2331      2328      2305      2308      2331      2332
      2305      2308      2331      2333      2306      2305      2308      2309
      2306      2305      2308      2310      2306      2305      2308      2331
      2307      2305      2308      2309      2307      2305      2308      2310
      2307      2305      2308      2331      2308      2310      2312      2313
      2308      2310      2312      2314      2308      2310      2312      2315
      2308      2310      2320      2318      2308      2310      2320      2321
      2308      2310      2320      2325      2308      2331      2328      2325
      2308      2331      2328      2329      2308      2331      2328      2330
      2308      2331      2333      2334      2308      2331      2333      2338
      2309      2308      2310      2311      2309      2308      2310      2312
      2309      2308      2310      2320      2309      2308      2331      2328
      2309      2308      2331      2332      2309      2308      2331      2333
      2310      2308      2331      2328      2310      2308      2331      2332
      2310      2308      2331      2333      2310      2312      2315      2316
      2310      2312      2315      2317      2310      2312      2315      2318
      2310      2320      2318      2315      2310      2320      2318      2319
      2310      2320      2318      2344      2310      2320      2321      2322
      2310      2320      2321      2323      2310      2320      2321      2324
      2310      2320      2325      2326      2310      2320      2325      2327
      2310      2320      2325      2328      2311      2310      2308      2331
      2311      2310      2312      2313      2311      2310      2312      2314
      2311      2310      2312      2315      2311      2310      2320      2318
      2311      2310      2320      2321      2311      2310      2320      2325
      2312      2310      2308      2331      2312      2310      2320      2318
      2312      2310      2320      2321      2312      2310      2320      2325
      2312      2315      2318      2319      2312      2315      2318      2320
      2312      2315      2318      2344      2313      2312      2310      2320
      2313      2312      2315      2316      2313      2312      2315      2317
      2313      2312      2315      2318      2314      2312      2310      2320
      2314      2312      2315      2316      2314      2312      2315      2317
      2314      2312      2315      2318      2315      2312      2310      2320
      2315      2318      2320      2321      2315      2318      2320      2325
      2315      2318      2344      2345      2315      2318      2344      2346
      2315      2318      2344      2350      2316      2315      2318      2319
      2316      2315      2318      2320      2316      2315      2318      2344
      2317      2315      2318      2319      2317      2315      2318      2320
      2317      2315      2318      2344      2318      2320      2321      2322
      2318      2320      2321      2323      2318      2320      2321      2324
      2318      2320      2325      2326      2318      2320      2325      2327
      2318      2320      2325      2328      2318      2344      2346      2347
      2318      2344      2346      2348      2318      2344      2346      2349
      2318      2344      2350      2351      2318      2344      2350      2352
      2318      2344      2350      2353      2319      2318      2320      2321
      2319      2318      2320      2325      2319      2318      2344      2345
      2319      2318      2344      2346      2319      2318      2344      2350
      2320      2310      2308      2331      2320      2318      2344      2345
      2320      2318      2344      2346      2320      2318      2344      2350
      2320      2325      2328      2329      2320      2325      2328      2330
      2320      2325      2328      2331      2321      2320      2318      2344
      2321      2320      2325      2326      2321      2320      2325      2327
      2321      2320      2325      2328      2322      2321      2320      2325
      2323      2321      2320      2325      2324      2321      2320      2325
      2325      2320      2318      2344      2325      2328      2331      2332
      2325      2328      2331      2333      2326      2325      2328      2329
      2326      2325      2328      2330      2326      2325      2328      2331
      2327      2325      2328      2329      2327      2325      2328      2330
      2327      2325      2328      2331      2328      2331      2333      2334
      2328      2331      2333      2338      2329      2328      2331      2332
      2329      2328      2331      2333      2330      2328      2331      2332
      2330      2328      2331      2333      2331      2333      2334      2335
      2331      2333      2334      2336      2331      2333      2334      2337
      2331      2333      2338      2339      2331      2333      2338      2340
      2331      2333      2338      2341      2332      2331      2333      2334
      2332      2331      2333      2338      2333      2338      2341      2342
      2333      2338      2341      2343      2334      2333      2338      2339
      2334      2333      2338      2340      2334      2333      2338      2341
      2335      2334      2333      2338      2336      2334      2333      2338
      2337      2334      2333      2338      2339      2338      2341      2342
      2339      2338      2341      2343      2340      2338      2341      2342
      2340      2338      2341      2343      2344      2350      2353      2354
      2344      2350      2353      2355      2344      2350      2353      2356
      2345      2344      2346      2347      2345      2344      2346      2348
      2345      2344      2346      2349      2345      2344      2350      2351
      2345      2344      2350      2352      2345      2344      2350      2353
      2346      2344      2350      2351      2346      2344      2350      2352
      2346      2344      2350      2353      2347      2346      2344      2350
      2348      2346      2344      2350      2349      2346      2344      2350
      2350      2353      2356      2357      2350      2353      2356      2358
      2350      2353      2356      2359      2351      2350      2353      2354
      2351      2350      2353      2355      2351      2350      2353      2356
      2352      2350      2353      2354      2352      2350      2353      2355
      2352      2350      2353      2356      2353      2356      2359      2360
      2353      2356      2359      2361      2353      2356      2359      2365
      2354      2353      2356      2357      2354      2353      2356      2358
      2354      2353      2356      2359      2355      2353      2356      2357
      2355      2353      2356      2358      2355      2353      2356      2359
      2356      2359      2361      2362      2356      2359      2361      2363
      2356      2359      2361      2364      2356      2359      2365      2366
      2356      2359      2365      2367      2356      2359      2365      2368
      2357      2356      2359      2360      2357      2356      2359      2361
      2357      2356      2359      2365      2358      2356      2359      2360
      2358      2356      2359      2361      2358      2356      2359      2365
      2360      2359      2361      2362      2360      2359      2361      2363
      2360      2359      2361      2364      2360      2359      2365      2366
      2360      2359      2365      2367      2360      2359      2365      2368
      2361      2359      2365      2366      2361      2359      2365      2367
      2361      2359      2365      2368      2362      2361      2359      2365
      2363      2361      2359      2365      2364      2361      2359      2365
      2369      2373      2376      2377      2369      2373      2376      2407
      2369      2415      2412      2407      2369      2415      2412      2413
      2369      2415      2412      2414      2370      2369      2371      2372
      2370      2369      2373      2374      2370      2369      2373      2375
      2370      2369      2373      2376      2370      2369      2415      2412
      2370      2369      2415      2416      2370      2369      2415      2417
      2371      2369      2373      2374      2371      2369      2373      2375
      2371      2369      2373      2376      2371      2369      2415      2412
      2371      2369      2415      2416      2371      2369      2415      2417
      2372      2371      2369      2373      2372      2371      2369      2415
      2373      2369      2415      2412      2373      2369      2415      2416
      2373      2369      2415      2417      2373      2376      2377      2378
      2373      2376      2377      2379      2373      2376      2407      2405
      2373      2376      2407      2408      2373      2376      2407      2412
      2374      2373      2369      2415      2374      2373      2376      2377
      2374      2373      2376      2407      2375      2373      2369      2415
      2375      2373      2376      2377      2375      2373      2376      2407
      2376      2373      2369      2415      2376      2377      2379      2380
      2376      2377      2379      2381      2376      2377      2379      2382
      2376      2407      2405      2382      2376      2407      2405      2402
      2376      2407      2405      2406      2376      2407      2408      2409
      2376      2407      2408      2410      2376      2407      2408      2411
      2376      2407      2412      2413      2376      2407      2412      2414
      2376      2407      2412      2415      2377      2376      2407      2405
      2377      2376      2407      2408      2377      2376      2407      2412
      2377      2379      2382      2383      2377      2379      2382      2384
      2377      2379      2382      2405      2378      2377      2376      2407
      2378      2377      2379      2380      2378      2377      2379      2381
      2378      2377      2379      2382      2379      2377      2376      2407
      2379      2382      2384      2385      2379      2382      2384      2386
      2379      2382      2384      2394      2379      2382      2405      2402
      2379      2382      2405      2406      2379      2382      2405      2407
      2380      2379      2382      2383      2380      2379      2382      2384
      2380      2379      2382      2405      2381      2379      2382      2383
      2381      2379      2382      2384      2381      2379      2382      2405
      2382      2384      2386      2387      2382      2384      2386      2388
      2382      2384      2386      2389      2382      2384      2394      2392
      2382      2384      2394      2395      2382      2384      2394      2399
      2382      2405      2402      2399      2382      2405      2402      2403
      2382      2405      2402      2404      2382      2405      2407      2408
      2382      2405      2407      2412      2383      2382      2384      2385
      2383      2382      2384      2386      2383      2382      2384      2394
      2383      2382      2405      2402      2383      2382      2405      2406
      2383      2382      2405      2407      2384      2382      2405      2402
      2384      2382      2405      2406      2384      2382      2405      2407
      2384      2386      2389      2390      2384      2386      2389      2391
      2384      2386      2389      2392      2384      2394      2392      2389
      2384      2394      2392      2393      2384      2394      2392      2418
      2384      2394      2395      2396      2384      2394      2395      2397
      2384      2394      2395      2398      2384      2394      2399      2400
      2384      2394      2399      2401      2384      2394      2399      2402
      2385      2384      2382      2405      2385      2384      2386      2387
      2385      2384      2386      2388      2385      2384      2386      2389
      2385      2384      2394      2392      2385      2384      2394      2395
      2385      2384      2394      2399      2386      2384      2382      2405
      2386      2384      2394      2392      2386      2384      2394      2395
      2386      2384      2394      2399      2386      2389      2392      2393
      2386      2389      2392      2394      2386      2389      2392      2418
      2387      2386      2384      2394      2387      2386      2389      2390
      2387      2386      2389      2391      2387      2386      2389      2392
      2388      2386      2384      2394      2388      2386      2389      2390
      2388      2386      2389      2391      2388      2386      2389      2392
      2389      2386      2384      2394      2389      2392      2394      2395
      2389      2392      2394      2399      2389      2392      2418      2419
      2389      2392      2418      2420      2389      2392      2418      2424
      2390      2389      2392      2393      2390      2389      2392      2394
      2390      2389      2392      2418      2391      2389      2392      2393
      2391      2389      2392      2394      2391      2389      2392      2418
      2392      2394      2395      2396      2392      2394      2395      2397
      2392      2394      2395      2398      2392      2394      2399      2400
      2392      2394      2399      2401      2392      2394      2399      2402
      2392      2418      2420      2421      2392      2418      2420      2422
      2392      2418      2420      2423      2392      2418      2424      2425
      2392      2418      2424      2426      2392      2418      2424      2427
      2393      2392      2394      2395      2393      2392      2394      2399
      2393      2392      2418      2419      2393      2392      2418      2420
      2393      2392      2418      2424      2394      2384      2382      2405
      2394      2392      2418      2419      2394      2392      2418      2420
      2394      2392      2418      2424      2394      2399      2402      2403
      2394      2399      2402      2404      2394      2399      2402      2405
      2395      2394      2392      2418      2395      2394      2399      2400
      2395      2394      2399      2401      2395      2394      2399      2402
      2396      2395      2394      2399      2397      2395      2394      2399
      2398      2395      2394      2399      2399      2394      2392      2418
      2399      2402      2405      2406      2399      2402      2405      2407
      2400      2399      2402      2403      2400      2399      2402      2404
      2400      2399      2402      2405      2401      2399      2402      2403
      2401      2399      2402      2404      2401      2399      2402      2405
      2402      2405      2407      2408      2402      2405      2407      2412
      2403      2402      2405      2406      2403      2402      2405      2407
      2404      2402      2405      2406      2404      2402      2405      2407
      2405      2407      2408      2409      2405      2407      2408      2410
      2405      2407      2408      2411      2405      2407      2412      2413
      2405      2407      2412      2414      2405      2407      2412      2415
      2406      2405      2407      2408      2406      2405      2407      2412
      2407      2412      2415      2416      2407      2412      2415      2417
      2408      2407      2412      2413      2408      2407      2412      2414
      2408      2407      2412      2415      2409      2408      2407      2412
      2410      2408      2407      2412      2411      2408      2407      2412
      2413      2412      2415      2416      2413      2412      2415      2417
      2414      2412      2415      2416      2414      2412      2415      2417
      2418      2424      2427      2428      2418      2424      2427      2429
      2418      2424      2427      2430      2419      2418      2420      2421
      2419      2418      2420      2422      2419      2418      2420      2423
      2419      2418      2424      2425      2419      2418      2424      2426
      2419      2418      2424      2427      2420      2418      2424      2425
      2420      2418      2424      2426      2420      2418      2424      2427
      2421      2420      2418      2424      2422      2420      2418      2424
      2423      2420      2418      2424      2424      2427      2430      2431
      2424      2427      2430      2432      2424      2427      2430      2433
      2425      2424      2427      2428      2425      2424      2427      2429
      2425      2424      2427      2430      2426      2424      2427      2428
      2426      2424      2427      2429      2426      2424      2427      2430
      2427      2430      2433      2434      2427      2430      2433      2435
      2427      2430      2433      2439      2428      2427      2430      2431
      2428      2427      2430      2432      2428      2427      2430      2433
      2429      2427      2430      2431      2429      2427      2430      2432
      2429      2427      2430      2433      2430      2433      2435      2436
      2430      2433      2435      2437      2430      2433      2435      2438
      2430      2433      2439      2440      2430      2433      2439      2441
      2430      2433      2439      2442      2431      2430      2433      2434
      2431      2430      2433      2435      2431      2430      2433      2439
      2432      2430      2433      2434      2432      2430      2433      2435
      2432      2430      2433      2439      2434      2433      2435      2436
      2434      2433      2435      2437      2434      2433      2435      2438
      2434      2433      2439      2440      2434      2433      2439      2441
      2434      2433      2439      2442      2435      2433      2439      2440
      2435      2433      2439      2441      2435      2433      2439      2442
      2436      2435      2433      2439      2437      2435      2433      2439
      2438      2435      2433      2439      2443      2447      2450      2451
      2443      2447      2450      2481      2443      2489      2486      2481
      2443      2489      2486      2487      2443      2489      2486      2488
      2444      2443      2445      2446      2444      2443      2447      2448
      2444      2443      2447      2449      2444      2443      2447      2450
      2444      2443      2489      2486      2444      2443      2489      2490
      2444      2443      2489      2491      2445      2443      2447      2448
      2445      2443      2447      2449      2445      2443      2447      2450
      2445      2443      2489      2486      2445      2443      2489      2490
      2445      2443      2489      2491      2446      2445      2443      2447
      2446      2445      2443      2489      2447      2443      2489      2486
      2447      2443      2489      2490      2447      2443      2489      2491
      2447      2450      2451      2452      2447      2450      2451      2453
      2447      2450      2481      2479      2447      2450      2481      2482
      2447      2450      2481      2486      2448      2447      2443      2489
      2448      2447      2450      2451      2448      2447      2450      2481
      2449      2447      2443      2489      2449      2447      2450      2451
      2449      2447      2450      2481      2450      2447      2443      2489
      2450      2451      2453      2454      2450      2451      2453      2455
      2450      2451      2453      2456      2450      2481      2479      2456
      2450      2481      2479      2476      2450      2481      2479      2480
      2450      2481      2482      2483      2450      2481      2482      2484
      2450      2481      2482      2485      2450      2481      2486      2487
      2450      2481      2486      2488      2450      2481      2486      2489
      2451      2450      2481      2479      2451      2450      2481      2482
      2451      2450      2481      2486      2451      2453      2456      2457
      2451      2453      2456      2458      2451      2453      2456      2479
      2452      2451      2450      2481      2452      2451      2453      2454
      2452      2451      2453      2455      2452      2451      2453      2456
      2453      2451      2450      2481      2453      2456      2458      2459
      2453      2456      2458      2460      2453      2456      2458      2468
      2453      2456      2479      2476      2453      2456      2479      2480
      2453      2456      2479      2481      2454      2453      2456      2457
      2454      2453      2456      2458      2454      2453      2456      2479
      2455      2453      2456      2457      2455      2453      2456      2458
      2455      2453      2456      2479      2456      2458      2460      2461
      2456      2458      2460      2462      2456      2458      2460      2463
      2456      2458      2468      2466      2456      2458      2468      2469
      2456      2458      2468      2473      2456      2479      2476      2473
      2456      2479      2476      2477      2456      2479      2476      2478
      2456      2479      2481      2482      2456      2479      2481      2486
      2457      2456      2458      2459      2457      2456      2458      2460
      2457      2456      2458      2468      2457      2456      2479      2476
      2457      2456      2479      2480      2457      2456      2479      2481
      2458      2456      2479      2476      2458      2456      2479      2480
      2458      2456      2479      2481      2458      2460      2463      2464
      2458      2460      2463      2465      2458      2460      2463      2466
      2458      2468      2466      2463      2458      2468      2466      2467
      2458      2468      2466      2492      2458      2468      2469      2470
      2458      2468      2469      2471      2458      2468      2469      2472
      2458      2468      2473      2474      2458      2468      2473      2475
      2458      2468      2473      2476      2459      2458      2456      2479
      2459      2458      2460      2461      2459      2458      2460      2462
      2459      2458      2460      2463      2459      2458      2468      2466
      2459      2458      2468      2469      2459      2458      2468      2473
      2460      2458      2456      2479      2460      2458      2468      2466
      2460      2458      2468      2469      2460      2458      2468      2473
      2460      2463      2466      2467      2460      2463      2466      2468
      2460      2463      2466      2492      2461      2460      2458      2468
      2461      2460      2463      2464      2461      2460      2463      2465
      2461      2460      2463      2466      2462      2460      2458      2468
      2462      2460      2463      2464      2462      2460      2463      2465
      2462      2460      2463      2466      2463      2460      2458      2468
      2463      2466      2468      2469      2463      2466      2468      2473
      2463      2466      2492      2493      2463      2466      2492      2494
      2463      2466      2492      2498      2464      2463      2466      2467
      2464      2463      2466      2468      2464      2463      2466      2492
      2465      2463      2466      2467      2465      2463      2466      2468
      2465      2463      2466      2492      2466      2468      2469      2470
      2466      2468      2469      2471      2466      2468      2469      2472
      2466      2468      2473      2474      2466      2468      2473      2475
      2466      2468      2473      2476      2466      2492      2494      2495
      2466      2492      2494      2496      2466      2492      2494      2497
      2466      2492      2498      2499      2466      2492      2498      2500
      2466      2492      2498      2501      2467      2466      2468      2469
      2467      2466      2468      2473      2467      2466      2492      2493
      2467      2466      2492      2494      2467      2466      2492      2498
      2468      2458      2456      2479      2468      2466      2492      2493
      2468      2466      2492      2494      2468      2466      2492      2498
      2468      2473      2476      2477      2468      2473      2476      2478
      2468      2473      2476      2479      2469      2468      2466      2492
      2469      2468      2473      2474      2469      2468      2473      2475
      2469      2468      2473      2476      2470      2469      2468      2473
      2471      2469      2468      2473      2472      2469      2468      2473
      2473      2468      2466      2492      2473      2476      2479      2480
      2473      2476      2479      2481      2474      2473      2476      2477
      2474      2473      2476      2478      2474      2473      2476      2479
      2475      2473      2476      2477      2475      2473      2476      2478
      2475      2473      2476      2479      2476      2479      2481      2482
      2476      2479      2481      2486      2477      2476      2479      2480
      2477      2476      2479      2481      2478      2476      2479      2480
      2478      2476      2479      2481      2479      2481      2482      2483
      2479      2481      2482      2484      2479      2481      2482      2485
      2479      2481      2486      2487      2479      2481      2486      2488
      2479      2481      2486      2489      2480      2479      2481      2482
      2480      2479      2481      2486      2481      2486      2489      2490
      2481      2486      2489      2491      2482      2481      2486      2487
      2482      2481      2486      2488      2482      2481      2486      2489
      2483      2482      2481      2486      2484      2482      2481      2486
      2485      2482      2481      2486      2487      2486      2489      2490
      2487      2486      2489      2491      2488      2486      2489      2490
      2488      2486      2489      2491      2492      2498      2501      2502
      2492      2498      2501      2503      2492      2498      2501      2504
      2493      2492      2494      2495      2493      2492      2494      2496
      2493      2492      2494      2497      2493      2492      2498      2499
      2493      2492      2498      2500      2493      2492      2498      2501
      2494      2492      2498      2499      2494      2492      2498      2500
      2494      2492      2498      2501      2495      2494      2492      2498
      2496      2494      2492      2498      2497      2494      2492      2498
      2498      2501      2504      2505      2498      2501      2504      2506
      2498      2501      2504      2507      2499      2498      2501      2502
      2499      2498      2501      2503      2499      2498      2501      2504
      2500      2498      2501      2502      2500      2498      2501      2503
      2500      2498      2501      2504      2501      2504      2507      2508
      2501      2504      2507      2509      2501      2504      2507      2513
      2502      2501      2504      2505      2502      2501      2504      2506
      2502      2501      2504      2507      2503      2501      2504      2505
      2503      2501      2504      2506      2503      2501      2504      2507
      2504      2507      2509      2510      2504      2507      2509      2511
      2504      2507      2509      2512      2504      2507      2513      2514
      2504      2507      2513      2515      2504      2507      2513      2516
      2505      2504      2507      2508      2505      2504      2507      2509
      2505      2504      2507      2513      2506      2504      2507      2508
      2506      2504      2507      2509      2506      2504      2507      2513
      2508      2507      2509      2510      2508      2507      2509      2511
      2508      2507      2509      2512      2508      2507      2513      2514
      2508      2507      2513      2515      2508      2507      2513      2516
      2509      2507      2513      2514      2509      2507      2513      2515
      2509      2507      2513      2516      2510      2509      2507      2513
      2511      2509      2507      2513      2512      2509      2507      2513
      2517      2521      2524      2525      2517      2521      2524      2555
      2517      2563      2560      2555      2517      2563      2560      2561
      2517      2563      2560      2562      2518      2517      2519      2520
      2518      2517      2521      2522      2518      2517      2521      2523
      2518      2517      2521      2524      2518      2517      2563      2560
      2518      2517      2563      2564      2518      2517      2563      2565
      2519      2517      2521      2522      2519      2517      2521      2523
      2519      2517      2521      2524      2519      2517      2563      2560
      2519      2517      2563      2564      2519      2517      2563      2565
      2520      2519      2517      2521      2520      2519      2517      2563
      2521      2517      2563      2560      2521      2517      2563      2564
      2521      2517      2563      2565      2521      2524      2525      2526
      2521      2524      2525      2527      2521      2524      2555      2553
      2521      2524      2555      2556      2521      2524      2555      2560
      2522      2521      2517      2563      2522      2521      2524      2525
      2522      2521      2524      2555      2523      2521      2517      2563
      2523      2521      2524      2525      2523      2521      2524      2555
      2524      2521      2517      2563      2524      2525      2527      2528
      2524      2525      2527      2529      2524      2525      2527      2530
      2524      2555      2553      2530      2524      2555      2553      2550
      2524      2555      2553      2554      2524      2555      2556      2557
      2524      2555      2556      2558      2524      2555      2556      2559
      2524      2555      2560      2561      2524      2555      2560      2562
      2524      2555      2560      2563      2525      2524      2555      2553
      2525      2524      2555      2556      2525      2524      2555      2560
      2525      2527      2530      2531      2525      2527      2530      2532
      2525      2527      2530      2553      2526      2525      2524      2555
      2526      2525      2527      2528      2526      2525      2527      2529
      2526      2525      2527      2530      2527      2525      2524      2555
      2527      2530      2532      2533      2527      2530      2532      2534
      2527      2530      2532      2542      2527      2530      2553      2550
      2527      2530      2553      2554      2527      2530      2553      2555
      2528      2527      2530      2531      2528      2527      2530      2532
      2528      2527      2530      2553      2529      2527      2530      2531
      2529      2527      2530      2532      2529      2527      2530      2553
      2530      2532      2534      2535      2530      2532      2534      2536
      2530      2532      2534      2537      2530      2532      2542      2540
      2530      2532      2542      2543      2530      2532      2542      2547
      2530      2553      2550      2547      2530      2553      2550      2551
      2530      2553      2550      2552      2530      2553      2555      2556
      2530      2553      2555      2560      2531      2530      2532      2533
      2531      2530      2532      2534      2531      2530      2532      2542
      2531      2530      2553      2550      2531      2530      2553      2554
      2531      2530      2553      2555      2532      2530      2553      2550
      2532      2530      2553      2554      2532      2530      2553      2555
      2532      2534      2537      2538      2532      2534      2537      2539
      2532      2534      2537      2540      2532      2542      2540      2537
      2532      2542      2540      2541      2532      2542      2540      2566
      2532      2542      2543      2544      2532      2542      2543      2545
      2532      2542      2543      2546      2532      2542      2547      2548
      2532      2542      2547      2549      2532      2542      2547      2550
      2533      2532      2530      2553      2533      2532      2534      2535
      2533      2532      2534      2536      2533      2532      2534      2537
      2533      2532      2542      2540      2533      2532      2542      2543
      2533      2532      2542      2547      2534      2532      2530      2553
      2534      2532      2542      2540      2534      2532      2542      2543
      2534      2532      2542      2547      2534      2537      2540      2541
      2534      2537      2540      2542      2534      2537      2540      2566
      2535      2534      2532      2542      2535      2534      2537      2538
      2535      2534      2537      2539      2535      2534      2537      2540
      2536      2534      2532      2542      2536      2534      2537      2538
      2536      2534      2537      2539      2536      2534      2537      2540
      2537      2534      2532      2542      2537      2540      2542      2543
      2537      2540      2542      2547      2537      2540      2566      2567
      2537      2540      2566      2568      2537      2540      2566      2572
      2538      2537      2540      2541      2538      2537      2540      2542
      2538      2537      2540      2566      2539      2537      2540      2541
      2539      2537      2540      2542      2539      2537      2540      2566
      2540      2542      2543      2544      2540      2542      2543      2545
      2540      2542      2543      2546      2540      2542      2547      2548
      2540      2542      2547      2549      2540      2542      2547      2550
      2540      2566      2568      2569      2540      2566      2568      2570
      2540      2566      2568      2571      2540      2566      2572      2573
      2540      2566      2572      2574      2540      2566      2572      2575
      2541      2540      2542      2543      2541      2540      2542      2547
      2541      2540      2566      2567      2541      2540      2566      2568
      2541      2540      2566      2572      2542      2532      2530      2553
      2542      2540      2566      2567      2542      2540      2566      2568
      2542      2540      2566      2572      2542      2547      2550      2551
      2542      2547      2550      2552      2542      2547      2550      2553
      2543      2542      2540      2566      2543      2542      2547      2548
      2543      2542      2547      2549      2543      2542      2547      2550
      2544      2543      2542      2547      2545      2543      2542      2547
      2546      2543      2542      2547      2547      2542      2540      2566
      2547      2550      2553      2554      2547      2550      2553      2555
      2548      2547      2550      2551      2548      2547      2550      2552
      2548      2547      2550      2553      2549      2547      2550      2551
      2549      2547      2550      2552      2549      2547      2550      2553
      2550      2553      2555      2556      2550      2553      2555      2560
      2551      2550      2553      2554      2551      2550      2553      2555
      2552      2550      2553      2554      2552      2550      2553      2555
      2553      2555      2556      2557      2553      2555      2556      2558
      2553      2555      2556      2559      2553      2555      2560      2561
      2553      2555      2560      2562      2553      2555      2560      2563
      2554      2553      2555      2556      2554      2553      2555      2560
      2555      2560      2563      2564      2555      2560      2563      2565
      2556      2555      2560      2561      2556      2555      2560      2562
      2556      2555      2560      2563      2557      2556      2555      2560
      2558      2556      2555      2560      2559      2556      2555      2560
      2561      2560      2563      2564      2561      2560      2563      2565
      2562      2560      2563      2564      2562      2560      2563      2565
      2566      2572      2575      2576      2566      2572      2575      2577
      2566      2572      2575      2578      2567      2566      2568      2569
      2567      2566      2568      2570      2567      2566      2568      2571
      2567      2566      2572      2573      2567      2566      2572      2574
      2567      2566      2572      2575      2568      2566      2572      2573
      2568      2566      2572      2574      2568      2566      2572      2575
      2569      2568      2566      2572      2570      2568      2566      2572
      2571      2568      2566      2572      2572      2575      2578      2579
      2572      2575      2578      2580      2572      2575      2578      2581
      2573      2572      2575      2576      2573      2572      2575      2577
      2573      2572      2575      2578      2574      2572      2575      2576
      2574      2572      2575      2577      2574      2572      2575      2578
      2575      2578      2581      2582      2575      2578      2581      2583
      2575      2578      2581      2587      2576      2575      2578      2579
      2576      2575      2578      2580      2576      2575      2578      2581
      2577      2575      2578      2579      2577      2575      2578      2580
      2577      2575      2578      2581      2578      2581      2583      2584
      2578      2581      2583      2585      2578      2581      2583      2586
      2578      2581      2587      2588      2578      2581      2587      2589
      2578      2581      2587      2590      2579      2578      2581      2582
      2579      2578      2581      2583      2579      2578      2581      2587
      2580      2578      2581      2582      2580      2578      2581      2583
      2580      2578      2581      2587      2582      2581      2583      2584
      2582      2581      2583      2585      2582      2581      2583      2586
      2582      2581      2587      2588      2582      2581      2587      2589
      2582      2581      2587      2590      2583      2581      2587      2588
      2583      2581      2587      2589      2583      2581      2587      2590
      2584      2583      2581      2587      2585      2583      2581      2587
      2586      2583      2581      2587      2591      2595      2598      2599
      2591      2595      2598      2629      2591      2637      2634      2629
      2591      2637      2634      2635      2591      2637      2634      2636
      2592      2591      2593      2594      2592      2591      2595      2596
      2592      2591      2595      2597      2592      2591      2595      2598
      2592      2591      2637      2634      2592      2591      2637      2638
      2592      2591      2637      2639      2593      2591      2595      2596
      2593      2591      2595      2597      2593      2591      2595      2598
      2593      2591      2637      2634      2593      2591      2637      2638
      2593      2591      2637      2639      2594      2593      2591      2595
      2594      2593      2591      2637      2595      2591      2637      2634
      2595      2591      2637      2638      2595      2591      2637      2639
      2595      2598      2599      2600      2595      2598      2599      2601
      2595      2598      2629      2627      2595      2598      2629      2630
      2595      2598      2629      2634      2596      2595      2591      2637
      2596      2595      2598      2599      2596      2595      2598      2629
      2597      2595      2591      2637      2597      2595      2598      2599
      2597      2595      2598      2629      2598      2595      2591      2637
      2598      2599      2601      2602      2598      2599      2601      2603
      2598      2599      2601      2604      2598      2629      2627      2604
      2598      2629      2627      2624      2598      2629      2627      2628
      2598      2629      2630      2631      2598      2629      2630      2632
      2598      2629      2630      2633      2598      2629      2634      2635
      2598      2629      2634      2636      2598      2629      2634      2637
      2599      2598      2629      2627      2599      2598      2629      2630
      2599      2598      2629      2634      2599      2601      2604      2605
      2599      2601      2604      2606      2599      2601      2604      2627
      2600      2599      2598      2629      2600      2599      2601      2602
      2600      2599      2601      2603      2600      2599      2601      2604
      2601      2599      2598      2629      2601      2604      2606      2607
      2601      2604      2606      2608      2601      2604      2606      2616
      2601      2604      2627      2624      2601      2604      2627      2628
      2601      2604      2627      2629      2602      2601      2604      2605
      2602      2601      2604      2606      2602      2601      2604      2627
      2603      2601      2604      2605      2603      2601      2604      2606
      2603      2601      2604      2627      2604      2606      2608      2609
      2604      2606      2608      2610      2604      2606      2608      2611
      2604      2606      2616      2614      2604      2606      2616      2617
      2604      2606      2616      2621      2604      2627      2624      2621
      2604      2627      2624      2625      2604      2627      2624      2626
      2604      2627      2629      2630      2604      2627      2629      2634
      2605      2604      2606      2607      2605      2604      2606      2608
      2605      2604      2606      2616      2605      2604      2627      2624
      2605      2604      2627      2628      2605      2604      2627      2629
      2606      2604      2627      2624      2606      2604      2627      2628
      2606      2604      2627      2629      2606      2608      2611      2612
      2606      2608      2611      2613      2606      2608      2611      2614
      2606      2616      2614      2611      2606      2616      2614      2615
      2606      2616      2614      2640      2606      2616      2617      2618
      2606      2616      2617      2619      2606      2616      2617      2620
      2606      2616      2621      2622      2606      2616      2621      2623
      2606      2616      2621      2624      2607      2606      2604      2627
      2607      2606      2608      2609      2607      2606      2608      2610
      2607      2606      2608      2611      2607      2606      2616      2614
      2607      2606      2616      2617      2607      2606      2616      2621
      2608      2606      2604      2627      2608      2606      2616      2614
      2608      2606      2616      2617      2608      2606      2616      2621
      2608      2611      2614      2615      2608      2611      2614      2616
      2608      2611      2614      2640      2609      2608      2606      2616
      2609      2608      2611      2612      2609      2608      2611      2613
      2609      2608      2611      2614      2610      2608      2606      2616
      2610      2608      2611      2612      2610      2608      2611      2613
      2610      2608      2611      2614      2611      2608      2606      2616
      2611      2614      2616      2617      2611      2614      2616      2621
      2611      2614      2640      2641      2611      2614      2640      2642
      2611      2614      2640      2646      2612      2611      2614      2615
      2612      2611      2614      2616      2612      2611      2614      2640
      2613      2611      2614      2615      2613      2611      2614      2616
      2613      2611      2614      2640      2614      2616      2617      2618
      2614      2616      2617      2619      2614      2616      2617      2620
      2614      2616      2621      2622      2614      2616      2621      2623
      2614      2616      2621      2624      2614      2640      2642      2643
      2614      2640      2642      2644      2614      2640      2642      2645
      2614      2640      2646      2647      2614      2640      2646      2648
      2614      2640      2646      2649      2615      2614      2616      2617
      2615      2614      2616      2621      2615      2614      2640      2641
      2615      2614      2640      2642      2615      2614      2640      2646
      2616      2606      2604      2627      2616      2614      2640      2641
      2616      2614      2640      2642      2616      2614      2640      2646
      2616      2621      2624      2625      2616      2621      2624      2626
      2616      2621      2624      2627      2617      2616      2614      2640
      2617      2616      2621      2622      2617      2616      2621      2623
      2617      2616      2621      2624      2618      2617      2616      2621
      2619      2617      2616      2621      2620      2617      2616      2621
      2621      2616      2614      2640      2621      2624      2627      2628
      2621      2624      2627      2629      2622      2621      2624      2625
      2622      2621      2624      2626      2622      2621      2624      2627
      2623      2621      2624      2625      2623      2621      2624      2626
      2623      2621      2624      2627      2624      2627      2629      2630
      2624      2627      2629      2634      2625      2624      2627      2628
      2625      2624      2627      2629      2626      2624      2627      2628
      2626      2624      2627      2629      2627      2629      2630      2631
      2627      2629      2630      2632      2627      2629      2630      2633
      2627      2629      2634      2635      2627      2629      2634      2636
      2627      2629      2634      2637      2628      2627      2629      2630
      2628      2627      2629      2634      2629      2634      2637      2638
      2629      2634      2637      2639      2630      2629      2634      2635
      2630      2629      2634      2636      2630      2629      2634      2637
      2631      2630      2629      2634      2632      2630      2629      2634
      2633      2630      2629      2634      2635      2634      2637      2638
      2635      2634      2637      2639      2636      2634      2637      2638
      2636      2634      2637      2639      2640      2646      2649      2650
      2640      2646      2649      2651      2640      2646      2649      2652
      2641      2640      2642      2643      2641      2640      2642      2644
      2641      2640      2642      2645      2641      2640      2646      2647
      2641      2640      2646      2648      2641      2640      2646      2649
      2642      2640      2646      2647      2642      2640      2646      2648
      2642      2640      2646      2649      2643      2642      2640      2646
      2644      2642      2640      2646      2645      2642      2640      2646
      2646      2649      2652      2653      2646      2649      2652      2654
      2646      2649      2652      2655      2647      2646      2649      2650
      2647      2646      2649      2651      2647      2646      2649      2652
      2648      2646      2649      2650      2648      2646      2649      2651
      2648      2646      2649      2652      2649      2652      2655      2656
      2649      2652      2655      2657      2649      2652      2655      2661
      2650      2649      2652      2653      2650      2649      2652      2654
      2650      2649      2652      2655      2651      2649      2652      2653
      2651      2649      2652      2654      2651      2649      2652      2655
      2652      2655      2657      2658      2652      2655      2657      2659
      2652      2655      2657      2660      2652      2655      2661      2662
      2652      2655      2661      2663      2652      2655      2661      2664
      2653      2652      2655      2656      2653      2652      2655      2657
      2653      2652      2655      2661      2654      2652      2655      2656
      2654      2652      2655      2657      2654      2652      2655      2661
      2656      2655      2657      2658      2656      2655      2657      2659
      2656      2655      2657      2660      2656      2655      2661      2662
      2656      2655      2661      2663      2656      2655      2661      2664
      2657      2655      2661      2662      2657      2655      2661      2663
      2657      2655      2661      2664      2658      2657      2655      2661
      2659      2657      2655      2661      2660      2657      2655      2661
      2665      2669      2672      2673      2665      2669      2672      2703
      2665      2711      2708      2703      2665      2711      2708      2709
      2665      2711      2708      2710      2666      2665      2667      2668
      2666      2665      2669      2670      2666      2665      2669      2671
      2666      2665      2669      2672      2666      2665      2711      2708
      2666      2665      2711      2712      2666      2665      2711      2713
      2667      2665      2669      2670      2667      2665      2669      2671
      2667      2665      2669      2672      2667      2665      2711      2708
      2667      2665      2711      2712      2667      2665      2711      2713
      2668      2667      2665      2669      2668      2667      2665      2711
      2669      2665      2711      2708      2669      2665      2711      2712
      2669      2665      2711      2713      2669      2672      2673      2674
      2669      2672      2673      2675      2669      2672      2703      2701
      2669      2672      2703      2704      2669      2672      2703      2708
      2670      2669      2665      2711      2670      2669      2672      2673
      2670      2669      2672      2703      2671      2669      2665      2711
      2671      2669      2672      2673      2671      2669      2672      2703
      2672      2669      2665      2711      2672      2673      2675      2676
      2672      2673      2675      2677      2672      2673      2675      2678
      2672      2703      2701      2678      2672      2703      2701      2698
      2672      2703      2701      2702      2672      2703      2704      2705
      2672      2703      2704      2706      2672      2703      2704      2707
      2672      2703      2708      2709      2672      2703      2708      2710
      2672      2703      2708      2711      2673      2672      2703      2701
      2673      2672      2703      2704      2673      2672      2703      2708
      2673      2675      2678      2679      2673      2675      2678      2680
      2673      2675      2678      2701      2674      2673      2672      2703
      2674      2673      2675      2676      2674      2673      2675      2677
      2674      2673      2675      2678      2675      2673      2672      2703
      2675      2678      2680      2681      2675      2678      2680      2682
      2675      2678      2680      2690      2675      2678      2701      2698
      2675      2678      2701      2702      2675      2678      2701      2703
      2676      2675      2678      2679      2676      2675      2678      2680
      2676      2675      2678      2701      2677      2675      2678      2679
      2677      2675      2678      2680      2677      2675      2678      2701
      2678      2680      2682      2683      2678      2680      2682      2684
      2678      2680      2682      2685      2678      2680      2690      2688
      2678      2680      2690      2691      2678      2680      2690      2695
      2678      2701      2698      2695      2678      2701      2698      2699
      2678      2701      2698      2700      2678      2701      2703      2704
      2678      2701      2703      2708      2679      2678      2680      2681
      2679      2678      2680      2682      2679      2678      2680      2690
      2679      2678      2701      2698      2679      2678      2701      2702
      2679      2678      2701      2703      2680      2678      2701      2698
      2680      2678      2701      2702      2680      2678      2701      2703
      2680      2682      2685      2686      2680      2682      2685      2687
      2680      2682      2685      2688      2680      2690      2688      2685
      2680      2690      2688      2689      2680      2690      2688      2714
      2680      2690      2691      2692      2680      2690      2691      2693
      2680      2690      2691      2694      2680      2690      2695      2696
      2680      2690      2695      2697      2680      2690      2695      2698
      2681      2680      2678      2701      2681      2680      2682      2683
      2681      2680      2682      2684      2681      2680      2682      2685
      2681      2680      2690      2688      2681      2680      2690      2691
      2681      2680      2690      2695      2682      2680      2678      2701
      2682      2680      2690      2688      2682      2680      2690      2691
      2682      2680      2690      2695      2682      2685      2688      2689
      2682      2685      2688      2690      2682      2685      2688      2714
      2683      2682      2680      2690      2683      2682      2685      2686
      2683      2682      2685      2687      2683      2682      2685      2688
      2684      2682      2680      2690      2684      2682      2685      2686
      2684      2682      2685      2687      2684      2682      2685      2688
      2685      2682      2680      2690      2685      2688      2690      2691
      2685      2688      2690      2695      2685      2688      2714      2715
      2685      2688      2714      2716      2685      2688      2714      2720
      2686      2685      2688      2689      2686      2685      2688      2690
      2686      2685      2688      2714      2687      2685      2688      2689
      2687      2685      2688      2690      2687      2685      2688      2714
      2688      2690      2691      2692      2688      2690      2691      2693
      2688      2690      2691      2694      2688      2690      2695      2696
      2688      2690      2695      2697      2688      2690      2695      2698
      2688      2714      2716      2717      2688      2714      2716      2718
      2688      2714      2716      2719      2688      2714      2720      2721
      2688      2714      2720      2722      2688      2714      2720      2723
      2689      2688      2690      2691      2689      2688      2690      2695
      2689      2688      2714      2715      2689      2688      2714      2716
      2689      2688      2714      2720      2690      2680      2678      2701
      2690      2688      2714      2715      2690      2688      2714      2716
      2690      2688      2714      2720      2690      2695      2698      2699
      2690      2695      2698      2700      2690      2695      2698      2701
      2691      2690      2688      2714      2691      2690      2695      2696
      2691      2690      2695      2697      2691      2690      2695      2698
      2692      2691      2690      2695      2693      2691      2690      2695
      2694      2691      2690      2695      2695      2690      2688      2714
      2695      2698      2701      2702      2695      2698      2701      2703
      2696      2695      2698      2699      2696      2695      2698      2700
      2696      2695      2698      2701      2697      2695      2698      2699
      2697      2695      2698      2700      2697      2695      2698      2701
      2698      2701      2703      2704      2698      2701      2703      2708
      2699      2698      2701      2702      2699      2698      2701      2703
      2700      2698      2701      2702      2700      2698      2701      2703
      2701      2703      2704      2705      2701      2703      2704      2706
      2701      2703      2704      2707      2701      2703      2708      2709
      2701      2703      2708      2710      2701      2703      2708      2711
      2702      2701      2703      2704      2702      2701      2703      2708
      2703      2708      2711      2712      2703      2708      2711      2713
      2704      2703      2708      2709      2704      2703      2708      2710
      2704      2703      2708      2711      2705      2704      2703      2708
      2706      2704      2703      2708      2707      2704      2703      2708
      2709      2708      2711      2712      2709      2708      2711      2713
      2710      2708      2711      2712      2710      2708      2711      2713
      2714      2720      2723      2724      2714      2720      2723      2725
      2714      2720      2723      2726      2715      2714      2716      2717
      2715      2714      2716      2718      2715      2714      2716      2719
      2715      2714      2720      2721      2715      2714      2720      2722
      2715      2714      2720      2723      2716      2714      2720      2721
      2716      2714      2720      2722      2716      2714      2720      2723
      2717      2716      2714      2720      2718      2716      2714      2720
      2719      2716      2714      2720      2720      2723      2726      2727
      2720      2723      2726      2728      2720      2723      2726      2729
      2721      2720      2723      2724      2721      2720      2723      2725
      2721      2720      2723      2726      2722      2720      2723      2724
      2722      2720      2723      2725      2722      2720      2723      2726
      2723      2726      2729      2730      2723      2726      2729      2731
      2723      2726      2729      2735      2724      2723      2726      2727
      2724      2723      2726      2728      2724      2723      2726      2729
      2725      2723      2726      2727      2725      2723      2726      2728
      2725      2723      2726      2729      2726      2729      2731      2732
      2726      2729      2731      2733      2726      2729      2731      2734
      2726      2729      2735      2736      2726      2729      2735      2737
      2726      2729      2735      2738      2727      2726      2729      2730
      2727      2726      2729      2731      2727      2726      2729      2735
      2728      2726      2729      2730      2728      2726      2729      2731
      2728      2726      2729      2735      2730      2729      2731      2732
      2730      2729      2731      2733      2730      2729      2731      2734
      2730      2729      2735      2736      2730      2729      2735      2737
      2730      2729      2735      2738      2731      2729      2735      2736
      2731      2729      2735      2737      2731      2729      2735      2738
      2732      2731      2729      2735      2733      2731      2729      2735
      2734      2731      2729      2735      2739      2743      2746      2747
      2739      2743      2746      2777      2739      2785      2782      2777
      2739      2785      2782      2783      2739      2785      2782      2784
      2740      2739      2741      2742      2740      2739      2743      2744
      2740      2739      2743      2745      2740      2739      2743      2746
      2740      2739      2785      2782      2740      2739      2785      2786
      2740      2739      2785      2787      2741      2739      2743      2744
      2741      2739      2743      2745      2741      2739      2743      2746
      2741      2739      2785      2782      2741      2739      2785      2786
      2741      2739      2785      2787      2742      2741      2739      2743
      2742      2741      2739      2785      2743      2739      2785      2782
      2743      2739      2785      2786      2743      2739      2785      2787
      2743      2746      2747      2748      2743      2746      2747      2749
      2743      2746      2777      2775      2743      2746      2777      2778
      2743      2746      2777      2782      2744      2743      2739      2785
      2744      2743      2746      2747      2744      2743      2746      2777
      2745      2743      2739      2785      2745      2743      2746      2747
      2745      2743      2746      2777      2746      2743      2739      2785
      2746      2747      2749      2750      2746      2747      2749      2751
      2746      2747      2749      2752      2746      2777      2775      2752
      2746      2777      2775      2772      2746      2777      2775      2776
      2746      2777      2778      2779      2746      2777      2778      2780
      2746      2777      2778      2781      2746      2777      2782      2783
      2746      2777      2782      2784      2746      2777      2782      2785
      2747      2746      2777      2775      2747      2746      2777      2778
      2747      2746      2777      2782      2747      2749      2752      2753
      2747      2749      2752      2754      2747      2749      2752      2775
      2748      2747      2746      2777      2748      2747      2749      2750
      2748      2747      2749      2751      2748      2747      2749      2752
      2749      2747      2746      2777      2749      2752      2754      2755
      2749      2752      2754      2756      2749      2752      2754      2764
      2749      2752      2775      2772      2749      2752      2775      2776
      2749      2752      2775      2777      2750      2749      2752      2753
      2750      2749      2752      2754      2750      2749      2752      2775
      2751      2749      2752      2753      2751      2749      2752      2754
      2751      2749      2752      2775      2752      2754      2756      2757
      2752      2754      2756      2758      2752      2754      2756      2759
      2752      2754      2764      2762      2752      2754      2764      2765
      2752      2754      2764      2769      2752      2775      2772      2769
      2752      2775      2772      2773      2752      2775      2772      2774
      2752      2775      2777      2778      2752      2775      2777      2782
      2753      2752      2754      2755      2753      2752      2754      2756
      2753      2752      2754      2764      2753      2752      2775      2772
      2753      2752      2775      2776      2753      2752      2775      2777
      2754      2752      2775      2772      2754      2752      2775      2776
      2754      2752      2775      2777      2754      2756      2759      2760
      2754      2756      2759      2761      2754      2756      2759      2762
      2754      2764      2762      2759      2754      2764      2762      2763
      2754      2764      2762      2788      2754      2764      2765      2766
      2754      2764      2765      2767      2754      2764      2765      2768
      2754      2764      2769      2770      2754      2764      2769      2771
      2754      2764      2769      2772      2755      2754      2752      2775
      2755      2754      2756      2757      2755      2754      2756      2758
      2755      2754      2756      2759      2755      2754      2764      2762
      2755      2754      2764      2765      2755      2754      2764      2769
      2756      2754      2752      2775      2756      2754      2764      2762
      2756      2754      2764      2765      2756      2754      2764      2769
      2756      2759      2762      2763      2756      2759      2762      2764
      2756      2759      2762      2788      2757      2756      2754      2764
      2757      2756      2759      2760      2757      2756      2759      2761
      2757      2756      2759      2762      2758      2756      2754      2764
      2758      2756      2759      2760      2758      2756      2759      2761
      2758      2756      2759      2762      2759      2756      2754      2764
      2759      2762      2764      2765      2759      2762      2764      2769
      2759      2762      2788      2789      2759      2762      2788      2790
      2759      2762      2788      2794      2760      2759      2762      2763
      2760      2759      2762      2764      2760      2759      2762      2788
      2761      2759      2762      2763      2761      2759      2762      2764
      2761      2759      2762      2788      2762      2764      2765      2766
      2762      2764      2765      2767      2762      2764      2765      2768
      2762      2764      2769      2770      2762      2764      2769      2771
      2762      2764      2769      2772      2762      2788      2790      2791
      2762      2788      2790      2792      2762      2788      2790      2793
      2762      2788      2794      2795      2762      2788      2794      2796
      2762      2788      2794      2797      2763      2762      2764      2765
      2763      2762      2764      2769      2763      2762      2788      2789
      2763      2762      2788      2790      2763      2762      2788      2794
      2764      2754      2752      2775      2764      2762      2788      2789
      2764      2762      2788      2790      2764      2762      2788      2794
      2764      2769      2772      2773      2764      2769      2772      2774
      2764      2769      2772      2775      2765      2764      2762      2788
      2765      2764      2769      2770      2765      2764      2769      2771
      2765      2764      2769      2772      2766      2765      2764      2769
      2767      2765      2764      2769      2768      2765      2764      2769
      2769      2764      2762      2788      2769      2772      2775      2776
      2769      2772      2775      2777      2770      2769      2772      2773
      2770      2769      2772      2774      2770      2769      2772      2775
      2771      2769      2772      2773      2771      2769      2772      2774
      2771      2769      2772      2775      2772      2775      2777      2778
      2772      2775      2777      2782      2773      2772      2775      2776
      2773      2772      2775      2777      2774      2772      2775      2776
      2774      2772      2775      2777      2775      2777      2778      2779
      2775      2777      2778      2780      2775      2777      2778      2781
      2775      2777      2782      2783      2775      2777      2782      2784
      2775      2777      2782      2785      2776      2775      2777      2778
      2776      2775      2777      2782      2777      2782      2785      2786
      2777      2782      2785      2787      2778      2777      2782      2783
      2778      2777      2782      2784      2778      2777      2782      2785
      2779      2778      2777      2782      2780      2778      2777      2782
      2781      2778      2777      2782      2783      2782      2785      2786
      2783      2782      2785      2787      2784      2782      2785      2786
      2784      2782      2785      2787      2788      2794      2797      2798
      2788      2794      2797      2799      2788      2794      2797      2800
      2789      2788      2790      2791      2789      2788      2790      2792
      2789      2788      2790      2793      2789      2788      2794      2795
      2789      2788      2794      2796      2789      2788      2794      2797
      2790      2788      2794      2795      2790      2788      2794      2796
      2790      2788      2794      2797      2791      2790      2788      2794
      2792      2790      2788      2794      2793      2790      2788      2794
      2794      2797      2800      2801      2794      2797      2800      2802
      2794      2797      2800      2803      2795      2794      2797      2798
      2795      2794      2797      2799      2795      2794      2797      2800
      2796      2794      2797      2798      2796      2794      2797      2799
      2796      2794      2797      2800      2797      2800      2803      2804
      2797      2800      2803      2805      2797      2800      2803      2809
      2798      2797      2800      2801      2798      2797      2800      2802
      2798      2797      2800      2803      2799      2797      2800      2801
      2799      2797      2800      2802      2799      2797      2800      2803
      2800      2803      2805      2806      2800      2803      2805      2807
      2800      2803      2805      2808      2800      2803      2809      2810
      2800      2803      2809      2811      2800      2803      2809      2812
      2801      2800      2803      2804      2801      2800      2803      2805
      2801      2800      2803      2809      2802      2800      2803      2804
      2802      2800      2803      2805      2802      2800      2803      2809
      2804      2803      2805      2806      2804      2803      2805      2807
      2804      2803      2805      2808      2804      2803      2809      2810
      2804      2803      2809      2811      2804      2803      2809      2812
      2805      2803      2809      2810      2805      2803      2809      2811
      2805      2803      2809      2812      2806      2805      2803      2809
      2807      2805      2803      2809      2808      2805      2803      2809
      2813      2814      2829      2830      2813      2814      2829      2831
      2813      2814      2829      2835      2814      2813      2817      2818
      2814      2813      2817      2819      2814      2813      2817      2820
      2814      2813      2821      2822      2814      2813      2821      2823
      2814      2813      2821      2824      2814      2813      2825      2826
      2814      2813      2825      2827      2814      2813      2825      2828
      2814      2829      2835      2832      2815      2814      2813      2817
      2815      2814      2813      2821      2815      2814      2813      2825
      2815      2814      2829      2830      2815      2814      2829      2831
      2815      2814      2829      2835      2816      2814      2813      2817
      2816      2814      2813      2821      2816      2814      2813      2825
      2816      2814      2829      2830      2816      2814      2829      2831
      2816      2814      2829      2835      2817      2813      2814      2829
      2817      2813      2821      2822      2817      2813      2821      2823
      2817      2813      2821      2824      2817      2813      2825      2826
      2817      2813      2825      2827      2817      2813      2825      2828
      2818      2817      2813      2821      2818      2817      2813      2825
      2819      2817      2813      2821      2819      2817      2813      2825
      2820      2817      2813      2821      2820      2817      2813      2825
      2821      2813      2814      2829      2821      2813      2825      2826
      2821      2813      2825      2827      2821      2813      2825      2828
      2822      2821      2813      2825      2823      2821      2813      2825
      2824      2821      2813      2825      2825      2813      2814      2829
      2829      2835      2832      2833      2829      2835      2832      2834
      2829      2835      2832      2836      2830      2829      2835      2832
      2831      2829      2835      2832      2832      2836      2837      2838
      2832      2836      2837      2839      2832      2836      2837      2840
      2833      2832      2836      2837      2834      2832      2836      2837
      2835      2832      2836      2837      2836      2837      2840      2841
      2836      2837      2840      2842      2836      2837      2840      2848
      2837      2840      2842      2843      2837      2840      2848      2849
      2837      2840      2848      2850      2837      2840      2848      2851
      2838      2837      2840      2841      2838      2837      2840      2842
      2838      2837      2840      2848      2839      2837      2840      2841
      2839      2837      2840      2842      2839      2837      2840      2848
      2840      2842      2843      2844      2840      2842      2843      2845
      2840      2848      2851      2852      2841      2840      2842      2843
      2841      2840      2848      2849      2841      2840      2848      2850
      2841      2840      2848      2851      2842      2840      2848      2849
      2842      2840      2848      2850      2842      2840      2848      2851
      2842      2843      2845      2846      2842      2843      2845      2847
      2842      2843      2845      2857      2843      2842      2840      2848
      2843      2845      2857      2858      2843      2845      2857      2859
      2843      2845      2857      2860      2844      2843      2845      2846
      2844      2843      2845      2847      2844      2843      2845      2857
      2845      2857      2860      2861      2845      2857      2860      2862
      2845      2857      2860      2863      2846      2845      2857      2858
      2846      2845      2857      2859      2846      2845      2857      2860
      2847      2845      2857      2858      2847      2845      2857      2859
      2847      2845      2857      2860      2848      2851      2852      2853
      2848      2851      2852      2854      2849      2848      2851      2852
      2850      2848      2851      2852      2851      2852      2854      2855
      2851      2852      2854      2856      2851      2852      2854      2904
      2852      2854      2904      2905      2852      2854      2904      2906
      2852      2854      2904      2907      2853      2852      2854      2855
      2853      2852      2854      2856      2853      2852      2854      2904
      2854      2904      2907      2908      2854      2904      2907      2909
      2854      2904      2907      2910      2855      2854      2904      2905
      2855      2854      2904      2906      2855      2854      2904      2907
      2856      2854      2904      2905      2856      2854      2904      2906
      2856      2854      2904      2907      2857      2860      2863      2864
      2857      2860      2863      2865      2857      2860      2863      2866
      2858      2857      2860      2861      2858      2857      2860      2862
      2858      2857      2860      2863      2859      2857      2860      2861
      2859      2857      2860      2862      2859      2857      2860      2863
      2860      2863      2866      2867      2860      2863      2866      2868
      2860      2863      2866      2869      2861      2860      2863      2864
      2861      2860      2863      2865      2861      2860      2863      2866
      2862      2860      2863      2864      2862      2860      2863      2865
      2862      2860      2863      2866      2863      2866      2869      2870
      2863      2866      2869      2871      2863      2866      2869      2872
      2864      2863      2866      2867      2864      2863      2866      2868
      2864      2863      2866      2869      2865      2863      2866      2867
      2865      2863      2866      2868      2865      2863      2866      2869
      2866      2869      2872      2873      2866      2869      2872      2874
      2866      2869      2872      2875      2867      2866      2869      2870
      2867      2866      2869      2871      2867      2866      2869      2872
      2868      2866      2869      2870      2868      2866      2869      2871
      2868      2866      2869      2872      2869      2872      2875      2876
      2869      2872      2875      2877      2870      2869      2872      2873
      2870      2869      2872      2874      2870      2869      2872      2875
      2871      2869      2872      2873      2871      2869      2872      2874
      2871      2869      2872      2875      2872      2875      2877      2878
      2872      2875      2877      2879      2873      2872      2875      2876
      2873      2872      2875      2877      2874      2872      2875      2876
      2874      2872      2875      2877      2875      2877      2879      2880
      2875      2877      2879      2881      2875      2877      2879      2882
      2876      2875      2877      2878      2876      2875      2877      2879
      2877      2879      2882      2883      2877      2879      2882      2884
      2877      2879      2882      2885      2878      2877      2879      2880
      2878      2877      2879      2881      2878      2877      2879      2882
      2879      2882      2885      2886      2879      2882      2885      2887
      2879      2882      2885      2888      2880      2879      2882      2883
      2880      2879      2882      2884      2880      2879      2882      2885
      2881      2879      2882      2883      2881      2879      2882      2884
      2881      2879      2882      2885      2882      2885      2888      2889
      2882      2885      2888      2890      2882      2885      2888      2891
      2883      2882      2885      2886      2883      2882      2885      2887
      2883      2882      2885      2888      2884      2882      2885      2886
      2884      2882      2885      2887      2884      2882      2885      2888
      2885      2888      2891      2892      2885      2888      2891      2893
      2885      2888      2891      2894      2886      2885      2888      2889
      2886      2885      2888      2890      2886      2885      2888      2891
      2887      2885      2888      2889      2887      2885      2888      2890
      2887      2885      2888      2891      2888      2891      2894      2895
      2888      2891      2894      2896      2888      2891      2894      2897
      2889      2888      2891      2892      2889      2888      2891      2893
      2889      2888      2891      2894      2890      2888      2891      2892
      2890      2888      2891      2893      2890      2888      2891      2894
      2891      2894      2897      2898      2891      2894      2897      2899
      2891      2894      2897      2900      2892      2891      2894      2895
      2892      2891      2894      2896      2892      2891      2894      2897
      2893      2891      2894      2895      2893      2891      2894      2896
      2893      2891      2894      2897      2894      2897      2900      2901
      2894      2897      2900      2902      2894      2897      2900      2903
      2895      2894      2897      2898      2895      2894      2897      2899
      2895      2894      2897      2900      2896      2894      2897      2898
      2896      2894      2897      2899      2896      2894      2897      2900
      2898      2897      2900      2901      2898      2897      2900      2902
      2898      2897      2900      2903      2899      2897      2900      2901
      2899      2897      2900      2902      2899      2897      2900      2903
      2904      2907      2910      2911      2904      2907      2910      2912
      2904      2907      2910      2913      2905      2904      2907      2908
      2905      2904      2907      2909      2905      2904      2907      2910
      2906      2904      2907      2908      2906      2904      2907      2909
      2906      2904      2907      2910      2907      2910      2913      2914
      2907      2910      2913      2915      2907      2910      2913      2916
      2908      2907      2910      2911      2908      2907      2910      2912
      2908      2907      2910      2913      2909      2907      2910      2911
      2909      2907      2910      2912      2909      2907      2910      2913
      2910      2913      2916      2917      2910      2913      2916      2918
      2910      2913      2916      2919      2911      2910      2913      2914
      2911      2910      2913      2915      2911      2910      2913      2916
      2912      2910      2913      2914      2912      2910      2913      2915
      2912      2910      2913      2916      2913      2916      2919      2920
      2913      2916      2919      2921      2913      2916      2919      2922
      2914      2913      2916      2917      2914      2913      2916      2918
      2914      2913      2916      2919      2915      2913      2916      2917
      2915      2913      2916      2918      2915      2913      2916      2919
      2916      2919      2922      2923      2916      2919      2922      2924
      2916      2919      2922      2925      2917      2916      2919      2920
      2917      2916      2919      2921      2917      2916      2919      2922
      2918      2916      2919      2920      2918      2916      2919      2921
      2918      2916      2919      2922      2919      2922      2925      2926
      2919      2922      2925      2927      2919      2922      2925      2928
      2920      2919      2922      2923      2920      2919      2922      2924
      2920      2919      2922      2925      2921      2919      2922      2923
      2921      2919      2922      2924      2921      2919      2922      2925
      2922      2925      2928      2929      2922      2925      2928      2930
      2922      2925      2928      2931      2923      2922      2925      2926
      2923      2922      2925      2927      2923      2922      2925      2928
      2924      2922      2925      2926      2924      2922      2925      2927
      2924      2922      2925      2928      2925      2928      2931      2932
      2925      2928      2931      2933      2925      2928      2931      2934
      2926      2925      2928      2929      2926      2925      2928      2930
      2926      2925      2928      2931      2927      2925      2928      2929
      2927      2925      2928      2930      2927      2925      2928      2931
      2928      2931      2934      2935      2928      2931      2934      2936
      2928      2931      2934      2937      2929      2928      2931      2932
      2929      2928      2931      2933      2929      2928      2931      2934
      2930      2928      2931      2932      2930      2928      2931      2933
      2930      2928      2931      2934      2931      2934      2937      2938
      2931      2934      2937      2939      2931      2934      2937      2940
      2932      2931      2934      2935      2932      2931      2934      2936
      2932      2931      2934      2937      2933      2931      2934      2935
      2933      2931      2934      2936      2933      2931      2934      2937
      2934      2937      2940      2941      2934      2937      2940      2942
      2934      2937      2940      2943      2935      2934      2937      2938
      2935      2934      2937      2939      2935      2934      2937      2940
      2936      2934      2937      2938      2936      2934      2937      2939
      2936      2934      2937      2940      2937      2940      2943      2944
      2937      2940      2943      2945      2937      2940      2943      2946
      2938      2937      2940      2941      2938      2937      2940      2942
      2938      2937      2940      2943      2939      2937      2940      2941
      2939      2937      2940      2942      2939      2937      2940      2943
      2941      2940      2943      2944      2941      2940      2943      2945
      2941      2940      2943      2946      2942      2940      2943      2944
      2942      2940      2943      2945      2942      2940      2943      2946
      2947      2948      2963      2964      2947      2948      2963      2965
      2947      2948      2963      2969      2948      2947      2951      2952
      2948      2947      2951      2953      2948      2947      2951      2954
      2948      2947      2955      2956      2948      2947      2955      2957
      2948      2947      2955      2958      2948      2947      2959      2960
      2948      2947      2959      2961      2948      2947      2959      2962
      2948      2963      2969      2966      2949      2948      2947      2951
      2949      2948      2947      2955      2949      2948      2947      2959
      2949      2948      2963      2964      2949      2948      2963      2965
      2949      2948      2963      2969      2950      2948      2947      2951
      2950      2948      2947      2955      2950      2948      2947      2959
      2950      2948      2963      2964      2950      2948      2963      2965
      2950      2948      2963      2969      2951      2947      2948      2963
      2951      2947      2955      2956      2951      2947      2955      2957
      2951      2947      2955      2958      2951      2947      2959      2960
      2951      2947      2959      2961      2951      2947      2959      2962
      2952      2951      2947      2955      2952      2951      2947      2959
      2953      2951      2947      2955      2953      2951      2947      2959
      2954      2951      2947      2955      2954      2951      2947      2959
      2955      2947      2948      2963      2955      2947      2959      2960
      2955      2947      2959      2961      2955      2947      2959      2962
      2956      2955      2947      2959      2957      2955      2947      2959
      2958      2955      2947      2959      2959      2947      2948      2963
      2963      2969      2966      2967      2963      2969      2966      2968
      2963      2969      2966      2970      2964      2963      2969      2966
      2965      2963      2969      2966      2966      2970      2971      2972
      2966      2970      2971      2973      2966      2970      2971      2974
      2967      2966      2970      2971      2968      2966      2970      2971
      2969      2966      2970      2971      2970      2971      2974      2975
      2970      2971      2974      2976      2970      2971      2974      2982
      2971      2974      2976      2977      2971      2974      2982      2983
      2971      2974      2982      2984      2971      2974      2982      2985
      2972      2971      2974      2975      2972      2971      2974      2976
      2972      2971      2974      2982      2973      2971      2974      2975
      2973      2971      2974      2976      2973      2971      2974      2982
      2974      2976      2977      2978      2974      2976      2977      2979
      2974      2982      2985      2986      2975      2974      2976      2977
      2975      2974      2982      2983      2975      2974      2982      2984
      2975      2974      2982      2985      2976      2974      2982      2983
      2976      2974      2982      2984      2976      2974      2982      2985
      2976      2977      2979      2980      2976      2977      2979      2981
      2976      2977      2979      2991      2977      2976      2974      2982
      2977      2979      2991      2992      2977      2979      2991      2993
      2977      2979      2991      2994      2978      2977      2979      2980
      2978      2977      2979      2981      2978      2977      2979      2991
      2979      2991      2994      2995      2979      2991      2994      2996
      2979      2991      2994      2997      2980      2979      2991      2992
      2980      2979      2991      2993      2980      2979      2991      2994
      2981      2979      2991      2992      2981      2979      2991      2993
      2981      2979      2991      2994      2982      2985      2986      2987
      2982      2985      2986      2988      2983      2982      2985      2986
      2984      2982      2985      2986      2985      2986      2988      2989
      2985      2986      2988      2990      2985      2986      2988      3038
      2986      2988      3038      3039      2986      2988      3038      3040
      2986      2988      3038      3041      2987      2986      2988      2989
      2987      2986      2988      2990      2987      2986      2988      3038
      2988      3038      3041      3042      2988      3038      3041      3043
      2988      3038      3041      3044      2989      2988      3038      3039
      2989      2988      3038      3040      2989      2988      3038      3041
      2990      2988      3038      3039      2990      2988      3038      3040
      2990      2988      3038      3041      2991      2994      2997      2998
      2991      2994      2997      2999      2991      2994      2997      3000
      2992      2991      2994      2995      2992      2991      2994      2996
      2992      2991      2994      2997      2993      2991      2994      2995
      2993      2991      2994      2996      2993      2991      2994      2997
      2994      2997      3000      3001      2994      2997      3000      3002
      2994      2997      3000      3003      2995      2994      2997      2998
      2995      2994      2997      2999      2995      2994      2997      3000
      2996      2994      2997      2998      2996      2994      2997      2999
      2996      2994      2997      3000      2997      3000      3003      3004
      2997      3000      3003      3005      2997      3000      3003      3006
      2998      2997      3000      3001      2998      2997      3000      3002
      2998      2997      3000      3003      2999      2997      3000      3001
      2999      2997      3000      3002      2999      2997      3000      3003
      3000      3003      3006      3007      3000      3003      3006      3008
      3000      3003      3006      3009      3001      3000      3003      3004
      3001      3000      3003      3005      3001      3000      3003      3006
      3002      3000      3003      3004      3002      3000      3003      3005
      3002      3000      3003      3006      3003      3006      3009      3010
      3003      3006      3009      3011      3004      3003      3006      3007
      3004      3003      3006      3008      3004      3003      3006      3009
      3005      3003      3006      3007      3005      3003      3006      3008
      3005      3003      3006      3009      3006      3009      3011      3012
      3006      3009      3011      3013      3007      3006      3009      3010
      3007      3006      3009      3011      3008      3006      3009      3010
      3008      3006      3009      3011      3009      3011      3013      3014
      3009      3011      3013      3015      3009      3011      3013      3016
      3010      3009      3011      3012      3010      3009      3011      3013
      3011      3013      3016      3017      3011      3013      3016      3018
      3011      3013      3016      3019      3012      3011      3013      3014
      3012      3011      3013      3015      3012      3011      3013      3016
      3013      3016      3019      3020      3013      3016      3019      3021
      3013      3016      3019      3022      3014      3013      3016      3017
      3014      3013      3016      3018      3014      3013      3016      3019
      3015      3013      3016      3017      3015      3013      3016      3018
      3015      3013      3016      3019      3016      3019      3022      3023
      3016      3019      3022      3024      3016      3019      3022      3025
      3017      3016      3019      3020      3017      3016      3019      3021
      3017      3016      3019      3022      3018      3016      3019      3020
      3018      3016      3019      3021      3018      3016      3019      3022
      3019      3022      3025      3026      3019      3022      3025      3027
      3019      3022      3025      3028      3020      3019      3022      3023
      3020      3019      3022      3024      3020      3019      3022      3025
      3021      3019      3022      3023      3021      3019      3022      3024
      3021      3019      3022      3025      3022      3025      3028      3029
      3022      3025      3028      3030      3022      3025      3028      3031
      3023      3022      3025      3026      3023      3022      3025      3027
      3023      3022      3025      3028      3024      3022      3025      3026
      3024      3022      3025      3027      3024      3022      3025      3028
      3025      3028      3031      3032      3025      3028      3031      3033
      3025      3028      3031      3034      3026      3025      3028      3029
      3026      3025      3028      3030      3026      3025      3028      3031
      3027      3025      3028      3029      3027      3025      3028      3030
      3027      3025      3028      3031      3028      3031      3034      3035
      3028      3031      3034      3036      3028      3031      3034      3037
      3029      3028      3031      3032      3029      3028      3031      3033
      3029      3028      3031      3034      3030      3028      3031      3032
      3030      3028      3031      3033      3030      3028      3031      3034
      3032      3031      3034      3035      3032      3031      3034      3036
      3032      3031      3034      3037      3033      3031      3034      3035
      3033      3031      3034      3036      3033      3031      3034      3037
      3038      3041      3044      3045      3038      3041      3044      3046
      3038      3041      3044      3047      3039      3038      3041      3042
      3039      3038      3041      3043      3039      3038      3041      3044
      3040      3038      3041      3042      3040      3038      3041      3043
      3040      3038      3041      3044      3041      3044      3047      3048
      3041      3044      3047      3049      3041      3044      3047      3050
      3042      3041      3044      3045      3042      3041      3044      3046
      3042      3041      3044      3047      3043      3041      3044      3045
      3043      3041      3044      3046      3043      3041      3044      3047
      3044      3047      3050      3051      3044      3047      3050      3052
      3044      3047      3050      3053      3045      3044      3047      3048
      3045      3044      3047      3049      3045      3044      3047      3050
      3046      3044      3047      3048      3046      3044      3047      3049
      3046      3044      3047      3050      3047      3050      3053      3054
      3047      3050      3053      3055      3047      3050      3053      3056
      3048      3047      3050      3051      3048      3047      3050      3052
      3048      3047      3050      3053      3049      3047      3050      3051
      3049      3047      3050      3052      3049      3047      3050      3053
      3050      3053      3056      3057      3050      3053      3056      3058
      3050      3053      3056      3059      3051      3050      3053      3054
      3051      3050      3053      3055      3051      3050      3053      3056
      3052      3050      3053      3054      3052      3050      3053      3055
      3052      3050      3053      3056      3053      3056      3059      3060
      3053      3056      3059      3061      3053      3056      3059      3062
      3054      3053      3056      3057      3054      3053      3056      3058
      3054      3053      3056      3059      3055      3053      3056      3057
      3055      3053      3056      3058      3055      3053      3056      3059
      3056      3059      3062      3063      3056      3059      3062      3064
      3056      3059      3062      3065      3057      3056      3059      3060
      3057      3056      3059      3061      3057      3056      3059      3062
      3058      3056      3059      3060      3058      3056      3059      3061
      3058      3056      3059      3062      3059      3062      3065      3066
      3059      3062      3065      3067      3059      3062      3065      3068
      3060      3059      3062      3063      3060      3059      3062      3064
      3060      3059      3062      3065      3061      3059      3062      3063
      3061      3059      3062      3064      3061      3059      3062      3065
      3062      3065      3068      3069      3062      3065      3068      3070
      3062      3065      3068      3071      3063      3062      3065      3066
      3063      3062      3065      3067      3063      3062      3065      3068
      3064      3062      3065      3066      3064      3062      3065      3067
      3064      3062      3065      3068      3065      3068      3071      3072
      3065      3068      3071      3073      3065      3068      3071      3074
      3066      3065      3068      3069      3066      3065      3068      3070
      3066      3065      3068      3071      3067      3065      3068      3069
      3067      3065      3068      3070      3067      3065      3068      3071
      3068      3071      3074      3075      3068      3071      3074      3076
      3068      3071      3074      3077      3069      3068      3071      3072
      3069      3068      3071      3073      3069      3068      3071      3074
      3070      3068      3071      3072      3070      3068      3071      3073
      3070      3068      3071      3074      3071      3074      3077      3078
      3071      3074      3077      3079      3071      3074      3077      3080
      3072      3071      3074      3075      3072      3071      3074      3076
      3072      3071      3074      3077      3073      3071      3074      3075
      3073      3071      3074      3076      3073      3071      3074      3077
      3075      3074      3077      3078      3075      3074      3077      3079
      3075      3074      3077      3080      3076      3074      3077      3078
      3076      3074      3077      3079      3076      3074      3077      3080
      3081      3082      3097      3098      3081      3082      3097      3099
      3081      3082      3097      3103      3082      3081      3085      3086
      3082      3081      3085      3087      3082      3081      3085      3088
      3082      3081      3089      3090      3082      3081      3089      3091
      3082      3081      3089      3092      3082      3081      3093      3094
      3082      3081      3093      3095      3082      3081      3093      3096
      3082      3097      3103      3100      3083      3082      3081      3085
      3083      3082      3081      3089      3083      3082      3081      3093
      3083      3082      3097      3098      3083      3082      3097      3099
      3083      3082      3097      3103      3084      3082      3081      3085
      3084      3082      3081      3089      3084      3082      3081      3093
      3084      3082      3097      3098      3084      3082      3097      3099
      3084      3082      3097      3103      3085      3081      3082      3097
      3085      3081      3089      3090      3085      3081      3089      3091
      3085      3081      3089      3092      3085      3081      3093      3094
      3085      3081      3093      3095      3085      3081      3093      3096
      3086      3085      3081      3089      3086      3085      3081      3093
      3087      3085      3081      3089      3087      3085      3081      3093
      3088      3085      3081      3089      3088      3085      3081      3093
      3089      3081      3082      3097      3089      3081      3093      3094
      3089      3081      3093      3095      3089      3081      3093      3096
      3090      3089      3081      3093      3091      3089      3081      3093
      3092      3089      3081      3093      3093      3081      3082      3097
      3097      3103      3100      3101      3097      3103      3100      3102
      3097      3103      3100      3104      3098      3097      3103      3100
      3099      3097      3103      3100      3100      3104      3105      3106
      3100      3104      3105      3107      3100      3104      3105      3108
      3101      3100      3104      3105      3102      3100      3104      3105
      3103      3100      3104      3105      3104      3105      3108      3109
      3104      3105      3108      3110      3104      3105      3108      3116
      3105      3108      3110      3111      3105      3108      3116      3117
      3105      3108      3116      3118      3105      3108      3116      3119
      3106      3105      3108      3109      3106      3105      3108      3110
      3106      3105      3108      3116      3107      3105      3108      3109
      3107      3105      3108      3110      3107      3105      3108      3116
      3108      3110      3111      3112      3108      3110      3111      3113
      3108      3116      3119      3120      3109      3108      3110      3111
      3109      3108      3116      3117      3109      3108      3116      3118
      3109      3108      3116      3119      3110      3108      3116      3117
      3110      3108      3116      3118      3110      3108      3116      3119
      3110      3111      3113      3114      3110      3111      3113      3115
      3110      3111      3113      3125      3111      3110      3108      3116
      3111      3113      3125      3126      3111      3113      3125      3127
      3111      3113      3125      3128      3112      3111      3113      3114
      3112      3111      3113      3115      3112      3111      3113      3125
      3113      3125      3128      3129      3113      3125      3128      3130
      3113      3125      3128      3131      3114      3113      3125      3126
      3114      3113      3125      3127      3114      3113      3125      3128
      3115      3113      3125      3126      3115      3113      3125      3127
      3115      3113      3125      3128      3116      3119      3120      3121
      3116      3119      3120      3122      3117      3116      3119      3120
      3118      3116      3119      3120      3119      3120      3122      3123
      3119      3120      3122      3124      3119      3120      3122      3172
      3120      3122      3172      3173      3120      3122      3172      3174
      3120      3122      3172      3175      3121      3120      3122      3123
      3121      3120      3122      3124      3121      3120      3122      3172
      3122      3172      3175      3176      3122      3172      3175      3177
      3122      3172      3175      3178      3123      3122      3172      3173
      3123      3122      3172      3174      3123      3122      3172      3175
      3124      3122      3172      3173      3124      3122      3172      3174
      3124      3122      3172      3175      3125      3128      3131      3132
      3125      3128      3131      3133      3125      3128      3131      3134
      3126      3125      3128      3129      3126      3125      3128      3130
      3126      3125      3128      3131      3127      3125      3128      3129
      3127      3125      3128      3130      3127      3125      3128      3131
      3128      3131      3134      3135      3128      3131      3134      3136
      3128      3131      3134      3137      3129      3128      3131      3132
      3129      3128      3131      3133      3129      3128      3131      3134
      3130      3128      3131      3132      3130      3128      3131      3133
      3130      3128      3131      3134      3131      3134      3137      3138
      3131      3134      3137      3139      3131      3134      3137      3140
      3132      3131      3134      3135      3132      3131      3134      3136
      3132      3131      3134      3137      3133      3131      3134      3135
      3133      3131      3134      3136      3133      3131      3134      3137
      3134      3137      3140      3141      3134      3137      3140      3142
      3134      3137      3140      3143      3135      3134      3137      3138
      3135      3134      3137      3139      3135      3134      3137      3140
      3136      3134      3137      3138      3136      3134      3137      3139
      3136      3134      3137      3140      3137      3140      3143      3144
      3137      3140      3143      3145      3138      3137      3140      3141
      3138      3137      3140      3142      3138      3137      3140      3143
      3139      3137      3140      3141      3139      3137      3140      3142
      3139      3137      3140      3143      3140      3143      3145      3146
      3140      3143      3145      3147      3141      3140      3143      3144
      3141      3140      3143      3145      3142      3140      3143      3144
      3142      3140      3143      3145      3143      3145      3147      3148
      3143      3145      3147      3149      3143      3145      3147      3150
      3144      3143      3145      3146      3144      3143      3145      3147
      3145      3147      3150      3151      3145      3147      3150      3152
      3145      3147      3150      3153      3146      3145      3147      3148
      3146      3145      3147      3149      3146      3145      3147      3150
      3147      3150      3153      3154      3147      3150      3153      3155
      3147      3150      3153      3156      3148      3147      3150      3151
      3148      3147      3150      3152      3148      3147      3150      3153
      3149      3147      3150      3151      3149      3147      3150      3152
      3149      3147      3150      3153      3150      3153      3156      3157
      3150      3153      3156      3158      3150      3153      3156      3159
      3151      3150      3153      3154      3151      3150      3153      3155
      3151      3150      3153      3156      3152      3150      3153      3154
      3152      3150      3153      3155      3152      3150      3153      3156
      3153      3156      3159      3160      3153      3156      3159      3161
      3153      3156      3159      3162      3154      3153      3156      3157
      3154      3153      3156      3158      3154      3153      3156      3159
      3155      3153      3156      3157      3155      3153      3156      3158
      3155      3153      3156      3159      3156      3159      3162      3163
      3156      3159      3162      3164      3156      3159      3162      3165
      3157      3156      3159      3160      3157      3156      3159      3161
      3157      3156      3159      3162      3158      3156      3159      3160
      3158      3156      3159      3161      3158      3156      3159      3162
      3159      3162      3165      3166      3159      3162      3165      3167
      3159      3162      3165      3168      3160      3159      3162      3163
      3160      3159      3162      3164      3160      3159      3162      3165
      3161      3159      3162      3163      3161      3159      3162      3164
      3161      3159      3162      3165      3162      3165      3168      3169
      3162      3165      3168      3170      3162      3165      3168      3171
      3163      3162      3165      3166      3163      3162      3165      3167
      3163      3162      3165      3168      3164      3162      3165      3166
      3164      3162      3165      3167      3164      3162      3165      3168
      3166      3165      3168      3169      3166      3165      3168      3170
      3166      3165      3168      3171      3167      3165      3168      3169
      3167      3165      3168      3170      3167      3165      3168      3171
      3172      3175      3178      3179      3172      3175      3178      3180
      3172      3175      3178      3181      3173      3172      3175      3176
      3173      3172      3175      3177      3173      3172      3175      3178
      3174      3172      3175      3176      3174      3172      3175      3177
      3174      3172      3175      3178      3175      3178      3181      3182
      3175      3178      3181      3183      3175      3178      3181      3184
      3176      3175      3178      3179      3176      3175      3178      3180
      3176      3175      3178      3181      3177      3175      3178      3179
      3177      3175      3178      3180      3177      3175      3178      3181
      3178      3181      3184      3185      3178      3181      3184      3186
      3178      3181      3184      3187      3179      3178      3181      3182
      3179      3178      3181      3183      3179      3178      3181      3184
      3180      3178      3181      3182      3180      3178      3181      3183
      3180      3178      3181      3184      3181      3184      3187      3188
      3181      3184      3187      3189      3181      3184      3187      3190
      3182      3181      3184      3185      3182      3181      3184      3186
      3182      3181      3184      3187      3183      3181      3184      3185
      3183      3181      3184      3186      3183      3181      3184      3187
      3184      3187      3190      3191      3184      3187      3190      3192
      3184      3187      3190      3193      3185      3184      3187      3188
      3185      3184      3187      3189      3185      3184      3187      3190
      3186      3184      3187      3188      3186      3184      3187      3189
      3186      3184      3187      3190      3187      3190      3193      3194
      3187      3190      3193      3195      3187      3190      3193      3196
      3188      3187      3190      3191      3188      3187      3190      3192
      3188      3187      3190      3193      3189      3187      3190      3191
      3189      3187      3190      3192      3189      3187      3190      3193
      3190      3193      3196      3197      3190      3193      3196      3198
      3190      3193      3196      3199      3191      3190      3193      3194
      3191      3190      3193      3195      3191      3190      3193      3196
      3192      3190      3193      3194      3192      3190      3193      3195
      3192      3190      3193      3196      3193      3196      3199      3200
      3193      3196      3199      3201      3193      3196      3199      3202
      3194      3193      3196      3197      3194      3193      3196      3198
      3194      3193      3196      3199      3195      3193      3196      3197
      3195      3193      3196      3198      3195      3193      3196      3199
      3196      3199      3202      3203      3196      3199      3202      3204
      3196      3199      3202      3205      3197      3196      3199      3200
      3197      3196      3199      3201      3197      3196      3199      3202
      3198      3196      3199      3200      3198      3196      3199      3201
      3198      3196      3199      3202      3199      3202      3205      3206
      3199      3202      3205      3207      3199      3202      3205      3208
      3200      3199      3202      3203      3200      3199      3202      3204
      3200      3199      3202      3205      3201      3199      3202      3203
      3201      3199      3202      3204      3201      3199      3202      3205
      3202      3205      3208      3209      3202      3205      3208      3210
      3202      3205      3208      3211      3203      3202      3205      3206
      3203      3202      3205      3207      3203      3202      3205      3208
      3204      3202      3205      3206      3204      3202      3205      3207
      3204      3202      3205      3208      3205      3208      3211      3212
      3205      3208      3211      3213      3205      3208      3211      3214
      3206      3205      3208      3209      3206      3205      3208      3210
      3206      3205      3208      3211      3207      3205      3208      3209
      3207      3205      3208      3210      3207      3205      3208      3211
      3209      3208      3211      3212      3209      3208      3211      3213
      3209      3208      3211      3214      3210      3208      3211      3212
      3210      3208      3211      3213      3210      3208      3211      3214
      3215      3216      3231      3232      3215      3216      3231      3233
      3215      3216      3231      3237      3216      3215      3219      3220
      3216      3215      3219      3221      3216      3215      3219      3222
      3216      3215      3223      3224      3216      3215      3223      3225
      3216      3215      3223      3226      3216      3215      3227      3228
      3216      3215      3227      3229      3216      3215      3227      3230
      3216      3231      3237      3234      3217      3216      3215      3219
      3217      3216      3215      3223      3217      3216      3215      3227
      3217      3216      3231      3232      3217      3216      3231      3233
      3217      3216      3231      3237      3218      3216      3215      3219
      3218      3216      3215      3223      3218      3216      3215      3227
      3218      3216      3231      3232      3218      3216      3231      3233
      3218      3216      3231      3237      3219      3215      3216      3231
      3219      3215      3223      3224      3219      3215      3223      3225
      3219      3215      3223      3226      3219      3215      3227      3228
      3219      3215      3227      3229      3219      3215      3227      3230
      3220      3219      3215      3223      3220      3219      3215      3227
      3221      3219      3215      3223      3221      3219      3215      3227
      3222      3219      3215      3223      3222      3219      3215      3227
      3223      3215      3216      3231      3223      3215      3227      3228
      3223      3215      3227      3229      3223      3215      3227      3230
      3224      3223      3215      3227      3225      3223      3215      3227
      3226      3223      3215      3227      3227      3215      3216      3231
      3231      3237      3234      3235      3231      3237      3234      3236
      3231      3237      3234      3238      3232      3231      3237      3234
      3233      3231      3237      3234      3234      3238      3239      3240
      3234      3238      3239      3241      3234      3238      3239      3242
      3235      3234      3238      3239      3236      3234      3238      3239
      3237      3234      3238      3239      3238      3239      3242      3243
      3238      3239      3242      3244      3238      3239      3242      3250
      3239      3242      3244      3245      3239      3242      3250      3251
      3239      3242      3250      3252      3239      3242      3250      3253
      3240      3239      3242      3243      3240      3239      3242      3244
      3240      3239      3242      3250      3241      3239      3242      3243
      3241      3239      3242      3244      3241      3239      3242      3250
      3242      3244      3245      3246      3242      3244      3245      3247
      3242      3250      3253      3254      3243      3242      3244      3245
      3243      3242      3250      3251      3243      3242      3250      3252
      3243      3242      3250      3253      3244      3242      3250      3251
      3244      3242      3250      3252      3244      3242      3250      3253
      3244      3245      3247      3248      3244      3245      3247      3249
      3244      3245      3247      3259      3245      3244      3242      3250
      3245      3247      3259      3260      3245      3247      3259      3261
      3245      3247      3259      3262      3246      3245      3247      3248
      3246      3245      3247      3249      3246      3245      3247      3259
      3247      3259      3262      3263      3247      3259      3262      3264
      3247      3259      3262      3265      3248      3247      3259      3260
      3248      3247      3259      3261      3248      3247      3259      3262
      3249      3247      3259      3260      3249      3247      3259      3261
      3249      3247      3259      3262      3250      3253      3254      3255
      3250      3253      3254      3256      3251      3250      3253      3254
      3252      3250      3253      3254      3253      3254      3256      3257
      3253      3254      3256      3258      3253      3254      3256      3306
      3254      3256      3306      3307      3254      3256      3306      3308
      3254      3256      3306      3309      3255      3254      3256      3257
      3255      3254      3256      3258      3255      3254      3256      3306
      3256      3306      3309      3310      3256      3306      3309      3311
      3256      3306      3309      3312      3257      3256      3306      3307
      3257      3256      3306      3308      3257      3256      3306      3309
      3258      3256      3306      3307      3258      3256      3306      3308
      3258      3256      3306      3309      3259      3262      3265      3266
      3259      3262      3265      3267      3259      3262      3265      3268
      3260      3259      3262      3263      3260      3259      3262      3264
      3260      3259      3262      3265      3261      3259      3262      3263
      3261      3259      3262      3264      3261      3259      3262      3265
      3262      3265      3268      3269      3262      3265      3268      3270
      3262      3265      3268      3271      3263      3262      3265      3266
      3263      3262      3265      3267      3263      3262      3265      3268
      3264      3262      3265      3266      3264      3262      3265      3267
      3264      3262      3265      3268      3265      3268      3271      3272
      3265      3268      3271      3273      3265      3268      3271      3274
      3266      3265      3268      3269      3266      3265      3268      3270
      3266      3265      3268      3271      3267      3265      3268      3269
      3267      3265      3268      3270      3267      3265      3268      3271
      3268      3271      3274      3275      3268      3271      3274      3276
      3268      3271      3274      3277      3269      3268      3271      3272
      3269      3268      3271      3273      3269      3268      3271      3274
      3270      3268      3271      3272      3270      3268      3271      3273
      3270      3268      3271      3274      3271      3274      3277      3278
      3271      3274      3277      3279      3272      3271      3274      3275
      3272      3271      3274      3276      3272      3271      3274      3277
      3273      3271      3274      3275      3273      3271      3274      3276
      3273      3271      3274      3277      3274      3277      3279      3280
      3274      3277      3279      3281      3275      3274      3277      3278
      3275      3274      3277      3279      3276      3274      3277      3278
      3276      3274      3277      3279      3277      3279      3281      3282
      3277      3279      3281      3283      3277      3279      3281      3284
      3278      3277      3279      3280      3278      3277      3279      3281
      3279      3281      3284      3285      3279      3281      3284      3286
      3279      3281      3284      3287      3280      3279      3281      3282
      3280      3279      3281      3283      3280      3279      3281      3284
      3281      3284      3287      3288      3281      3284      3287      3289
      3281      3284      3287      3290      3282      3281      3284      3285
      3282      3281      3284      3286      3282      3281      3284      3287
      3283      3281      3284      3285      3283      3281      3284      3286
      3283      3281      3284      3287      3284      3287      3290      3291
      3284      3287      3290      3292      3284      3287      3290      3293
      3285      3284      3287      3288      3285      3284      3287      3289
      3285      3284      3287      3290      3286      3284      3287      3288
      3286      3284      3287      3289      3286      3284      3287      3290
      3287      3290      3293      3294      3287      3290      3293      3295
      3287      3290      3293      3296      3288      3287      3290      3291
      3288      3287      3290      3292      3288      3287      3290      3293
      3289      3287      3290      3291      3289      3287      3290      3292
      3289      3287      3290      3293      3290      3293      3296      3297
      3290      3293      3296      3298      3290      3293      3296      3299
      3291      3290      3293      3294      3291      3290      3293      3295
      3291      3290      3293      3296      3292      3290      3293      3294
      3292      3290      3293      3295      3292      3290      3293      3296
      3293      3296      3299      3300      3293      3296      3299      3301
      3293      3296      3299      3302      3294      3293      3296      3297
      3294      3293      3296      3298      3294      3293      3296      3299
      3295      3293      3296      3297      3295      3293      3296      3298
      3295      3293      3296      3299      3296      3299      3302      3303
      3296      3299      3302      3304      3296      3299      3302      3305
      3297      3296      3299      3300      3297      3296      3299      3301
      3297      3296      3299      3302      3298      3296      3299      3300
      3298      3296      3299      3301      3298      3296      3299      3302
      3300      3299      3302      3303      3300      3299      3302      3304
      3300      3299      3302      3305      3301      3299      3302      3303
      3301      3299      3302      3304      3301      3299      3302      3305
      3306      3309      3312      3313      3306      3309      3312      3314
      3306      3309      3312      3315      3307      3306      3309      3310
      3307      3306      3309      3311      3307      3306      3309      3312
      3308      3306      3309      3310      3308      3306      3309      3311
      3308      3306      3309      3312      3309      3312      3315      3316
      3309      3312      3315      3317      3309      3312      3315      3318
      3310      3309      3312      3313      3310      3309      3312      3314
      3310      3309      3312      3315      3311      3309      3312      3313
      3311      3309      3312      3314      3311      3309      3312      3315
      3312      3315      3318      3319      3312      3315      3318      3320
      3312      3315      3318      3321      3313      3312      3315      3316
      3313      3312      3315      3317      3313      3312      3315      3318
      3314      3312      3315      3316      3314      3312      3315      3317
      3314      3312      3315      3318      3315      3318      3321      3322
      3315      3318      3321      3323      3315      3318      3321      3324
      3316      3315      3318      3319      3316      3315      3318      3320
      3316      3315      3318      3321      3317      3315      3318      3319
      3317      3315      3318      3320      3317      3315      3318      3321
      3318      3321      3324      3325      3318      3321      3324      3326
      3318      3321      3324      3327      3319      3318      3321      3322
      3319      3318      3321      3323      3319      3318      3321      3324
      3320      3318      3321      3322      3320      3318      3321      3323
      3320      3318      3321      3324      3321      3324      3327      3328
      3321      3324      3327      3329      3321      3324      3327      3330
      3322      3321      3324      3325      3322      3321      3324      3326
      3322      3321      3324      3327      3323      3321      3324      3325
      3323      3321      3324      3326      3323      3321      3324      3327
      3324      3327      3330      3331      3324      3327      3330      3332
      3324      3327      3330      3333      3325      3324      3327      3328
      3325      3324      3327      3329      3325      3324      3327      3330
      3326      3324      3327      3328      3326      3324      3327      3329
      3326      3324      3327      3330      3327      3330      3333      3334
      3327      3330      3333      3335      3327      3330      3333      3336
      3328      3327      3330      3331      3328      3327      3330      3332
      3328      3327      3330      3333      3329      3327      3330      3331
      3329      3327      3330      3332      3329      3327      3330      3333
      3330      3333      3336      3337      3330      3333      3336      3338
      3330      3333      3336      3339      3331      3330      3333      3334
      3331      3330      3333      3335      3331      3330      3333      3336
      3332      3330      3333      3334      3332      3330      3333      3335
      3332      3330      3333      3336      3333      3336      3339      3340
      3333      3336      3339      3341      3333      3336      3339      3342
      3334      3333      3336      3337      3334      3333      3336      3338
      3334      3333      3336      3339      3335      3333      3336      3337
      3335      3333      3336      3338      3335      3333      3336      3339
      3336      3339      3342      3343      3336      3339      3342      3344
      3336      3339      3342      3345      3337      3336      3339      3340
      3337      3336      3339      3341      3337      3336      3339      3342
      3338      3336      3339      3340      3338      3336      3339      3341
      3338      3336      3339      3342      3339      3342      3345      3346
      3339      3342      3345      3347      3339      3342      3345      3348
      3340      3339      3342      3343      3340      3339      3342      3344
      3340      3339      3342      3345      3341      3339      3342      3343
      3341      3339      3342      3344      3341      3339      3342      3345
      3343      3342      3345      3346      3343      3342      3345      3347
      3343      3342      3345      3348      3344      3342      3345      3346
      3344      3342      3345      3347      3344      3342      3345      3348
      3349      3350      3365      3366      3349      3350      3365      3367
      3349      3350      3365      3371      3350      3349      3353      3354
      3350      3349      3353      3355      3350      3349      3353      3356
      3350      3349      3357      3358      3350      3349      3357      3359
      3350      3349      3357      3360      3350      3349      3361      3362
      3350      3349      3361      3363      3350      3349      3361      3364
      3350      3365      3371      3368      3351      3350      3349      3353
      3351      3350      3349      3357      3351      3350      3349      3361
      3351      3350      3365      3366      3351      3350      3365      3367
      3351      3350      3365      3371      3352      3350      3349      3353
      3352      3350      3349      3357      3352      3350      3349      3361
      3352      3350      3365      3366      3352      3350      3365      3367
      3352      3350      3365      3371      3353      3349      3350      3365
      3353      3349      3357      3358      3353      3349      3357      3359
      3353      3349      3357      3360      3353      3349      3361      3362
      3353      3349      3361      3363      3353      3349      3361      3364
      3354      3353      3349      3357      3354      3353      3349      3361
      3355      3353      3349      3357      3355      3353      3349      3361
      3356      3353      3349      3357      3356      3353      3349      3361
      3357      3349      3350      3365      3357      3349      3361      3362
      3357      3349      3361      3363      3357      3349      3361      3364
      3358      3357      3349      3361      3359      3357      3349      3361
      3360      3357      3349      3361      3361      3349      3350      3365
      3365      3371      3368      3369      3365      3371      3368      3370
      3365      3371      3368      3372      3366      3365      3371      3368
      3367      3365      3371      3368      3368      3372      3373      3374
      3368      3372      3373      3375      3368      3372      3373      3376
      3369      3368      3372      3373      3370      3368      3372      3373
      3371      3368      3372      3373      3372      3373      3376      3377
      3372      3373      3376      3378      3372      3373      3376      3384
      3373      3376      3378      3379      3373      3376      3384      3385
      3373      3376      3384      3386      3373      3376      3384      3387
      3374      3373      3376      3377      3374      3373      3376      3378
      3374      3373      3376      3384      3375      3373      3376      3377
      3375      3373      3376      3378      3375      3373      3376      3384
      3376      3378      3379      3380      3376      3378      3379      3381
      3376      3384      3387      3388      3377      3376      3378      3379
      3377      3376      3384      3385      3377      3376      3384      3386
      3377      3376      3384      3387      3378      3376      3384      3385
      3378      3376      3384      3386      3378      3376      3384      3387
      3378      3379      3381      3382      3378      3379      3381      3383
      3378      3379      3381      3393      3379      3378      3376      3384
      3379      3381      3393      3394      3379      3381      3393      3395
      3379      3381      3393      3396      3380      3379      3381      3382
      3380      3379      3381      3383      3380      3379      3381      3393
      3381      3393      3396      3397      3381      3393      3396      3398
      3381      3393      3396      3399      3382      3381      3393      3394
      3382      3381      3393      3395      3382      3381      3393      3396
      3383      3381      3393      3394      3383      3381      3393      3395
      3383      3381      3393      3396      3384      3387      3388      3389
      3384      3387      3388      3390      3385      3384      3387      3388
      3386      3384      3387      3388      3387      3388      3390      3391
      3387      3388      3390      3392      3387      3388      3390      3440
      3388      3390      3440      3441      3388      3390      3440      3442
      3388      3390      3440      3443      3389      3388      3390      3391
      3389      3388      3390      3392      3389      3388      3390      3440
      3390      3440      3443      3444      3390      3440      3443      3445
      3390      3440      3443      3446      3391      3390      3440      3441
      3391      3390      3440      3442      3391      3390      3440      3443
      3392      3390      3440      3441      3392      3390      3440      3442
      3392      3390      3440      3443      3393      3396      3399      3400
      3393      3396      3399      3401      3393      3396      3399      3402
      3394      3393      3396      3397      3394      3393      3396      3398
      3394      3393      3396      3399      3395      3393      3396      3397
      3395      3393      3396      3398      3395      3393      3396      3399
      3396      3399      3402      3403      3396      3399      3402      3404
      3396      3399      3402      3405      3397      3396      3399      3400
      3397      3396      3399      3401      3397      3396      3399      3402
      3398      3396      3399      3400      3398      3396      3399      3401
      3398      3396      3399      3402      3399      3402      3405      3406
      3399      3402      3405      3407      3399      3402      3405      3408
      3400      3399      3402      3403      3400      3399      3402      3404
      3400      3399      3402      3405      3401      3399      3402      3403
      3401      3399      3402      3404      3401      3399      3402      3405
      3402      3405      3408      3409      3402      3405      3408      3410
      3402      3405      3408      3411      3403      3402      3405      3406
      3403      3402      3405      3407      3403      3402      3405      3408
      3404      3402      3405      3406      3404      3402      3405      3407
      3404      3402      3405      3408      3405      3408      3411      3412
      3405      3408      3411      3413      3406      3405      3408      3409
      3406      3405      3408      3410      3406      3405      3408      3411
      3407      3405      3408      3409      3407      3405      3408      3410
      3407      3405      3408      3411      3408      3411      3413      3414
      3408      3411      3413      3415      3409      3408      3411      3412
      3409      3408      3411      3413      3410      3408      3411      3412
      3410      3408      3411      3413      3411      3413      3415      3416
      3411      3413      3415      3417      3411      3413      3415      3418
      3412      3411      3413      3414      3412      3411      3413      3415
      3413      3415      3418      3419      3413      3415      3418      3420
      3413      3415      3418      3421      3414      3413      3415      3416
      3414      3413      3415      3417      3414      3413      3415      3418
      3415      3418      3421      3422      3415      3418      3421      3423
      3415      3418      3421      3424      3416      3415      3418      3419
      3416      3415      3418      3420      3416      3415      3418      3421
      3417      3415      3418      3419      3417      3415      3418      3420
      3417      3415      3418      3421      3418      3421      3424      3425
      3418      3421      3424      3426      3418      3421      3424      3427
      3419      3418      3421      3422      3419      3418      3421      3423
      3419      3418      3421      3424      3420      3418      3421      3422
      3420      3418      3421      3423      3420      3418      3421      3424
      3421      3424      3427      3428      3421      3424      3427      3429
      3421      3424      3427      3430      3422      3421      3424      3425
      3422      3421      3424      3426      3422      3421      3424      3427
      3423      3421      3424      3425      3423      3421      3424      3426
      3423      3421      3424      3427      3424      3427      3430      3431
      3424      3427      3430      3432      3424      3427      3430      3433
      3425      3424      3427      3428      3425      3424      3427      3429
      3425      3424      3427      3430      3426      3424      3427      3428
      3426      3424      3427      3429      3426      3424      3427      3430
      3427      3430      3433      3434      3427      3430      3433      3435
      3427      3430      3433      3436      3428      3427      3430      3431
      3428      3427      3430      3432      3428      3427      3430      3433
      3429      3427      3430      3431      3429      3427      3430      3432
      3429      3427      3430      3433      3430      3433      3436      3437
      3430      3433      3436      3438      3430      3433      3436      3439
      3431      3430      3433      3434      3431      3430      3433      3435
      3431      3430      3433      3436      3432      3430      3433      3434
      3432      3430      3433      3435      3432      3430      3433      3436
      3434      3433      3436      3437      3434      3433      3436      3438
      3434      3433      3436      3439      3435      3433      3436      3437
      3435      3433      3436      3438      3435      3433      3436      3439
      3440      3443      3446      3447      3440      3443      3446      3448
      3440      3443      3446      3449      3441      3440      3443      3444
      3441      3440      3443      3445      3441      3440      3443      3446
      3442      3440      3443      3444      3442      3440      3443      3445
      3442      3440      3443      3446      3443      3446      3449      3450
      3443      3446      3449      3451      3443      3446      3449      3452
      3444      3443      3446      3447      3444      3443      3446      3448
      3444      3443      3446      3449      3445      3443      3446      3447
      3445      3443      3446      3448      3445      3443      3446      3449
      3446      3449      3452      3453      3446      3449      3452      3454
      3446      3449      3452      3455      3447      3446      3449      3450
      3447      3446      3449      3451      3447      3446      3449      3452
      3448      3446      3449      3450      3448      3446      3449      3451
      3448      3446      3449      3452      3449      3452      3455      3456
      3449      3452      3455      3457      3449      3452      3455      3458
      3450      3449      3452      3453      3450      3449      3452      3454
      3450      3449      3452      3455      3451      3449      3452      3453
      3451      3449      3452      3454      3451      3449      3452      3455
      3452      3455      3458      3459      3452      3455      3458      3460
      3452      3455      3458      3461      3453      3452      3455      3456
      3453      3452      3455      3457      3453      3452      3455      3458
      3454      3452      3455      3456      3454      3452      3455      3457
      3454      3452      3455      3458      3455      3458      3461      3462
      3455      3458      3461      3463      3455      3458      3461      3464
      3456      3455      3458      3459      3456      3455      3458      3460
      3456      3455      3458      3461      3457      3455      3458      3459
      3457      3455      3458      3460      3457      3455      3458      3461
      3458      3461      3464      3465      3458      3461      3464      3466
      3458      3461      3464      3467      3459      3458      3461      3462
      3459      3458      3461      3463      3459      3458      3461      3464
      3460      3458      3461      3462      3460      3458      3461      3463
      3460      3458      3461      3464      3461      3464      3467      3468
      3461      3464      3467      3469      3461      3464      3467      3470
      3462      3461      3464      3465      3462      3461      3464      3466
      3462      3461      3464      3467      3463      3461      3464      3465
      3463      3461      3464      3466      3463      3461      3464      3467
      3464      3467      3470      3471      3464      3467      3470      3472
      3464      3467      3470      3473      3465      3464      3467      3468
      3465      3464      3467      3469      3465      3464      3467      3470
      3466      3464      3467      3468      3466      3464      3467      3469
      3466      3464      3467      3470      3467      3470      3473      3474
      3467      3470      3473      3475      3467      3470      3473      3476
      3468      3467      3470      3471      3468      3467      3470      3472
      3468      3467      3470      3473      3469      3467      3470      3471
      3469      3467      3470      3472      3469      3467      3470      3473
      3470      3473      3476      3477      3470      3473      3476      3478
      3470      3473      3476      3479      3471      3470      3473      3474
      3471      3470      3473      3475      3471      3470      3473      3476
      3472      3470      3473      3474      3472      3470      3473      3475
      3472      3470      3473      3476      3473      3476      3479      3480
      3473      3476      3479      3481      3473      3476      3479      3482
      3474      3473      3476      3477      3474      3473      3476      3478
      3474      3473      3476      3479      3475      3473      3476      3477
      3475      3473      3476      3478      3475      3473      3476      3479
      3477      3476      3479      3480      3477      3476      3479      3481
      3477      3476      3479      3482      3478      3476      3479      3480
      3478      3476      3479      3481      3478      3476      3479      3482
      3483      3487      3490      3491      3483      3487      3490      3492
      3483      3487      3490      3497      3484      3483      3487      3488
      3484      3483      3487      3489      3484      3483      3487      3490
      3485      3483      3487      3488      3485      3483      3487      3489
      3485      3483      3487      3490      3486      3483      3487      3488
      3486      3483      3487      3489      3486      3483      3487      3490
      3487      3490      3497      3493      3488      3487      3490      3491
      3488      3487      3490      3492      3488      3487      3490      3497
      3489      3487      3490      3491      3489      3487      3490      3492
      3489      3487      3490      3497      3490      3497      3493      3494
      3490      3497      3493      3495      3490      3497      3493      3496
      3491      3490      3497      3493      3492      3490      3497      3493
      3493      3496      3498      3499      3493      3496      3498      3500
      3493      3496      3498      3501      3494      3493      3496      3498
      3495      3493      3496      3498      3496      3498      3501      3502
      3496      3498      3501      3503      3496      3498      3501      3509
      3497      3493      3496      3498      3498      3501      3503      3504
      3498      3501      3509      3510      3498      3501      3509      3511
      3498      3501      3509      3512      3499      3498      3501      3502
      3499      3498      3501      3503      3499      3498      3501      3509
      3500      3498      3501      3502      3500      3498      3501      3503
      3500      3498      3501      3509      3501      3503      3504      3505
      3501      3503      3504      3506      3501      3509      3512      3513
      3502      3501      3503      3504      3502      3501      3509      3510
      3502      3501      3509      3511      3502      3501      3509      3512
      3503      3501      3509      3510      3503      3501      3509      3511
      3503      3501      3509      3512      3503      3504      3506      3507
      3503      3504      3506      3508      3503      3504      3506      3518
      3504      3503      3501      3509      3504      3506      3518      3519
      3504      3506      3518      3520      3504      3506      3518      3521
      3505      3504      3506      3507      3505      3504      3506      3508
      3505      3504      3506      3518      3506      3518      3521      3522
      3506      3518      3521      3523      3506      3518      3521      3524
      3507      3506      3518      3519      3507      3506      3518      3520
      3507      3506      3518      3521      3508      3506      3518      3519
      3508      3506      3518      3520      3508      3506      3518      3521
      3509      3512      3513      3514      3509      3512      3513      3515
      3510      3509      3512      3513      3511      3509      3512      3513
      3512      3513      3515      3516      3512      3513      3515      3517
      3512      3513      3515      3565      3513      3515      3565      3566
      3513      3515      3565      3567      3513      3515      3565      3568
      3514      3513      3515      3516      3514      3513      3515      3517
      3514      3513      3515      3565      3515      3565      3568      3569
      3515      3565      3568      3570      3515      3565      3568      3571
      3516      3515      3565      3566      3516      3515      3565      3567
      3516      3515      3565      3568      3517      3515      3565      3566
      3517      3515      3565      3567      3517      3515      3565      3568
      3518      3521      3524      3525      3518      3521      3524      3526
      3518      3521      3524      3527      3519      3518      3521      3522
      3519      3518      3521      3523      3519      3518      3521      3524
      3520      3518      3521      3522      3520      3518      3521      3523
      3520      3518      3521      3524      3521      3524      3527      3528
      3521      3524      3527      3529      3521      3524      3527      3530
      3522      3521      3524      3525      3522      3521      3524      3526
      3522      3521      3524      3527      3523      3521      3524      3525
      3523      3521      3524      3526      3523      3521      3524      3527
      3524      3527      3530      3531      3524      3527      3530      3532
      3524      3527      3530      3533      3525      3524      3527      3528
      3525      3524      3527      3529      3525      3524      3527      3530
      3526      3524      3527      3528      3526      3524      3527      3529
      3526      3524      3527      3530      3527      3530      3533      3534
      3527      3530      3533      3535      3527      3530      3533      3536
      3528      3527      3530      3531      3528      3527      3530      3532
      3528      3527      3530      3533      3529      3527      3530      3531
      3529      3527      3530      3532      3529      3527      3530      3533
      3530      3533      3536      3537      3530      3533      3536      3538
      3531      3530      3533      3534      3531      3530      3533      3535
      3531      3530      3533      3536      3532      3530      3533      3534
      3532      3530      3533      3535      3532      3530      3533      3536
      3533      3536      3538      3539      3533      3536      3538      3540
      3534      3533      3536      3537      3534      3533      3536      3538
      3535      3533      3536      3537      3535      3533      3536      3538
      3536      3538      3540      3541      3536      3538      3540      3542
      3536      3538      3540      3543      3537      3536      3538      3539
      3537      3536      3538      3540      3538      3540      3543      3544
      3538      3540      3543      3545      3538      3540      3543      3546
      3539      3538      3540      3541      3539      3538      3540      3542
      3539      3538      3540      3543      3540      3543      3546      3547
      3540      3543      3546      3548      3540      3543      3546      3549
      3541      3540      3543      3544      3541      3540      3543      3545
      3541      3540      3543      3546      3542      3540      3543      3544
      3542      3540      3543      3545      3542      3540      3543      3546
      3543      3546      3549      3550      3543      3546      3549      3551
      3543      3546      3549      3552      3544      3543      3546      3547
      3544      3543      3546      3548      3544      3543      3546      3549
      3545      3543      3546      3547      3545      3543      3546      3548
      3545      3543      3546      3549      3546      3549      3552      3553
      3546      3549      3552      3554      3546      3549      3552      3555
      3547      3546      3549      3550      3547      3546      3549      3551
      3547      3546      3549      3552      3548      3546      3549      3550
      3548      3546      3549      3551      3548      3546      3549      3552
      3549      3552      3555      3556      3549      3552      3555      3557
      3549      3552      3555      3558      3550      3549      3552      3553
      3550      3549      3552      3554      3550      3549      3552      3555
      3551      3549      3552      3553      3551      3549      3552      3554
      3551      3549      3552      3555      3552      3555      3558      3559
      3552      3555      3558      3560      3552      3555      3558      3561
      3553      3552      3555      3556      3553      3552      3555      3557
      3553      3552      3555      3558      3554      3552      3555      3556
      3554      3552      3555      3557      3554      3552      3555      3558
      3555      3558      3561      3562      3555      3558      3561      3563
      3555      3558      3561      3564      3556      3555      3558      3559
      3556      3555      3558      3560      3556      3555      3558      3561
      3557      3555      3558      3559      3557      3555      3558      3560
      3557      3555      3558      3561      3559      3558      3561      3562
      3559      3558      3561      3563      3559      3558      3561      3564
      3560      3558      3561      3562      3560      3558      3561      3563
      3560      3558      3561      3564      3565      3568      3571      3572
      3565      3568      3571      3573      3565      3568      3571      3574
      3566      3565      3568      3569      3566      3565      3568      3570
      3566      3565      3568      3571      3567      3565      3568      3569
      3567      3565      3568      3570      3567      3565      3568      3571
      3568      3571      3574      3575      3568      3571      3574      3576
      3568      3571      3574      3577      3569      3568      3571      3572
      3569      3568      3571      3573      3569      3568      3571      3574
      3570      3568      3571      3572      3570      3568      3571      3573
      3570      3568      3571      3574      3571      3574      3577      3578
      3571      3574      3577      3579      3571      3574      3577      3580
      3572      3571      3574      3575      3572      3571      3574      3576
      3572      3571      3574      3577      3573      3571      3574      3575
      3573      3571      3574      3576      3573      3571      3574      3577
      3574      3577      3580      3581      3574      3577      3580      3582
      3574      3577      3580      3583      3575      3574      3577      3578
      3575      3574      3577      3579      3575      3574      3577      3580
      3576      3574      3577      3578      3576      3574      3577      3579
      3576      3574      3577      3580      3577      3580      3583      3584
      3577      3580      3583      3585      3577      3580      3583      3586
      3578      3577      3580      3581      3578      3577      3580      3582
      3578      3577      3580      3583      3579      3577      3580      3581
      3579      3577      3580      3582      3579      3577      3580      3583
      3580      3583      3586      3587      3580      3583      3586      3588
      3580      3583      3586      3589      3581      3580      3583      3584
      3581      3580      3583      3585      3581      3580      3583      3586
      3582      3580      3583      3584      3582      3580      3583      3585
      3582      3580      3583      3586      3583      3586      3589      3590
      3583      3586      3589      3591      3583      3586      3589      3592
      3584      3583      3586      3587      3584      3583      3586      3588
      3584      3583      3586      3589      3585      3583      3586      3587
      3585      3583      3586      3588      3585      3583      3586      3589
      3586      3589      3592      3593      3586      3589      3592      3594
      3586      3589      3592      3595      3587      3586      3589      3590
      3587      3586      3589      3591      3587      3586      3589      3592
      3588      3586      3589      3590      3588      3586      3589      3591
      3588      3586      3589      3592      3589      3592      3595      3596
      3589      3592      3595      3597      3589      3592      3595      3598
      3590      3589      3592      3593      3590      3589      3592      3594
      3590      3589      3592      3595      3591      3589      3592      3593
      3591      3589      3592      3594      3591      3589      3592      3595
      3592      3595      3598      3599      3592      3595      3598      3600
      3592      3595      3598      3601      3593      3592      3595      3596
      3593      3592      3595      3597      3593      3592      3595      3598
      3594      3592      3595      3596      3594      3592      3595      3597
      3594      3592      3595      3598      3595      3598      3601      3602
      3595      3598      3601      3603      3595      3598      3601      3604
      3596      3595      3598      3599      3596      3595      3598      3600
      3596      3595      3598      3601      3597      3595      3598      3599
      3597      3595      3598      3600      3597      3595      3598      3601
      3598      3601      3604      3605      3598      3601      3604      3606
      3598      3601      3604      3607      3599      3598      3601      3602
      3599      3598      3601      3603      3599      3598      3601      3604
      3600      3598      3601      3602      3600      3598      3601      3603
      3600      3598      3601      3604      3602      3601      3604      3605
      3602      3601      3604      3606      3602      3601      3604      3607
      3603      3601      3604      3605      3603      3601      3604      3606
      3603      3601      3604      3607      3608      3609      3624      3625
      3608      3609      3624      3626      3608      3609      3624      3630
      3609      3608      3612      3613      3609      3608      3612      3614
      3609      3608      3612      3615      3609      3608      3616      3617
      3609      3608      3616      3618      3609      3608      3616      3619
      3609      3608      3620      3621      3609      3608      3620      3622
      3609      3608      3620      3623      3609      3624      3630      3627
      3610      3609      3608      3612      3610      3609      3608      3616
      3610      3609      3608      3620      3610      3609      3624      3625
      3610      3609      3624      3626      3610      3609      3624      3630
      3611      3609      3608      3612      3611      3609      3608      3616
      3611      3609      3608      3620      3611      3609      3624      3625
      3611      3609      3624      3626      3611      3609      3624      3630
      3612      3608      3609      3624      3612      3608      3616      3617
      3612      3608      3616      3618      3612      3608      3616      3619
      3612      3608      3620      3621      3612      3608      3620      3622
      3612      3608      3620      3623      3613      3612      3608      3616
      3613      3612      3608      3620      3614      3612      3608      3616
      3614      3612      3608      3620      3615      3612      3608      3616
      3615      3612      3608      3620      3616      3608      3609      3624
      3616      3608      3620      3621      3616      3608      3620      3622
      3616      3608      3620      3623      3617      3616      3608      3620
      3618      3616      3608      3620      3619      3616      3608      3620
      3620      3608      3609      3624      3624      3630      3627      3628
      3624      3630      3627      3629      3624      3630      3627      3631
      3625      3624      3630      3627      3626      3624      3630      3627
      3627      3631      3632      3633      3627      3631      3632      3634
      3627      3631      3632      3635      3628      3627      3631      3632
      3629      3627      3631      3632      3630      3627      3631      3632
      3631      3632      3635      3636      3631      3632      3635      3637
      3631      3632      3635      3643      3632      3635      3637      3638
      3632      3635      3643      3644      3632      3635      3643      3645
      3632      3635      3643      3646      3633      3632      3635      3636
      3633      3632      3635      3637      3633      3632      3635      3643
      3634      3632      3635      3636      3634      3632      3635      3637
      3634      3632      3635      3643      3635      3637      3638      3639
      3635      3637      3638      3640      3635      3643      3646      3647
      3636      3635      3637      3638      3636      3635      3643      3644
      3636      3635      3643      3645      3636      3635      3643      3646
      3637      3635      3643      3644      3637      3635      3643      3645
      3637      3635      3643      3646      3637      3638      3640      3641
      3637      3638      3640      3642      3637      3638      3640      3652
      3638      3637      3635      3643      3638      3640      3652      3653
      3638      3640      3652      3654      3638      3640      3652      3655
      3639      3638      3640      3641      3639      3638      3640      3642
      3639      3638      3640      3652      3640      3652      3655      3656
      3640      3652      3655      3657      3640      3652      3655      3658
      3641      3640      3652      3653      3641      3640      3652      3654
      3641      3640      3652      3655      3642      3640      3652      3653
      3642      3640      3652      3654      3642      3640      3652      3655
      3643      3646      3647      3648      3643      3646      3647      3649
      3644      3643      3646      3647      3645      3643      3646      3647
      3646      3647      3649      3650      3646      3647      3649      3651
      3646      3647      3649      3699      3647      3649      3699      3700
      3647      3649      3699      3701      3647      3649      3699      3702
      3648      3647      3649      3650      3648      3647      3649      3651
      3648      3647      3649      3699      3649      3699      3702      3703
      3649      3699      3702      3704      3649      3699      3702      3705
      3650      3649      3699      3700      3650      3649      3699      3701
      3650      3649      3699      3702      3651      3649      3699      3700
      3651      3649      3699      3701      3651      3649      3699      3702
      3652      3655      3658      3659      3652      3655      3658      3660
      3652      3655      3658      3661      3653      3652      3655      3656
      3653      3652      3655      3657      3653      3652      3655      3658
      3654      3652      3655      3656      3654      3652      3655      3657
      3654      3652      3655      3658      3655      3658      3661      3662
      3655      3658      3661      3663      3655      3658      3661      3664
      3656      3655      3658      3659      3656      3655      3658      3660
      3656      3655      3658      3661      3657      3655      3658      3659
      3657      3655      3658      3660      3657      3655      3658      3661
      3658      3661      3664      3665      3658      3661      3664      3666
      3658      3661      3664      3667      3659      3658      3661      3662
      3659      3658      3661      3663      3659      3658      3661      3664
      3660      3658      3661      3662      3660      3658      3661      3663
      3660      3658      3661      3664      3661      3664      3667      3668
      3661      3664      3667      3669      3661      3664      3667      3670
      3662      3661      3664      3665      3662      3661      3664      3666
      3662      3661      3664      3667      3663      3661      3664      3665
      3663      3661      3664      3666      3663      3661      3664      3667
      3664      3667      3670      3671      3664      3667      3670      3672
      3665      3664      3667      3668      3665      3664      3667      3669
      3665      3664      3667      3670      3666      3664      3667      3668
      3666      3664      3667      3669      3666      3664      3667      3670
      3667      3670      3672      3673      3667      3670      3672      3674
      3668      3667      3670      3671      3668      3667      3670      3672
      3669      3667      3670      3671      3669      3667      3670      3672
      3670      3672      3674      3675      3670      3672      3674      3676
      3670      3672      3674      3677      3671      3670      3672      3673
      3671      3670      3672      3674      3672      3674      3677      3678
      3672      3674      3677      3679      3672      3674      3677      3680
      3673      3672      3674      3675      3673      3672      3674      3676
      3673      3672      3674      3677      3674      3677      3680      3681
      3674      3677      3680      3682      3674      3677      3680      3683
      3675      3674      3677      3678      3675      3674      3677      3679
      3675      3674      3677      3680      3676      3674      3677      3678
      3676      3674      3677      3679      3676      3674      3677      3680
      3677      3680      3683      3684      3677      3680      3683      3685
      3677      3680      3683      3686      3678      3677      3680      3681
      3678      3677      3680      3682      3678      3677      3680      3683
      3679      3677      3680      3681      3679      3677      3680      3682
      3679      3677      3680      3683      3680      3683      3686      3687
      3680      3683      3686      3688      3680      3683      3686      3689
      3681      3680      3683      3684      3681      3680      3683      3685
      3681      3680      3683      3686      3682      3680      3683      3684
      3682      3680      3683      3685      3682      3680      3683      3686
      3683      3686      3689      3690      3683      3686      3689      3691
      3683      3686      3689      3692      3684      3683      3686      3687
      3684      3683      3686      3688      3684      3683      3686      3689
      3685      3683      3686      3687      3685      3683      3686      3688
      3685      3683      3686      3689      3686      3689      3692      3693
      3686      3689      3692      3694      3686      3689      3692      3695
      3687      3686      3689      3690      3687      3686      3689      3691
      3687      3686      3689      3692      3688      3686      3689      3690
      3688      3686      3689      3691      3688      3686      3689      3692
      3689      3692      3695      3696      3689      3692      3695      3697
      3689      3692      3695      3698      3690      3689      3692      3693
      3690      3689      3692      3694      3690      3689      3692      3695
      3691      3689      3692      3693      3691      3689      3692      3694
      3691      3689      3692      3695      3693      3692      3695      3696
      3693      3692      3695      3697      3693      3692      3695      3698
      3694      3692      3695      3696      3694      3692      3695      3697
      3694      3692      3695      3698      3699      3702      3705      3706
      3699      3702      3705      3707      3699      3702      3705      3708
      3700      3699      3702      3703      3700      3699      3702      3704
      3700      3699      3702      3705      3701      3699      3702      3703
      3701      3699      3702      3704      3701      3699      3702      3705
      3702      3705      3708      3709      3702      3705      3708      3710
      3702      3705      3708      3711      3703      3702      3705      3706
      3703      3702      3705      3707      3703      3702      3705      3708
      3704      3702      3705      3706      3704      3702      3705      3707
      3704      3702      3705      3708      3705      3708      3711      3712
      3705      3708      3711      3713      3705      3708      3711      3714
      3706      3705      3708      3709      3706      3705      3708      3710
      3706      3705      3708      3711      3707      3705      3708      3709
      3707      3705      3708      3710      3707      3705      3708      3711
      3708      3711      3714      3715      3708      3711      3714      3716
      3708      3711      3714      3717      3709      3708      3711      3712
      3709      3708      3711      3713      3709      3708      3711      3714
      3710      3708      3711      3712      3710      3708      3711      3713
      3710      3708      3711      3714      3711      3714      3717      3718
      3711      3714      3717      3719      3711      3714      3717      3720
      3712      3711      3714      3715      3712      3711      3714      3716
      3712      3711      3714      3717      3713      3711      3714      3715
      3713      3711      3714      3716      3713      3711      3714      3717
      3714      3717      3720      3721      3714      3717      3720      3722
      3714      3717      3720      3723      3715      3714      3717      3718
      3715      3714      3717      3719      3715      3714      3717      3720
      3716      3714      3717      3718      3716      3714      3717      3719
      3716      3714      3717      3720      3717      3720      3723      3724
      3717      3720      3723      3725      3717      3720      3723      3726
      3718      3717      3720      3721      3718      3717      3720      3722
      3718      3717      3720      3723      3719      3717      3720      3721
      3719      3717      3720      3722      3719      3717      3720      3723
      3720      3723      3726      3727      3720      3723      3726      3728
      3720      3723      3726      3729      3721      3720      3723      3724
      3721      3720      3723      3725      3721      3720      3723      3726
      3722      3720      3723      3724      3722      3720      3723      3725
      3722      3720      3723      3726      3723      3726      3729      3730
      3723      3726      3729      3731      3723      3726      3729      3732
      3724      3723      3726      3727      3724      3723      3726      3728
      3724      3723      3726      3729      3725      3723      3726      3727
      3725      3723      3726      3728      3725      3723      3726      3729
      3726      3729      3732      3733      3726      3729      3732      3734
      3726      3729      3732      3735      3727      3726      3729      3730
      3727      3726      3729      3731      3727      3726      3729      3732
      3728      3726      3729      3730      3728      3726      3729      3731
      3728      3726      3729      3732      3729      3732      3735      3736
      3729      3732      3735      3737      3729      3732      3735      3738
      3730      3729      3732      3733      3730      3729      3732      3734
      3730      3729      3732      3735      3731      3729      3732      3733
      3731      3729      3732      3734      3731      3729      3732      3735
      3732      3735      3738      3739      3732      3735      3738      3740
      3732      3735      3738      3741      3733      3732      3735      3736
      3733      3732      3735      3737      3733      3732      3735      3738
      3734      3732      3735      3736      3734      3732      3735      3737
      3734      3732      3735      3738      3736      3735      3738      3739
      3736      3735      3738      3740      3736      3735      3738      3741
      3737      3735      3738      3739      3737      3735      3738      3740
      3737      3735      3738      3741      3742      3746      3749      3750
      3742      3746      3749      3751      3742      3746      3749      3756
      3743      3742      3746      3747      3743      3742      3746      3748
      3743      3742      3746      3749      3744      3742      3746      3747
      3744      3742      3746      3748      3744      3742      3746      3749
      3745      3742      3746      3747      3745      3742      3746      3748
      3745      3742      3746      3749      3746      3749      3756      3752
      3747      3746      3749      3750      3747      3746      3749      3751
      3747      3746      3749      3756      3748      3746      3749      3750
      3748      3746      3749      3751      3748      3746      3749      3756
      3749      3756      3752      3753      3749      3756      3752      3754
      3749      3756      3752      3755      3750      3749      3756      3752
      3751      3749      3756      3752      3752      3755      3757      3758
      3752      3755      3757      3759      3752      3755      3757      3760
      3753      3752      3755      3757      3754      3752      3755      3757
      3755      3757      3760      3761      3755      3757      3760      3762
      3755      3757      3760      3768      3756      3752      3755      3757
      3757      3760      3762      3763      3757      3760      3768      3769
      3757      3760      3768      3770      3757      3760      3768      3771
      3758      3757      3760      3761      3758      3757      3760      3762
      3758      3757      3760      3768      3759      3757      3760      3761
      3759      3757      3760      3762      3759      3757      3760      3768
      3760      3762      3763      3764      3760      3762      3763      3765
      3760      3768      3771      3772      3761      3760      3762      3763
      3761      3760      3768      3769      3761      3760      3768      3770
      3761      3760      3768      3771      3762      3760      3768      3769
      3762      3760      3768      3770      3762      3760      3768      3771
      3762      3763      3765      3766      3762      3763      3765      3767
      3762      3763      3765      3777      3763      3762      3760      3768
      3763      3765      3777      3778      3763      3765      3777      3779
      3763      3765      3777      3780      3764      3763      3765      3766
      3764      3763      3765      3767      3764      3763      3765      3777
      3765      3777      3780      3781      3765      3777      3780      3782
      3765      3777      3780      3783      3766      3765      3777      3778
      3766      3765      3777      3779      3766      3765      3777      3780
      3767      3765      3777      3778      3767      3765      3777      3779
      3767      3765      3777      3780      3768      3771      3772      3773
      3768      3771      3772      3774      3769      3768      3771      3772
      3770      3768      3771      3772      3771      3772      3774      3775
      3771      3772      3774      3776      3771      3772      3774      3824
      3772      3774      3824      3825      3772      3774      3824      3826
      3772      3774      3824      3827      3773      3772      3774      3775
      3773      3772      3774      3776      3773      3772      3774      3824
      3774      3824      3827      3828      3774      3824      3827      3829
      3774      3824      3827      3830      3775      3774      3824      3825
      3775      3774      3824      3826      3775      3774      3824      3827
      3776      3774      3824      3825      3776      3774      3824      3826
      3776      3774      3824      3827      3777      3780      3783      3784
      3777      3780      3783      3785      3777      3780      3783      3786
      3778      3777      3780      3781      3778      3777      3780      3782
      3778      3777      3780      3783      3779      3777      3780      3781
      3779      3777      3780      3782      3779      3777      3780      3783
      3780      3783      3786      3787      3780      3783      3786      3788
      3780      3783      3786      3789      3781      3780      3783      3784
      3781      3780      3783      3785      3781      3780      3783      3786
      3782      3780      3783      3784      3782      3780      3783      3785
      3782      3780      3783      3786      3783      3786      3789      3790
      3783      3786      3789      3791      3783      3786      3789      3792
      3784      3783      3786      3787      3784      3783      3786      3788
      3784      3783      3786      3789      3785      3783      3786      3787
      3785      3783      3786      3788      3785      3783      3786      3789
      3786      3789      3792      3793      3786      3789      3792      3794
      3786      3789      3792      3795      3787      3786      3789      3790
      3787      3786      3789      3791      3787      3786      3789      3792
      3788      3786      3789      3790      3788      3786      3789      3791
      3788      3786      3789      3792      3789      3792      3795      3796
      3789      3792      3795      3797      3790      3789      3792      3793
      3790      3789      3792      3794      3790      3789      3792      3795
      3791      3789      3792      3793      3791      3789      3792      3794
      3791      3789      3792      3795      3792      3795      3797      3798
      3792      3795      3797      3799      3793      3792      3795      3796
      3793      3792      3795      3797      3794      3792      3795      3796
      3794      3792      3795      3797      3795      3797      3799      3800
      3795      3797      3799      3801      3795      3797      3799      3802
      3796      3795      3797      3798      3796      3795      3797      3799
      3797      3799      3802      3803      3797      3799      3802      3804
      3797      3799      3802      3805      3798      3797      3799      3800
      3798      3797      3799      3801      3798      3797      3799      3802
      3799      3802      3805      3806      3799      3802      3805      3807
      3799      3802      3805      3808      3800      3799      3802      3803
      3800      3799      3802      3804      3800      3799      3802      3805
      3801      3799      3802      3803      3801      3799      3802      3804
      3801      3799      3802      3805      3802      3805      3808      3809
      3802      3805      3808      3810      3802      3805      3808      3811
      3803      3802      3805      3806      3803      3802      3805      3807
      3803      3802      3805      3808      3804      3802      3805      3806
      3804      3802      3805      3807      3804      3802      3805      3808
      3805      3808      3811      3812      3805      3808      3811      3813
      3805      3808      3811      3814      3806      3805      3808      3809
      3806      3805      3808      3810      3806      3805      3808      3811
      3807      3805      3808      3809      3807      3805      3808      3810
      3807      3805      3808      3811      3808      3811      3814      3815
      3808      3811      3814      3816      3808      3811      3814      3817
      3809      3808      3811      3812      3809      3808      3811      3813
      3809      3808      3811      3814      3810      3808      3811      3812
      3810      3808      3811      3813      3810      3808      3811      3814
      3811      3814      3817      3818      3811      3814      3817      3819
      3811      3814      3817      3820      3812      3811      3814      3815
      3812      3811      3814      3816      3812      3811      3814      3817
      3813      3811      3814      3815      3813      3811      3814      3816
      3813      3811      3814      3817      3814      3817      3820      3821
      3814      3817      3820      3822      3814      3817      3820      3823
      3815      3814      3817      3818      3815      3814      3817      3819
      3815      3814      3817      3820      3816      3814      3817      3818
      3816      3814      3817      3819      3816      3814      3817      3820
      3818      3817      3820      3821      3818      3817      3820      3822
      3818      3817      3820      3823      3819      3817      3820      3821
      3819      3817      3820      3822      3819      3817      3820      3823
      3824      3827      3830      3831      3824      3827      3830      3832
      3824      3827      3830      3833      3825      3824      3827      3828
      3825      3824      3827      3829      3825      3824      3827      3830
      3826      3824      3827      3828      3826      3824      3827      3829
      3826      3824      3827      3830      3827      3830      3833      3834
      3827      3830      3833      3835      3827      3830      3833      3836
      3828      3827      3830      3831      3828      3827      3830      3832
      3828      3827      3830      3833      3829      3827      3830      3831
      3829      3827      3830      3832      3829      3827      3830      3833
      3830      3833      3836      3837      3830      3833      3836      3838
      3830      3833      3836      3839      3831      3830      3833      3834
      3831      3830      3833      3835      3831      3830      3833      3836
      3832      3830      3833      3834      3832      3830      3833      3835
      3832      3830      3833      3836      3833      3836      3839      3840
      3833      3836      3839      3841      3833      3836      3839      3842
      3834      3833      3836      3837      3834      3833      3836      3838
      3834      3833      3836      3839      3835      3833      3836      3837
      3835      3833      3836      3838      3835      3833      3836      3839
      3836      3839      3842      3843      3836      3839      3842      3844
      3836      3839      3842      3845      3837      3836      3839      3840
      3837      3836      3839      3841      3837      3836      3839      3842
      3838      3836      3839      3840      3838      3836      3839      3841
      3838      3836      3839      3842      3839      3842      3845      3846
      3839      3842      3845      3847      3839      3842      3845      3848
      3840      3839      3842      3843      3840      3839      3842      3844
      3840      3839      3842      3845      3841      3839      3842      3843
      3841      3839      3842      3844      3841      3839      3842      3845
      3842      3845      3848      3849      3842      3845      3848      3850
      3842      3845      3848      3851      3843      3842      3845      3846
      3843      3842      3845      3847      3843      3842      3845      3848
      3844      3842      3845      3846      3844      3842      3845      3847
      3844      3842      3845      3848      3845      3848      3851      3852
      3845      3848      3851      3853      3845      3848      3851      3854
      3846      3845      3848      3849      3846      3845      3848      3850
      3846      3845      3848      3851      3847      3845      3848      3849
      3847      3845      3848      3850      3847      3845      3848      3851
      3848      3851      3854      3855      3848      3851      3854      3856
      3848      3851      3854      3857      3849      3848      3851      3852
      3849      3848      3851      3853      3849      3848      3851      3854
      3850      3848      3851      3852      3850      3848      3851      3853
      3850      3848      3851      3854      3851      3854      3857      3858
      3851      3854      3857      3859      3851      3854      3857      3860
      3852      3851      3854      3855      3852      3851      3854      3856
      3852      3851      3854      3857      3853      3851      3854      3855
      3853      3851      3854      3856      3853      3851      3854      3857
      3854      3857      3860      3861      3854      3857      3860      3862
      3854      3857      3860      3863      3855      3854      3857      3858
      3855      3854      3857      3859      3855      3854      3857      3860
      3856      3854      3857      3858      3856      3854      3857      3859
      3856      3854      3857      3860      3857      3860      3863      3864
      3857      3860      3863      3865      3857      3860      3863      3866
      3858      3857      3860      3861      3858      3857      3860      3862
      3858      3857      3860      3863      3859      3857      3860      3861
      3859      3857      3860      3862      3859      3857      3860      3863
      3861      3860      3863      3864      3861      3860      3863      3865
      3861      3860      3863      3866      3862      3860      3863      3864
      3862      3860      3863      3865      3862      3860      3863      3866
      3867      3871      3874      3875      3867      3871      3874      3876
      3867      3871      3874      3881      3868      3867      3871      3872
      3868      3867      3871      3873      3868      3867      3871      3874
      3869      3867      3871      3872      3869      3867      3871      3873
      3869      3867      3871      3874      3870      3867      3871      3872
      3870      3867      3871      3873      3870      3867      3871      3874
      3871      3874      3881      3877      3872      3871      3874      3875
      3872      3871      3874      3876      3872      3871      3874      3881
      3873      3871      3874      3875      3873      3871      3874      3876
      3873      3871      3874      3881      3874      3881      3877      3878
      3874      3881      3877      3879      3874      3881      3877      3880
      3875      3874      3881      3877      3876      3874      3881      3877
      3877      3880      3882      3883      3877      3880      3882      3884
      3877      3880      3882      3885      3878      3877      3880      3882
      3879      3877      3880      3882      3880      3882      3885      3886
      3880      3882      3885      3887      3880      3882      3885      3893
      3881      3877      3880      3882      3882      3885      3887      3888
      3882      3885      3893      3894      3882      3885      3893      3895
      3882      3885      3893      3896      3883      3882      3885      3886
      3883      3882      3885      3887      3883      3882      3885      3893
      3884      3882      3885      3886      3884      3882      3885      3887
      3884      3882      3885      3893      3885      3887      3888      3889
      3885      3887      3888      3890      3885      3893      3896      3897
      3886      3885      3887      3888      3886      3885      3893      3894
      3886      3885      3893      3895      3886      3885      3893      3896
      3887      3885      3893      3894      3887      3885      3893      3895
      3887      3885      3893      3896      3887      3888      3890      3891
      3887      3888      3890      3892      3887      3888      3890      3902
      3888      3887      3885      3893      3888      3890      3902      3903
      3888      3890      3902      3904      3888      3890      3902      3905
      3889      3888      3890      3891      3889      3888      3890      3892
      3889      3888      3890      3902      3890      3902      3905      3906
      3890      3902      3905      3907      3890      3902      3905      3908
      3891      3890      3902      3903      3891      3890      3902      3904
      3891      3890      3902      3905      3892      3890      3902      3903
      3892      3890      3902      3904      3892      3890      3902      3905
      3893      3896      3897      3898      3893      3896      3897      3899
      3894      3893      3896      3897      3895      3893      3896      3897
      3896      3897      3899      3900      3896      3897      3899      3901
      3896      3897      3899      3949      3897      3899      3949      3950
      3897      3899      3949      3951      3897      3899      3949      3952
      3898      3897      3899      3900      3898      3897      3899      3901
      3898      3897      3899      3949      3899      3949      3952      3953
      3899      3949      3952      3954      3899      3949      3952      3955
      3900      3899      3949      3950      3900      3899      3949      3951
      3900      3899      3949      3952      3901      3899      3949      3950
      3901      3899      3949      3951      3901      3899      3949      3952
      3902      3905      3908      3909      3902      3905      3908      3910
      3902      3905      3908      3911      3903      3902      3905      3906
      3903      3902      3905      3907      3903      3902      3905      3908
      3904      3902      3905      3906      3904      3902      3905      3907
      3904      3902      3905      3908      3905      3908      3911      3912
      3905      3908      3911      3913      3905      3908      3911      3914
      3906      3905      3908      3909      3906      3905      3908      3910
      3906      3905      3908      3911      3907      3905      3908      3909
      3907      3905      3908      3910      3907      3905      3908      3911
      3908      3911      3914      3915      3908      3911      3914      3916
      3908      3911      3914      3917      3909      3908      3911      3912
      3909      3908      3911      3913      3909      3908      3911      3914
      3910      3908      3911      3912      3910      3908      3911      3913
      3910      3908      3911      3914      3911      3914      3917      3918
      3911      3914      3917      3919      3911      3914      3917      3920
      3912      3911      3914      3915      3912      3911      3914      3916
      3912      3911      3914      3917      3913      3911      3914      3915
      3913      3911      3914      3916      3913      3911      3914      3917
      3914      3917      3920      3921      3914      3917      3920      3922
      3915      3914      3917      3918      3915      3914      3917      3919
      3915      3914      3917      3920      3916      3914      3917      3918
      3916      3914      3917      3919      3916      3914      3917      3920
      3917      3920      3922      3923      3917      3920      3922      3924
      3918      3917      3920      3921      3918      3917      3920      3922
      3919      3917      3920      3921      3919      3917      3920      3922
      3920      3922      3924      3925      3920      3922      3924      3926
      3920      3922      3924      3927      3921      3920      3922      3923
      3921      3920      3922      3924      3922      3924      3927      3928
      3922      3924      3927      3929      3922      3924      3927      3930
      3923      3922      3924      3925      3923      3922      3924      3926
      3923      3922      3924      3927      3924      3927      3930      3931
      3924      3927      3930      3932      3924      3927      3930      3933
      3925      3924      3927      3928      3925      3924      3927      3929
      3925      3924      3927      3930      3926      3924      3927      3928
      3926      3924      3927      3929      3926      3924      3927      3930
      3927      3930      3933      3934      3927      3930      3933      3935
      3927      3930      3933      3936      3928      3927      3930      3931
      3928      3927      3930      3932      3928      3927      3930      3933
      3929      3927      3930      3931      3929      3927      3930      3932
      3929      3927      3930      3933      3930      3933      3936      3937
      3930      3933      3936      3938      3930      3933      3936      3939
      3931      3930      3933      3934      3931      3930      3933      3935
      3931      3930      3933      3936      3932      3930      3933      3934
      3932      3930      3933      3935      3932      3930      3933      3936
      3933      3936      3939      3940      3933      3936      3939      3941
      3933      3936      3939      3942      3934      3933      3936      3937
      3934      3933      3936      3938      3934      3933      3936      3939
      3935      3933      3936      3937      3935      3933      3936      3938
      3935      3933      3936      3939      3936      3939      3942      3943
      3936      3939      3942      3944      3936      3939      3942      3945
      3937      3936      3939      3940      3937      3936      3939      3941
      3937      3936      3939      3942      3938      3936      3939      3940
      3938      3936      3939      3941      3938      3936      3939      3942
      3939      3942      3945      3946      3939      3942      3945      3947
      3939      3942      3945      3948      3940      3939      3942      3943
      3940      3939      3942      3944      3940      3939      3942      3945
      3941      3939      3942      3943      3941      3939      3942      3944
      3941      3939      3942      3945      3943      3942      3945      3946
      3943      3942      3945      3947      3943      3942      3945      3948
      3944      3942      3945      3946      3944      3942      3945      3947
      3944      3942      3945      3948      3949      3952      3955      3956
      3949      3952      3955      3957      3949      3952      3955      3958
      3950      3949      3952      3953      3950      3949      3952      3954
      3950      3949      3952      3955      3951      3949      3952      3953
      3951      3949      3952      3954      3951      3949      3952      3955
      3952      3955      3958      3959      3952      3955      3958      3960
      3952      3955      3958      3961      3953      3952      3955      3956
      3953      3952      3955      3957      3953      3952      3955      3958
      3954      3952      3955      3956      3954      3952      3955      3957
      3954      3952      3955      3958      3955      3958      3961      3962
      3955      3958      3961      3963      3955      3958      3961      3964
      3956      3955      3958      3959      3956      3955      3958      3960
      3956      3955      3958      3961      3957      3955      3958      3959
      3957      3955      3958      3960      3957      3955      3958      3961
      3958      3961      3964      3965      3958      3961      3964      3966
      3958      3961      3964      3967      3959      3958      3961      3962
      3959      3958      3961      3963      3959      3958      3961      3964
      3960      3958      3961      3962      3960      3958      3961      3963
      3960      3958      3961      3964      3961      3964      3967      3968
      3961      3964      3967      3969      3961      3964      3967      3970
      3962      3961      3964      3965      3962      3961      3964      3966
      3962      3961      3964      3967      3963      3961      3964      3965
      3963      3961      3964      3966      3963      3961      3964      3967
      3964      3967      3970      3971      3964      3967      3970      3972
      3964      3967      3970      3973      3965      3964      3967      3968
      3965      3964      3967      3969      3965      3964      3967      3970
      3966      3964      3967      3968      3966      3964      3967      3969
      3966      3964      3967      3970      3967      3970      3973      3974
      3967      3970      3973      3975      3967      3970      3973      3976
      3968      3967      3970      3971      3968      3967      3970      3972
      3968      3967      3970      3973      3969      3967      3970      3971
      3969      3967      3970      3972      3969      3967      3970      3973
      3970      3973      3976      3977      3970      3973      3976      3978
      3970      3973      3976      3979      3971      3970      3973      3974
      3971      3970      3973      3975      3971      3970      3973      3976
      3972      3970      3973      3974      3972      3970      3973      3975
      3972      3970      3973      3976      3973      3976      3979      3980
      3973      3976      3979      3981      3973      3976      3979      3982
      3974      3973      3976      3977      3974      3973      3976      3978
      3974      3973      3976      3979      3975      3973      3976      3977
      3975      3973      3976      3978      3975      3973      3976      3979
      3976      3979      3982      3983      3976      3979      3982      3984
      3976      3979      3982      3985      3977      3976      3979      3980
      3977      3976      3979      3981      3977      3976      3979      3982
      3978      3976      3979      3980      3978      3976      3979      3981
      3978      3976      3979      3982      3979      3982      3985      3986
      3979      3982      3985      3987      3979      3982      3985      3988
      3980      3979      3982      3983      3980      3979      3982      3984
      3980      3979      3982      3985      3981      3979      3982      3983
      3981      3979      3982      3984      3981      3979      3982      3985
      3982      3985      3988      3989      3982      3985      3988      3990
      3982      3985      3988      3991      3983      3982      3985      3986
      3983      3982      3985      3987      3983      3982      3985      3988
      3984      3982      3985      3986      3984      3982      3985      3987
      3984      3982      3985      3988      3986      3985      3988      3989
      3986      3985      3988      3990      3986      3985      3988      3991
      3987      3985      3988      3989      3987      3985      3988      3990
      3987      3985      3988      3991      3992      3996      3999      4000
      3992      3996      3999      4001      3992      3996      3999      4006
      3993      3992      3996      3997      3993      3992      3996      3998
      3993      3992      3996      3999      3994      3992      3996      3997
      3994      3992      3996      3998      3994      3992      3996      3999
      3995      3992      3996      3997      3995      3992      3996      3998
      3995      3992      3996      3999      3996      3999      4006      4002
      3997      3996      3999      4000      3997      3996      3999      4001
      3997      3996      3999      4006      3998      3996      3999      4000
      3998      3996      3999      4001      3998      3996      3999      4006
      3999      4006      4002      4003      3999      4006      4002      4004
      3999      4006      4002      4005      4000      3999      4006      4002
      4001      3999      4006      4002      4002      4005      4007      4008
      4002      4005      4007      4009      4002      4005      4007      4010
      4003      4002      4005      4007      4004      4002      4005      4007
      4005      4007      4010      4011      4005      4007      4010      4012
      4005      4007      4010      4018      4006      4002      4005      4007
      4007      4010      4012      4013      4007      4010      4018      4019
      4007      4010      4018      4020      4007      4010      4018      4021
      4008      4007      4010      4011      4008      4007      4010      4012
      4008      4007      4010      4018      4009      4007      4010      4011
      4009      4007      4010      4012      4009      4007      4010      4018
      4010      4012      4013      4014      4010      4012      4013      4015
      4010      4018      4021      4022      4011      4010      4012      4013
      4011      4010      4018      4019      4011      4010      4018      4020
      4011      4010      4018      4021      4012      4010      4018      4019
      4012      4010      4018      4020      4012      4010      4018      4021
      4012      4013      4015      4016      4012      4013      4015      4017
      4012      4013      4015      4027      4013      4012      4010      4018
      4013      4015      4027      4028      4013      4015      4027      4029
      4013      4015      4027      4030      4014      4013      4015      4016
      4014      4013      4015      4017      4014      4013      4015      4027
      4015      4027      4030      4031      4015      4027      4030      4032
      4015      4027      4030      4033      4016      4015      4027      4028
      4016      4015      4027      4029      4016      4015      4027      4030
      4017      4015      4027      4028      4017      4015      4027      4029
      4017      4015      4027      4030      4018      4021      4022      4023
      4018      4021      4022      4024      4019      4018      4021      4022
      4020      4018      4021      4022      4021      4022      4024      4025
      4021      4022      4024      4026      4021      4022      4024      4074
      4022      4024      4074      4075      4022      4024      4074      4076
      4022      4024      4074      4077      4023      4022      4024      4025
      4023      4022      4024      4026      4023      4022      4024      4074
      4024      4074      4077      4078      4024      4074      4077      4079
      4024      4074      4077      4080      4025      4024      4074      4075
      4025      4024      4074      4076      4025      4024      4074      4077
      4026      4024      4074      4075      4026      4024      4074      4076
      4026      4024      4074      4077      4027      4030      4033      4034
      4027      4030      4033      4035      4027      4030      4033      4036
      4028      4027      4030      4031      4028      4027      4030      4032
      4028      4027      4030      4033      4029      4027      4030      4031
      4029      4027      4030      4032      4029      4027      4030      4033
      4030      4033      4036      4037      4030      4033      4036      4038
      4030      4033      4036      4039      4031      4030      4033      4034
      4031      4030      4033      4035      4031      4030      4033      4036
      4032      4030      4033      4034      4032      4030      4033      4035
      4032      4030      4033      4036      4033      4036      4039      4040
      4033      4036      4039      4041      4033      4036      4039      4042
      4034      4033      4036      4037      4034      4033      4036      4038
      4034      4033      4036      4039      4035      4033      4036      4037
      4035      4033      4036      4038      4035      4033      4036      4039
      4036      4039      4042      4043      4036      4039      4042      4044
      4036      4039      4042      4045      4037      4036      4039      4040
      4037      4036      4039      4041      4037      4036      4039      4042
      4038      4036      4039      4040      4038      4036      4039      4041
      4038      4036      4039      4042      4039      4042      4045      4046
      4039      4042      4045      4047      4040      4039      4042      4043
      4040      4039      4042      4044      4040      4039      4042      4045
      4041      4039      4042      4043      4041      4039      4042      4044
      4041      4039      4042      4045      4042      4045      4047      4048
      4042      4045      4047      4049      4043      4042      4045      4046
      4043      4042      4045      4047      4044      4042      4045      4046
      4044      4042      4045      4047      4045      4047      4049      4050
      4045      4047      4049      4051      4045      4047      4049      4052
      4046      4045      4047      4048      4046      4045      4047      4049
      4047      4049      4052      4053      4047      4049      4052      4054
      4047      4049      4052      4055      4048      4047      4049      4050
      4048      4047      4049      4051      4048      4047      4049      4052
      4049      4052      4055      4056      4049      4052      4055      4057
      4049      4052      4055      4058      4050      4049      4052      4053
      4050      4049      4052      4054      4050      4049      4052      4055
      4051      4049      4052      4053      4051      4049      4052      4054
      4051      4049      4052      4055      4052      4055      4058      4059
      4052      4055      4058      4060      4052      4055      4058      4061
      4053      4052      4055      4056      4053      4052      4055      4057
      4053      4052      4055      4058      4054      4052      4055      4056
      4054      4052      4055      4057      4054      4052      4055      4058
      4055      4058      4061      4062      4055      4058      4061      4063
      4055      4058      4061      4064      4056      4055      4058      4059
      4056      4055      4058      4060      4056      4055      4058      4061
      4057      4055      4058      4059      4057      4055      4058      4060
      4057      4055      4058      4061      4058      4061      4064      4065
      4058      4061      4064      4066      4058      4061      4064      4067
      4059      4058      4061      4062      4059      4058      4061      4063
      4059      4058      4061      4064      4060      4058      4061      4062
      4060      4058      4061      4063      4060      4058      4061      4064
      4061      4064      4067      4068      4061      4064      4067      4069
      4061      4064      4067      4070      4062      4061      4064      4065
      4062      4061      4064      4066      4062      4061      4064      4067
      4063      4061      4064      4065      4063      4061      4064      4066
      4063      4061      4064      4067      4064      4067      4070      4071
      4064      4067      4070      4072      4064      4067      4070      4073
      4065      4064      4067      4068      4065      4064      4067      4069
      4065      4064      4067      4070      4066      4064      4067      4068
      4066      4064      4067      4069      4066      4064      4067      4070
      4068      4067      4070      4071      4068      4067      4070      4072
      4068      4067      4070      4073      4069      4067      4070      4071
      4069      4067      4070      4072      4069      4067      4070      4073
      4074      4077      4080      4081      4074      4077      4080      4082
      4074      4077      4080      4083      4075      4074      4077      4078
      4075      4074      4077      4079      4075      4074      4077      4080
      4076      4074      4077      4078      4076      4074      4077      4079
      4076      4074      4077      4080      4077      4080      4083      4084
      4077      4080      4083      4085      4077      4080      4083      4086
      4078      4077      4080      4081      4078      4077      4080      4082
      4078      4077      4080      4083      4079      4077      4080      4081
      4079      4077      4080      4082      4079      4077      4080      4083
      4080      4083      4086      4087      4080      4083      4086      4088
      4080      4083      4086      4089      4081      4080      4083      4084
      4081      4080      4083      4085      4081      4080      4083      4086
      4082      4080      4083      4084      4082      4080      4083      4085
      4082      4080      4083      4086      4083      4086      4089      4090
      4083      4086      4089      4091      4083      4086      4089      4092
      4084      4083      4086      4087      4084      4083      4086      4088
      4084      4083      4086      4089      4085      4083      4086      4087
      4085      4083      4086      4088      4085      4083      4086      4089
      4086      4089      4092      4093      4086      4089      4092      4094
      4086      4089      4092      4095      4087      4086      4089      4090
      4087      4086      4089      4091      4087      4086      4089      4092
      4088      4086      4089      4090      4088      4086      4089      4091
      4088      4086      4089      4092      4089      4092      4095      4096
      4089      4092      4095      4097      4089      4092      4095      4098
      4090      4089      4092      4093      4090      4089      4092      4094
      4090      4089      4092      4095      4091      4089      4092      4093
      4091      4089      4092      4094      4091      4089      4092      4095
      4092      4095      4098      4099      4092      4095      4098      4100
      4092      4095      4098      4101      4093      4092      4095      4096
      4093      4092      4095      4097      4093      4092      4095      4098
      4094      4092      4095      4096      4094      4092      4095      4097
      4094      4092      4095      4098      4095      4098      4101      4102
      4095      4098      4101      4103      4095      4098      4101      4104
      4096      4095      4098      4099      4096      4095      4098      4100
      4096      4095      4098      4101      4097      4095      4098      4099
      4097      4095      4098      4100      4097      4095      4098      4101
      4098      4101      4104      4105      4098      4101      4104      4106
      4098      4101      4104      4107      4099      4098      4101      4102
      4099      4098      4101      4103      4099      4098      4101      4104
      4100      4098      4101      4102      4100      4098      4101      4103
      4100      4098      4101      4104      4101      4104      4107      4108
      4101      4104      4107      4109      4101      4104      4107      4110
      4102      4101      4104      4105      4102      4101      4104      4106
      4102      4101      4104      4107      4103      4101      4104      4105
      4103      4101      4104      4106      4103      4101      4104      4107
      4104      4107      4110      4111      4104      4107      4110      4112
      4104      4107      4110      4113      4105      4104      4107      4108
      4105      4104      4107      4109      4105      4104      4107      4110
      4106      4104      4107      4108      4106      4104      4107      4109
      4106      4104      4107      4110      4107      4110      4113      4114
      4107      4110      4113      4115      4107      4110      4113      4116
      4108      4107      4110      4111      4108      4107      4110      4112
      4108      4107      4110      4113      4109      4107      4110      4111
      4109      4107      4110      4112      4109      4107      4110      4113
      4111      4110      4113      4114      4111      4110      4113      4115
      4111      4110      4113      4116      4112      4110      4113      4114
      4112      4110      4113      4115      4112      4110      4113      4116
      4117      4118      4133      4134      4117      4118      4133      4135
      4117      4118      4133      4139      4118      4117      4121      4122
      4118      4117      4121      4123      4118      4117      4121      4124
      4118      4117      4125      4126      4118      4117      4125      4127
      4118      4117      4125      4128      4118      4117      4129      4130
      4118      4117      4129      4131      4118      4117      4129      4132
      4118      4133      4139      4136      4119      4118      4117      4121
      4119      4118      4117      4125      4119      4118      4117      4129
      4119      4118      4133      4134      4119      4118      4133      4135
      4119      4118      4133      4139      4120      4118      4117      4121
      4120      4118      4117      4125      4120      4118      4117      4129
      4120      4118      4133      4134      4120      4118      4133      4135
      4120      4118      4133      4139      4121      4117      4118      4133
      4121      4117      4125      4126      4121      4117      4125      4127
      4121      4117      4125      4128      4121      4117      4129      4130
      4121      4117      4129      4131      4121      4117      4129      4132
      4122      4121      4117      4125      4122      4121      4117      4129
      4123      4121      4117      4125      4123      4121      4117      4129
      4124      4121      4117      4125      4124      4121      4117      4129
      4125      4117      4118      4133      4125      4117      4129      4130
      4125      4117      4129      4131      4125      4117      4129      4132
      4126      4125      4117      4129      4127      4125      4117      4129
      4128      4125      4117      4129      4129      4117      4118      4133
      4133      4139      4136      4137      4133      4139      4136      4138
      4133      4139      4136      4140      4134      4133      4139      4136
      4135      4133      4139      4136      4136      4140      4141      4142
      4136      4140      4141      4143      4136      4140      4141      4144
      4137      4136      4140      4141      4138      4136      4140      4141
      4139      4136      4140      4141      4140      4141      4144      4145
      4140      4141      4144      4146      4140      4141      4144      4152
      4141      4144      4146      4147      4141      4144      4152      4153
      4141      4144      4152      4154      4141      4144      4152      4155
      4142      4141      4144      4145      4142      4141      4144      4146
      4142      4141      4144      4152      4143      4141      4144      4145
      4143      4141      4144      4146      4143      4141      4144      4152
      4144      4146      4147      4148      4144      4146      4147      4149
      4144      4152      4155      4156      4145      4144      4146      4147
      4145      4144      4152      4153      4145      4144      4152      4154
      4145      4144      4152      4155      4146      4144      4152      4153
      4146      4144      4152      4154      4146      4144      4152      4155
      4146      4147      4149      4150      4146      4147      4149      4151
      4146      4147      4149      4161      4147      4146      4144      4152
      4147      4149      4161      4162      4147      4149      4161      4163
      4147      4149      4161      4164      4148      4147      4149      4150
      4148      4147      4149      4151      4148      4147      4149      4161
      4149      4161      4164      4165      4149      4161      4164      4166
      4149      4161      4164      4167      4150      4149      4161      4162
      4150      4149      4161      4163      4150      4149      4161      4164
      4151      4149      4161      4162      4151      4149      4161      4163
      4151      4149      4161      4164      4152      4155      4156      4157
      4152      4155      4156      4158      4153      4152      4155      4156
      4154      4152      4155      4156      4155      4156      4158      4159
      4155      4156      4158      4160      4155      4156      4158      4208
      4156      4158      4208      4209      4156      4158      4208      4210
      4156      4158      4208      4211      4157      4156      4158      4159
      4157      4156      4158      4160      4157      4156      4158      4208
      4158      4208      4211      4212      4158      4208      4211      4213
      4158      4208      4211      4214      4159      4158      4208      4209
      4159      4158      4208      4210      4159      4158      4208      4211
      4160      4158      4208      4209      4160      4158      4208      4210
      4160      4158      4208      4211      4161      4164      4167      4168
      4161      4164      4167      4169      4161      4164      4167      4170
      4162      4161      4164      4165      4162      4161      4164      4166
      4162      4161      4164      4167      4163      4161      4164      4165
      4163      4161      4164      4166      4163      4161      4164      4167
      4164      4167      4170      4171      4164      4167      4170      4172
      4164      4167      4170      4173      4165      4164      4167      4168
      4165      4164      4167      4169      4165      4164      4167      4170
      4166      4164      4167      4168      4166      4164      4167      4169
      4166      4164      4167      4170      4167      4170      4173      4174
      4167      4170      4173      4175      4167      4170      4173      4176
      4168      4167      4170      4171      4168      4167      4170      4172
      4168      4167      4170      4173      4169      4167      4170      4171
      4169      4167      4170      4172      4169      4167      4170      4173
      4170      4173      4176      4177      4170      4173      4176      4178
      4170      4173      4176      4179      4171      4170      4173      4174
      4171      4170      4173      4175      4171      4170      4173      4176
      4172      4170      4173      4174      4172      4170      4173      4175
      4172      4170      4173      4176      4173      4176      4179      4180
      4173      4176      4179      4181      4174      4173      4176      4177
      4174      4173      4176      4178      4174      4173      4176      4179
      4175      4173      4176      4177      4175      4173      4176      4178
      4175      4173      4176      4179      4176      4179      4181      4182
      4176      4179      4181      4183      4177      4176      4179      4180
      4177      4176      4179      4181      4178      4176      4179      4180
      4178      4176      4179      4181      4179      4181      4183      4184
      4179      4181      4183      4185      4179      4181      4183      4186
      4180      4179      4181      4182      4180      4179      4181      4183
      4181      4183      4186      4187      4181      4183      4186      4188
      4181      4183      4186      4189      4182      4181      4183      4184
      4182      4181      4183      4185      4182      4181      4183      4186
      4183      4186      4189      4190      4183      4186      4189      4191
      4183      4186      4189      4192      4184      4183      4186      4187
      4184      4183      4186      4188      4184      4183      4186      4189
      4185      4183      4186      4187      4185      4183      4186      4188
      4185      4183      4186      4189      4186      4189      4192      4193
      4186      4189      4192      4194      4186      4189      4192      4195
      4187      4186      4189      4190      4187      4186      4189      4191
      4187      4186      4189      4192      4188      4186      4189      4190
      4188      4186      4189      4191      4188      4186      4189      4192
      4189      4192      4195      4196      4189      4192      4195      4197
      4189      4192      4195      4198      4190      4189      4192      4193
      4190      4189      4192      4194      4190      4189      4192      4195
      4191      4189      4192      4193      4191      4189      4192      4194
      4191      4189      4192      4195      4192      4195      4198      4199
      4192      4195      4198      4200      4192      4195      4198      4201
      4193      4192      4195      4196      4193      4192      4195      4197
      4193      4192      4195      4198      4194      4192      4195      4196
      4194      4192      4195      4197      4194      4192      4195      4198
      4195      4198      4201      4202      4195      4198      4201      4203
      4195      4198      4201      4204      4196      4195      4198      4199
      4196      4195      4198      4200      4196      4195      4198      4201
      4197      4195      4198      4199      4197      4195      4198      4200
      4197      4195      4198      4201      4198      4201      4204      4205
      4198      4201      4204      4206      4198      4201      4204      4207
      4199      4198      4201      4202      4199      4198      4201      4203
      4199      4198      4201      4204      4200      4198      4201      4202
      4200      4198      4201      4203      4200      4198      4201      4204
      4202      4201      4204      4205      4202      4201      4204      4206
      4202      4201      4204      4207      4203      4201      4204      4205
      4203      4201      4204      4206      4203      4201      4204      4207
      4208      4211      4214      4215      4208      4211      4214      4216
      4208      4211      4214      4217      4209      4208      4211      4212
      4209      4208      4211      4213      4209      4208      4211      4214
      4210      4208      4211      4212      4210      4208      4211      4213
      4210      4208      4211      4214      4211      4214      4217      4218
      4211      4214      4217      4219      4211      4214      4217      4220
      4212      4211      4214      4215      4212      4211      4214      4216
      4212      4211      4214      4217      4213      4211      4214      4215
      4213      4211      4214      4216      4213      4211      4214      4217
      4214      4217      4220      4221      4214      4217      4220      4222
      4214      4217      4220      4223      4215      4214      4217      4218
      4215      4214      4217      4219      4215      4214      4217      4220
      4216      4214      4217      4218      4216      4214      4217      4219
      4216      4214      4217      4220      4217      4220      4223      4224
      4217      4220      4223      4225      4217      4220      4223      4226
      4218      4217      4220      4221      4218      4217      4220      4222
      4218      4217      4220      4223      4219      4217      4220      4221
      4219      4217      4220      4222      4219      4217      4220      4223
      4220      4223      4226      4227      4220      4223      4226      4228
      4220      4223      4226      4229      4221      4220      4223      4224
      4221      4220      4223      4225      4221      4220      4223      4226
      4222      4220      4223      4224      4222      4220      4223      4225
      4222      4220      4223      4226      4223      4226      4229      4230
      4223      4226      4229      4231      4223      4226      4229      4232
      4224      4223      4226      4227      4224      4223      4226      4228
      4224      4223      4226      4229      4225      4223      4226      4227
      4225      4223      4226      4228      4225      4223      4226      4229
      4226      4229      4232      4233      4226      4229      4232      4234
      4226      4229      4232      4235      4227      4226      4229      4230
      4227      4226      4229      4231      4227      4226      4229      4232
      4228      4226      4229      4230      4228      4226      4229      4231
      4228      4226      4229      4232      4229      4232      4235      4236
      4229      4232      4235      4237      4229      4232      4235      4238
      4230      4229      4232      4233      4230      4229      4232      4234
      4230      4229      4232      4235      4231      4229      4232      4233
      4231      4229      4232      4234      4231      4229      4232      4235
      4232      4235      4238      4239      4232      4235      4238      4240
      4232      4235      4238      4241      4233      4232      4235      4236
      4233      4232      4235      4237      4233      4232      4235      4238
      4234      4232      4235      4236      4234      4232      4235      4237
      4234      4232      4235      4238      4235      4238      4241      4242
      4235      4238      4241      4243      4235      4238      4241      4244
      4236      4235      4238      4239      4236      4235      4238      4240
      4236      4235      4238      4241      4237      4235      4238      4239
      4237      4235      4238      4240      4237      4235      4238      4241
      4238      4241      4244      4245      4238      4241      4244      4246
      4238      4241      4244      4247      4239      4238      4241      4242
      4239      4238      4241      4243      4239      4238      4241      4244
      4240      4238      4241      4242      4240      4238      4241      4243
      4240      4238      4241      4244      4241      4244      4247      4248
      4241      4244      4247      4249      4241      4244      4247      4250
      4242      4241      4244      4245      4242      4241      4244      4246
      4242      4241      4244      4247      4243      4241      4244      4245
      4243      4241      4244      4246      4243      4241      4244      4247
      4245      4244      4247      4248      4245      4244      4247      4249
      4245      4244      4247      4250      4246      4244      4247      4248
      4246      4244      4247      4249      4246      4244      4247      4250
      4251      4252      4267      4268      4251      4252      4267      4269
      4251      4252      4267      4273      4252      4251      4255      4256
      4252      4251      4255      4257      4252      4251      4255      4258
      4252      4251      4259      4260      4252      4251      4259      4261
      4252      4251      4259      4262      4252      4251      4263      4264
      4252      4251      4263      4265      4252      4251      4263      4266
      4252      4267      4273      4270      4253      4252      4251      4255
      4253      4252      4251      4259      4253      4252      4251      4263
      4253      4252      4267      4268      4253      4252      4267      4269
      4253      4252      4267      4273      4254      4252      4251      4255
      4254      4252      4251      4259      4254      4252      4251      4263
      4254      4252      4267      4268      4254      4252      4267      4269
      4254      4252      4267      4273      4255      4251      4252      4267
      4255      4251      4259      4260      4255      4251      4259      4261
      4255      4251      4259      4262      4255      4251      4263      4264
      4255      4251      4263      4265      4255      4251      4263      4266
      4256      4255      4251      4259      4256      4255      4251      4263
      4257      4255      4251      4259      4257      4255      4251      4263
      4258      4255      4251      4259      4258      4255      4251      4263
      4259      4251      4252      4267      4259      4251      4263      4264
      4259      4251      4263      4265      4259      4251      4263      4266
      4260      4259      4251      4263      4261      4259      4251      4263
      4262      4259      4251      4263      4263      4251      4252      4267
      4267      4273      4270      4271      4267      4273      4270      4272
      4267      4273      4270      4274      4268      4267      4273      4270
      4269      4267      4273      4270      4270      4274      4275      4276
      4270      4274      4275      4277      4270      4274      4275      4278
      4271      4270      4274      4275      4272      4270      4274      4275
      4273      4270      4274      4275      4274      4275      4278      4279
      4274      4275      4278      4280      4274      4275      4278      4286
      4275      4278      4280      4281      4275      4278      4286      4287
      4275      4278      4286      4288      4275      4278      4286      4289
      4276      4275      4278      4279      4276      4275      4278      4280
      4276      4275      4278      4286      4277      4275      4278      4279
      4277      4275      4278      4280      4277      4275      4278      4286
      4278      4280      4281      4282      4278      4280      4281      4283
      4278      4286      4289      4290      4279      4278      4280      4281
      4279      4278      4286      4287      4279      4278      4286      4288
      4279      4278      4286      4289      4280      4278      4286      4287
      4280      4278      4286      4288      4280      4278      4286      4289
      4280      4281      4283      4284      4280      4281      4283      4285
      4280      4281      4283      4295      4281      4280      4278      4286
      4281      4283      4295      4296      4281      4283      4295      4297
      4281      4283      4295      4298      4282      4281      4283      4284
      4282      4281      4283      4285      4282      4281      4283      4295
      4283      4295      4298      4299      4283      4295      4298      4300
      4283      4295      4298      4301      4284      4283      4295      4296
      4284      4283      4295      4297      4284      4283      4295      4298
      4285      4283      4295      4296      4285      4283      4295      4297
      4285      4283      4295      4298      4286      4289      4290      4291
      4286      4289      4290      4292      4287      4286      4289      4290
      4288      4286      4289      4290      4289      4290      4292      4293
      4289      4290      4292      4294      4289      4290      4292      4342
      4290      4292      4342      4343      4290      4292      4342      4344
      4290      4292      4342      4345      4291      4290      4292      4293
      4291      4290      4292      4294      4291      4290      4292      4342
      4292      4342      4345      4346      4292      4342      4345      4347
      4292      4342      4345      4348      4293      4292      4342      4343
      4293      4292      4342      4344      4293      4292      4342      4345
      4294      4292      4342      4343      4294      4292      4342      4344
      4294      4292      4342      4345      4295      4298      4301      4302
      4295      4298      4301      4303      4295      4298      4301      4304
      4296      4295      4298      4299      4296      4295      4298      4300
      4296      4295      4298      4301      4297      4295      4298      4299
      4297      4295      4298      4300      4297      4295      4298      4301
      4298      4301      4304      4305      4298      4301      4304      4306
      4298      4301      4304      4307      4299      4298      4301      4302
      4299      4298      4301      4303      4299      4298      4301      4304
      4300      4298      4301      4302      4300      4298      4301      4303
      4300      4298      4301      4304      4301      4304      4307      4308
      4301      4304      4307      4309      4301      4304      4307      4310
      4302      4301      4304      4305      4302      4301      4304      4306
      4302      4301      4304      4307      4303      4301      4304      4305
      4303      4301      4304      4306      4303      4301      4304      4307
      4304      4307      4310      4311      4304      4307      4310      4312
      4304      4307      4310      4313      4305      4304      4307      4308
      4305      4304      4307      4309      4305      4304      4307      4310
      4306      4304      4307      4308      4306      4304      4307      4309
      4306      4304      4307      4310      4307      4310      4313      4314
      4307      4310      4313      4315      4308      4307      4310      4311
      4308      4307      4310      4312      4308      4307      4310      4313
      4309      4307      4310      4311      4309      4307      4310      4312
      4309      4307      4310      4313      4310      4313      4315      4316
      4310      4313      4315      4317      4311      4310      4313      4314
      4311      4310      4313      4315      4312      4310      4313      4314
      4312      4310      4313      4315      4313      4315      4317      4318
      4313      4315      4317      4319      4313      4315      4317      4320
      4314      4313      4315      4316      4314      4313      4315      4317
      4315      4317      4320      4321      4315      4317      4320      4322
      4315      4317      4320      4323      4316      4315      4317      4318
      4316      4315      4317      4319      4316      4315      4317      4320
      4317      4320      4323      4324      4317      4320      4323      4325
      4317      4320      4323      4326      4318      4317      4320      4321
      4318      4317      4320      4322      4318      4317      4320      4323
      4319      4317      4320      4321      4319      4317      4320      4322
      4319      4317      4320      4323      4320      4323      4326      4327
      4320      4323      4326      4328      4320      4323      4326      4329
      4321      4320      4323      4324      4321      4320      4323      4325
      4321      4320      4323      4326      4322      4320      4323      4324
      4322      4320      4323      4325      4322      4320      4323      4326
      4323      4326      4329      4330      4323      4326      4329      4331
      4323      4326      4329      4332      4324      4323      4326      4327
      4324      4323      4326      4328      4324      4323      4326      4329
      4325      4323      4326      4327      4325      4323      4326      4328
      4325      4323      4326      4329      4326      4329      4332      4333
      4326      4329      4332      4334      4326      4329      4332      4335
      4327      4326      4329      4330      4327      4326      4329      4331
      4327      4326      4329      4332      4328      4326      4329      4330
      4328      4326      4329      4331      4328      4326      4329      4332
      4329      4332      4335      4336      4329      4332      4335      4337
      4329      4332      4335      4338      4330      4329      4332      4333
      4330      4329      4332      4334      4330      4329      4332      4335
      4331      4329      4332      4333      4331      4329      4332      4334
      4331      4329      4332      4335      4332      4335      4338      4339
      4332      4335      4338      4340      4332      4335      4338      4341
      4333      4332      4335      4336      4333      4332      4335      4337
      4333      4332      4335      4338      4334      4332      4335      4336
      4334      4332      4335      4337      4334      4332      4335      4338
      4336      4335      4338      4339      4336      4335      4338      4340
      4336      4335      4338      4341      4337      4335      4338      4339
      4337      4335      4338      4340      4337      4335      4338      4341
      4342      4345      4348      4349      4342      4345      4348      4350
      4342      4345      4348      4351      4343      4342      4345      4346
      4343      4342      4345      4347      4343      4342      4345      4348
      4344      4342      4345      4346      4344      4342      4345      4347
      4344      4342      4345      4348      4345      4348      4351      4352
      4345      4348      4351      4353      4345      4348      4351      4354
      4346      4345      4348      4349      4346      4345      4348      4350
      4346      4345      4348      4351      4347      4345      4348      4349
      4347      4345      4348      4350      4347      4345      4348      4351
      4348      4351      4354      4355      4348      4351      4354      4356
      4348      4351      4354      4357      4349      4348      4351      4352
      4349      4348      4351      4353      4349      4348      4351      4354
      4350      4348      4351      4352      4350      4348      4351      4353
      4350      4348      4351      4354      4351      4354      4357      4358
      4351      4354      4357      4359      4351      4354      4357      4360
      4352      4351      4354      4355      4352      4351      4354      4356
      4352      4351      4354      4357      4353      4351      4354      4355
      4353      4351      4354      4356      4353      4351      4354      4357
      4354      4357      4360      4361      4354      4357      4360      4362
      4354      4357      4360      4363      4355      4354      4357      4358
      4355      4354      4357      4359      4355      4354      4357      4360
      4356      4354      4357      4358      4356      4354      4357      4359
      4356      4354      4357      4360      4357      4360      4363      4364
      4357      4360      4363      4365      4357      4360      4363      4366
      4358      4357      4360      4361      4358      4357      4360      4362
      4358      4357      4360      4363      4359      4357      4360      4361
      4359      4357      4360      4362      4359      4357      4360      4363
      4360      4363      4366      4367      4360      4363      4366      4368
      4360      4363      4366      4369      4361      4360      4363      4364
      4361      4360      4363      4365      4361      4360      4363      4366
      4362      4360      4363      4364      4362      4360      4363      4365
      4362      4360      4363      4366      4363      4366      4369      4370
      4363      4366      4369      4371      4363      4366      4369      4372
      4364      4363      4366      4367      4364      4363      4366      4368
      4364      4363      4366      4369      4365      4363      4366      4367
      4365      4363      4366      4368      4365      4363      4366      4369
      4366      4369      4372      4373      4366      4369      4372      4374
      4366      4369      4372      4375      4367      4366      4369      4370
      4367      4366      4369      4371      4367      4366      4369      4372
      4368      4366      4369      4370      4368      4366      4369      4371
      4368      4366      4369      4372      4369      4372      4375      4376
      4369      4372      4375      4377      4369      4372      4375      4378
      4370      4369      4372      4373      4370      4369      4372      4374
      4370      4369      4372      4375      4371      4369      4372      4373
      4371      4369      4372      4374      4371      4369      4372      4375
      4372      4375      4378      4379      4372      4375      4378      4380
      4372      4375      4378      4381      4373      4372      4375      4376
      4373      4372      4375      4377      4373      4372      4375      4378
      4374      4372      4375      4376      4374      4372      4375      4377
      4374      4372      4375      4378      4375      4378      4381      4382
      4375      4378      4381      4383      4375      4378      4381      4384
      4376      4375      4378      4379      4376      4375      4378      4380
      4376      4375      4378      4381      4377      4375      4378      4379
      4377      4375      4378      4380      4377      4375      4378      4381
      4379      4378      4381      4382      4379      4378      4381      4383
      4379      4378      4381      4384      4380      4378      4381      4382
      4380      4378      4381      4383      4380      4378      4381      4384
      4385      4386      4401      4402      4385      4386      4401      4403
      4385      4386      4401      4407      4386      4385      4389      4390
      4386      4385      4389      4391      4386      4385      4389      4392
      4386      4385      4393      4394      4386      4385      4393      4395
      4386      4385      4393      4396      4386      4385      4397      4398
      4386      4385      4397      4399      4386      4385      4397      4400
      4386      4401      4407      4404      4387      4386      4385      4389
      4387      4386      4385      4393      4387      4386      4385      4397
      4387      4386      4401      4402      4387      4386      4401      4403
      4387      4386      4401      4407      4388      4386      4385      4389
      4388      4386      4385      4393      4388      4386      4385      4397
      4388      4386      4401      4402      4388      4386      4401      4403
      4388      4386      4401      4407      4389      4385      4386      4401
      4389      4385      4393      4394      4389      4385      4393      4395
      4389      4385      4393      4396      4389      4385      4397      4398
      4389      4385      4397      4399      4389      4385      4397      4400
      4390      4389      4385      4393      4390      4389      4385      4397
      4391      4389      4385      4393      4391      4389      4385      4397
      4392      4389      4385      4393      4392      4389      4385      4397
      4393      4385      4386      4401      4393      4385      4397      4398
      4393      4385      4397      4399      4393      4385      4397      4400
      4394      4393      4385      4397      4395      4393      4385      4397
      4396      4393      4385      4397      4397      4385      4386      4401
      4401      4407      4404      4405      4401      4407      4404      4406
      4401      4407      4404      4408      4402      4401      4407      4404
      4403      4401      4407      4404      4404      4408      4409      4410
      4404      4408      4409      4411      4404      4408      4409      4412
      4405      4404      4408      4409      4406      4404      4408      4409
      4407      4404      4408      4409      4408      4409      4412      4413
      4408      4409      4412      4414      4408      4409      4412      4420
      4409      4412      4414      4415      4409      4412      4420      4421
      4409      4412      4420      4422      4409      4412      4420      4423
      4410      4409      4412      4413      4410      4409      4412      4414
      4410      4409      4412      4420      4411      4409      4412      4413
      4411      4409      4412      4414      4411      4409      4412      4420
      4412      4414      4415      4416      4412      4414      4415      4417
      4412      4420      4423      4424      4413      4412      4414      4415
      4413      4412      4420      4421      4413      4412      4420      4422
      4413      4412      4420      4423      4414      4412      4420      4421
      4414      4412      4420      4422      4414      4412      4420      4423
      4414      4415      4417      4418      4414      4415      4417      4419
      4414      4415      4417      4429      4415      4414      4412      4420
      4415      4417      4429      4430      4415      4417      4429      4431
      4415      4417      4429      4432      4416      4415      4417      4418
      4416      4415      4417      4419      4416      4415      4417      4429
      4417      4429      4432      4433      4417      4429      4432      4434
      4417      4429      4432      4435      4418      4417      4429      4430
      4418      4417      4429      4431      4418      4417      4429      4432
      4419      4417      4429      4430      4419      4417      4429      4431
      4419      4417      4429      4432      4420      4423      4424      4425
      4420      4423      4424      4426      4421      4420      4423      4424
      4422      4420      4423      4424      4423      4424      4426      4427
      4423      4424      4426      4428      4423      4424      4426      4476
      4424      4426      4476      4477      4424      4426      4476      4478
      4424      4426      4476      4479      4425      4424      4426      4427
      4425      4424      4426      4428      4425      4424      4426      4476
      4426      4476      4479      4480      4426      4476      4479      4481
      4426      4476      4479      4482      4427      4426      4476      4477
      4427      4426      4476      4478      4427      4426      4476      4479
      4428      4426      4476      4477      4428      4426      4476      4478
      4428      4426      4476      4479      4429      4432      4435      4436
      4429      4432      4435      4437      4429      4432      4435      4438
      4430      4429      4432      4433      4430      4429      4432      4434
      4430      4429      4432      4435      4431      4429      4432      4433
      4431      4429      4432      4434      4431      4429      4432      4435
      4432      4435      4438      4439      4432      4435      4438      4440
      4432      4435      4438      4441      4433      4432      4435      4436
      4433      4432      4435      4437      4433      4432      4435      4438
      4434      4432      4435      4436      4434      4432      4435      4437
      4434      4432      4435      4438      4435      4438      4441      4442
      4435      4438      4441      4443      4435      4438      4441      4444
      4436      4435      4438      4439      4436      4435      4438      4440
      4436      4435      4438      4441      4437      4435      4438      4439
      4437      4435      4438      4440      4437      4435      4438      4441
      4438      4441      4444      4445      4438      4441      4444      4446
      4438      4441      4444      4447      4439      4438      4441      4442
      4439      4438      4441      4443      4439      4438      4441      4444
      4440      4438      4441      4442      4440      4438      4441      4443
      4440      4438      4441      4444      4441      4444      4447      4448
      4441      4444      4447      4449      4442      4441      4444      4445
      4442      4441      4444      4446      4442      4441      4444      4447
      4443      4441      4444      4445      4443      4441      4444      4446
      4443      4441      4444      4447      4444      4447      4449      4450
      4444      4447      4449      4451      4445      4444      4447      4448
      4445      4444      4447      4449      4446      4444      4447      4448
      4446      4444      4447      4449      4447      4449      4451      4452
      4447      4449      4451      4453      4447      4449      4451      4454
      4448      4447      4449      4450      4448      4447      4449      4451
      4449      4451      4454      4455      4449      4451      4454      4456
      4449      4451      4454      4457      4450      4449      4451      4452
      4450      4449      4451      4453      4450      4449      4451      4454
      4451      4454      4457      4458      4451      4454      4457      4459
      4451      4454      4457      4460      4452      4451      4454      4455
      4452      4451      4454      4456      4452      4451      4454      4457
      4453      4451      4454      4455      4453      4451      4454      4456
      4453      4451      4454      4457      4454      4457      4460      4461
      4454      4457      4460      4462      4454      4457      4460      4463
      4455      4454      4457      4458      4455      4454      4457      4459
      4455      4454      4457      4460      4456      4454      4457      4458
      4456      4454      4457      4459      4456      4454      4457      4460
      4457      4460      4463      4464      4457      4460      4463      4465
      4457      4460      4463      4466      4458      4457      4460      4461
      4458      4457      4460      4462      4458      4457      4460      4463
      4459      4457      4460      4461      4459      4457      4460      4462
      4459      4457      4460      4463      4460      4463      4466      4467
      4460      4463      4466      4468      4460      4463      4466      4469
      4461      4460      4463      4464      4461      4460      4463      4465
      4461      4460      4463      4466      4462      4460      4463      4464
      4462      4460      4463      4465      4462      4460      4463      4466
      4463      4466      4469      4470      4463      4466      4469      4471
      4463      4466      4469      4472      4464      4463      4466      4467
      4464      4463      4466      4468      4464      4463      4466      4469
      4465      4463      4466      4467      4465      4463      4466      4468
      4465      4463      4466      4469      4466      4469      4472      4473
      4466      4469      4472      4474      4466      4469      4472      4475
      4467      4466      4469      4470      4467      4466      4469      4471
      4467      4466      4469      4472      4468      4466      4469      4470
      4468      4466      4469      4471      4468      4466      4469      4472
      4470      4469      4472      4473      4470      4469      4472      4474
      4470      4469      4472      4475      4471      4469      4472      4473
      4471      4469      4472      4474      4471      4469      4472      4475
      4476      4479      4482      4483      4476      4479      4482      4484
      4476      4479      4482      4485      4477      4476      4479      4480
      4477      4476      4479      4481      4477      4476      4479      4482
      4478      4476      4479      4480      4478      4476      4479      4481
      4478      4476      4479      4482      4479      4482      4485      4486
      4479      4482      4485      4487      4479      4482      4485      4488
      4480      4479      4482      4483      4480      4479      4482      4484
      4480      4479      4482      4485      4481      4479      4482      4483
      4481      4479      4482      4484      4481      4479      4482      4485
      4482      4485      4488      4489      4482      4485      4488      4490
      4482      4485      4488      4491      4483      4482      4485      4486
      4483      4482      4485      4487      4483      4482      4485      4488
      4484      4482      4485      4486      4484      4482      4485      4487
      4484      4482      4485      4488      4485      4488      4491      4492
      4485      4488      4491      4493      4485      4488      4491      4494
      4486      4485      4488      4489      4486      4485      4488      4490
      4486      4485      4488      4491      4487      4485      4488      4489
      4487      4485      4488      4490      4487      4485      4488      4491
      4488      4491      4494      4495      4488      4491      4494      4496
      4488      4491      4494      4497      4489      4488      4491      4492
      4489      4488      4491      4493      4489      4488      4491      4494
      4490      4488      4491      4492      4490      4488      4491      4493
      4490      4488      4491      4494      4491      4494      4497      4498
      4491      4494      4497      4499      4491      4494      4497      4500
      4492      4491      4494      4495      4492      4491      4494      4496
      4492      4491      4494      4497      4493      4491      4494      4495
      4493      4491      4494      4496      4493      4491      4494      4497
      4494      4497      4500      4501      4494      4497      4500      4502
      4494      4497      4500      4503      4495      4494      4497      4498
      4495      4494      4497      4499      4495      4494      4497      4500
      4496      4494      4497      4498      4496      4494      4497      4499
      4496      4494      4497      4500      4497      4500      4503      4504
      4497      4500      4503      4505      4497      4500      4503      4506
      4498      4497      4500      4501      4498      4497      4500      4502
      4498      4497      4500      4503      4499      4497      4500      4501
      4499      4497      4500      4502      4499      4497      4500      4503
      4500      4503      4506      4507      4500      4503      4506      4508
      4500      4503      4506      4509      4501      4500      4503      4504
      4501      4500      4503      4505      4501      4500      4503      4506
      4502      4500      4503      4504      4502      4500      4503      4505
      4502      4500      4503      4506      4503      4506      4509      4510
      4503      4506      4509      4511      4503      4506      4509      4512
      4504      4503      4506      4507      4504      4503      4506      4508
      4504      4503      4506      4509      4505      4503      4506      4507
      4505      4503      4506      4508      4505      4503      4506      4509
      4506      4509      4512      4513      4506      4509      4512      4514
      4506      4509      4512      4515      4507      4506      4509      4510
      4507      4506      4509      4511      4507      4506      4509      4512
      4508      4506      4509      4510      4508      4506      4509      4511
      4508      4506      4509      4512      4509      4512      4515      4516
      4509      4512      4515      4517      4509      4512      4515      4518
      4510      4509      4512      4513      4510      4509      4512      4514
      4510      4509      4512      4515      4511      4509      4512      4513
      4511      4509      4512      4514      4511      4509      4512      4515
      4513      4512      4515      4516      4513      4512      4515      4517
      4513      4512      4515      4518      4514      4512      4515      4516
      4514      4512      4515      4517      4514      4512      4515      4518
      4519      4520      4535      4536      4519      4520      4535      4537
      4519      4520      4535      4541      4520      4519      4523      4524
      4520      4519      4523      4525      4520      4519      4523      4526
      4520      4519      4527      4528      4520      4519      4527      4529
      4520      4519      4527      4530      4520      4519      4531      4532
      4520      4519      4531      4533      4520      4519      4531      4534
      4520      4535      4541      4538      4521      4520      4519      4523
      4521      4520      4519      4527      4521      4520      4519      4531
      4521      4520      4535      4536      4521      4520      4535      4537
      4521      4520      4535      4541      4522      4520      4519      4523
      4522      4520      4519      4527      4522      4520      4519      4531
      4522      4520      4535      4536      4522      4520      4535      4537
      4522      4520      4535      4541      4523      4519      4520      4535
      4523      4519      4527      4528      4523      4519      4527      4529
      4523      4519      4527      4530      4523      4519      4531      4532
      4523      4519      4531      4533      4523      4519      4531      4534
      4524      4523      4519      4527      4524      4523      4519      4531
      4525      4523      4519      4527      4525      4523      4519      4531
      4526      4523      4519      4527      4526      4523      4519      4531
      4527      4519      4520      4535      4527      4519      4531      4532
      4527      4519      4531      4533      4527      4519      4531      4534
      4528      4527      4519      4531      4529      4527      4519      4531
      4530      4527      4519      4531      4531      4519      4520      4535
      4535      4541      4538      4539      4535      4541      4538      4540
      4535      4541      4538      4542      4536      4535      4541      4538
      4537      4535      4541      4538      4538      4542      4543      4544
      4538      4542      4543      4545      4538      4542      4543      4546
      4539      4538      4542      4543      4540      4538      4542      4543
      4541      4538      4542      4543      4542      4543      4546      4547
      4542      4543      4546      4548      4542      4543      4546      4554
      4543      4546      4548      4549      4543      4546      4554      4555
      4543      4546      4554      4556      4543      4546      4554      4557
      4544      4543      4546      4547      4544      4543      4546      4548
      4544      4543      4546      4554      4545      4543      4546      4547
      4545      4543      4546      4548      4545      4543      4546      4554
      4546      4548      4549      4550      4546      4548      4549      4551
      4546      4554      4557      4558      4547      4546      4548      4549
      4547      4546      4554      4555      4547      4546      4554      4556
      4547      4546      4554      4557      4548      4546      4554      4555
      4548      4546      4554      4556      4548      4546      4554      4557
      4548      4549      4551      4552      4548      4549      4551      4553
      4548      4549      4551      4563      4549      4548      4546      4554
      4549      4551      4563      4564      4549      4551      4563      4565
      4549      4551      4563      4566      4550      4549      4551      4552
      4550      4549      4551      4553      4550      4549      4551      4563
      4551      4563      4566      4567      4551      4563      4566      4568
      4551      4563      4566      4569      4552      4551      4563      4564
      4552      4551      4563      4565      4552      4551      4563      4566
      4553      4551      4563      4564      4553      4551      4563      4565
      4553      4551      4563      4566      4554      4557      4558      4559
      4554      4557      4558      4560      4555      4554      4557      4558
      4556      4554      4557      4558      4557      4558      4560      4561
      4557      4558      4560      4562      4557      4558      4560      4610
      4558      4560      4610      4611      4558      4560      4610      4612
      4558      4560      4610      4613      4559      4558      4560      4561
      4559      4558      4560      4562      4559      4558      4560      4610
      4560      4610      4613      4614      4560      4610      4613      4615
      4560      4610      4613      4616      4561      4560      4610      4611
      4561      4560      4610      4612      4561      4560      4610      4613
      4562      4560      4610      4611      4562      4560      4610      4612
      4562      4560      4610      4613      4563      4566      4569      4570
      4563      4566      4569      4571      4563      4566      4569      4572
      4564      4563      4566      4567      4564      4563      4566      4568
      4564      4563      4566      4569      4565      4563      4566      4567
      4565      4563      4566      4568      4565      4563      4566      4569
      4566      4569      4572      4573      4566      4569      4572      4574
      4566      4569      4572      4575      4567      4566      4569      4570
      4567      4566      4569      4571      4567      4566      4569      4572
      4568      4566      4569      4570      4568      4566      4569      4571
      4568      4566      4569      4572      4569      4572      4575      4576
      4569      4572      4575      4577      4569      4572      4575      4578
      4570      4569      4572      4573      4570      4569      4572      4574
      4570      4569      4572      4575      4571      4569      4572      4573
      4571      4569      4572      4574      4571      4569      4572      4575
      4572      4575      4578      4579      4572      4575      4578      4580
      4572      4575      4578      4581      4573      4572      4575      4576
      4573      4572      4575      4577      4573      4572      4575      4578
      4574      4572      4575      4576      4574      4572      4575      4577
      4574      4572      4575      4578      4575      4578      4581      4582
      4575      4578      4581      4583      4576      4575      4578      4579
      4576      4575      4578      4580      4576      4575      4578      4581
      4577      4575      4578      4579      4577      4575      4578      4580
      4577      4575      4578      4581      4578      4581      4583      4584
      4578      4581      4583      4585      4579      4578      4581      4582
      4579      4578      4581      4583      4580      4578      4581      4582
      4580      4578      4581      4583      4581      4583      4585      4586
      4581      4583      4585      4587      4581      4583      4585      4588
      4582      4581      4583      4584      4582      4581      4583      4585
      4583      4585      4588      4589      4583      4585      4588      4590
      4583      4585      4588      4591      4584      4583      4585      4586
      4584      4583      4585      4587      4584      4583      4585      4588
      4585      4588      4591      4592      4585      4588      4591      4593
      4585      4588      4591      4594      4586      4585      4588      4589
      4586      4585      4588      4590      4586      4585      4588      4591
      4587      4585      4588      4589      4587      4585      4588      4590
      4587      4585      4588      4591      4588      4591      4594      4595
      4588      4591      4594      4596      4588      4591      4594      4597
      4589      4588      4591      4592      4589      4588      4591      4593
      4589      4588      4591      4594      4590      4588      4591      4592
      4590      4588      4591      4593      4590      4588      4591      4594
      4591      4594      4597      4598      4591      4594      4597      4599
      4591      4594      4597      4600      4592      4591      4594      4595
      4592      4591      4594      4596      4592      4591      4594      4597
      4593      4591      4594      4595      4593      4591      4594      4596
      4593      4591      4594      4597      4594      4597      4600      4601
      4594      4597      4600      4602      4594      4597      4600      4603
      4595      4594      4597      4598      4595      4594      4597      4599
      4595      4594      4597      4600      4596      4594      4597      4598
      4596      4594      4597      4599      4596      4594      4597      4600
      4597      4600      4603      4604      4597      4600      4603      4605
      4597      4600      4603      4606      4598      4597      4600      4601
      4598      4597      4600      4602      4598      4597      4600      4603
      4599      4597      4600      4601      4599      4597      4600      4602
      4599      4597      4600      4603      4600      4603      4606      4607
      4600      4603      4606      4608      4600      4603      4606      4609
      4601      4600      4603      4604      4601      4600      4603      4605
      4601      4600      4603      4606      4602      4600      4603      4604
      4602      4600      4603      4605      4602      4600      4603      4606
      4604      4603      4606      4607      4604      4603      4606      4608
      4604      4603      4606      4609      4605      4603      4606      4607
      4605      4603      4606      4608      4605      4603      4606      4609
      4610      4613      4616      4617      4610      4613      4616      4618
      4610      4613      4616      4619      4611      4610      4613      4614
      4611      4610      4613      4615      4611      4610      4613      4616
      4612      4610      4613      4614      4612      4610      4613      4615
      4612      4610      4613      4616      4613      4616      4619      4620
      4613      4616      4619      4621      4613      4616      4619      4622
      4614      4613      4616      4617      4614      4613      4616      4618
      4614      4613      4616      4619      4615      4613      4616      4617
      4615      4613      4616      4618      4615      4613      4616      4619
      4616      4619      4622      4623      4616      4619      4622      4624
      4616      4619      4622      4625      4617      4616      4619      4620
      4617      4616      4619      4621      4617      4616      4619      4622
      4618      4616      4619      4620      4618      4616      4619      4621
      4618      4616      4619      4622      4619      4622      4625      4626
      4619      4622      4625      4627      4619      4622      4625      4628
      4620      4619      4622      4623      4620      4619      4622      4624
      4620      4619      4622      4625      4621      4619      4622      4623
      4621      4619      4622      4624      4621      4619      4622      4625
      4622      4625      4628      4629      4622      4625      4628      4630
      4622      4625      4628      4631      4623      4622      4625      4626
      4623      4622      4625      4627      4623      4622      4625      4628
      4624      4622      4625      4626      4624      4622      4625      4627
      4624      4622      4625      4628      4625      4628      4631      4632
      4625      4628      4631      4633      4625      4628      4631      4634
      4626      4625      4628      4629      4626      4625      4628      4630
      4626      4625      4628      4631      4627      4625      4628      4629
      4627      4625      4628      4630      4627      4625      4628      4631
      4628      4631      4634      4635      4628      4631      4634      4636
      4628      4631      4634      4637      4629      4628      4631      4632
      4629      4628      4631      4633      4629      4628      4631      4634
      4630      4628      4631      4632      4630      4628      4631      4633
      4630      4628      4631      4634      4631      4634      4637      4638
      4631      4634      4637      4639      4631      4634      4637      4640
      4632      4631      4634      4635      4632      4631      4634      4636
      4632      4631      4634      4637      4633      4631      4634      4635
      4633      4631      4634      4636      4633      4631      4634      4637
      4634      4637      4640      4641      4634      4637      4640      4642
      4634      4637      4640      4643      4635      4634      4637      4638
      4635      4634      4637      4639      4635      4634      4637      4640
      4636      4634      4637      4638      4636      4634      4637      4639
      4636      4634      4637      4640      4637      4640      4643      4644
      4637      4640      4643      4645      4637      4640      4643      4646
      4638      4637      4640      4641      4638      4637      4640      4642
      4638      4637      4640      4643      4639      4637      4640      4641
      4639      4637      4640      4642      4639      4637      4640      4643
      4640      4643      4646      4647      4640      4643      4646      4648
      4640      4643      4646      4649      4641      4640      4643      4644
      4641      4640      4643      4645      4641      4640      4643      4646
      4642      4640      4643      4644      4642      4640      4643      4645
      4642      4640      4643      4646      4643      4646      4649      4650
      4643      4646      4649      4651      4643      4646      4649      4652
      4644      4643      4646      4647      4644      4643      4646      4648
      4644      4643      4646      4649      4645      4643      4646      4647
      4645      4643      4646      4648      4645      4643      4646      4649
      4647      4646      4649      4650      4647      4646      4649      4651
      4647      4646      4649      4652      4648      4646      4649      4650
      4648      4646      4649      4651      4648      4646      4649      4652
      4653      4654      4669      4670      4653      4654      4669      4671
      4653      4654      4669      4675      4654      4653      4657      4658
      4654      4653      4657      4659      4654      4653      4657      4660
      4654      4653      4661      4662      4654      4653      4661      4663
      4654      4653      4661      4664      4654      4653      4665      4666
      4654      4653      4665      4667      4654      4653      4665      4668
      4654      4669      4675      4672      4655      4654      4653      4657
      4655      4654      4653      4661      4655      4654      4653      4665
      4655      4654      4669      4670      4655      4654      4669      4671
      4655      4654      4669      4675      4656      4654      4653      4657
      4656      4654      4653      4661      4656      4654      4653      4665
      4656      4654      4669      4670      4656      4654      4669      4671
      4656      4654      4669      4675      4657      4653      4654      4669
      4657      4653      4661      4662      4657      4653      4661      4663
      4657      4653      4661      4664      4657      4653      4665      4666
      4657      4653      4665      4667      4657      4653      4665      4668
      4658      4657      4653      4661      4658      4657      4653      4665
      4659      4657      4653      4661      4659      4657      4653      4665
      4660      4657      4653      4661      4660      4657      4653      4665
      4661      4653      4654      4669      4661      4653      4665      4666
      4661      4653      4665      4667      4661      4653      4665      4668
      4662      4661      4653      4665      4663      4661      4653      4665
      4664      4661      4653      4665      4665      4653      4654      4669
      4669      4675      4672      4673      4669      4675      4672      4674
      4669      4675      4672      4676      4670      4669      4675      4672
      4671      4669      4675      4672      4672      4676      4677      4678
      4672      4676      4677      4679      4672      4676      4677      4680
      4673      4672      4676      4677      4674      4672      4676      4677
      4675      4672      4676      4677      4676      4677      4680      4681
      4676      4677      4680      4682      4676      4677      4680      4688
      4677      4680      4682      4683      4677      4680      4688      4689
      4677      4680      4688      4690      4677      4680      4688      4691
      4678      4677      4680      4681      4678      4677      4680      4682
      4678      4677      4680      4688      4679      4677      4680      4681
      4679      4677      4680      4682      4679      4677      4680      4688
      4680      4682      4683      4684      4680      4682      4683      4685
      4680      4688      4691      4692      4681      4680      4682      4683
      4681      4680      4688      4689      4681      4680      4688      4690
      4681      4680      4688      4691      4682      4680      4688      4689
      4682      4680      4688      4690      4682      4680      4688      4691
      4682      4683      4685      4686      4682      4683      4685      4687
      4682      4683      4685      4697      4683      4682      4680      4688
      4683      4685      4697      4698      4683      4685      4697      4699
      4683      4685      4697      4700      4684      4683      4685      4686
      4684      4683      4685      4687      4684      4683      4685      4697
      4685      4697      4700      4701      4685      4697      4700      4702
      4685      4697      4700      4703      4686      4685      4697      4698
      4686      4685      4697      4699      4686      4685      4697      4700
      4687      4685      4697      4698      4687      4685      4697      4699
      4687      4685      4697      4700      4688      4691      4692      4693
      4688      4691      4692      4694      4689      4688      4691      4692
      4690      4688      4691      4692      4691      4692      4694      4695
      4691      4692      4694      4696      4691      4692      4694      4744
      4692      4694      4744      4745      4692      4694      4744      4746
      4692      4694      4744      4747      4693      4692      4694      4695
      4693      4692      4694      4696      4693      4692      4694      4744
      4694      4744      4747      4748      4694      4744      4747      4749
      4694      4744      4747      4750      4695      4694      4744      4745
      4695      4694      4744      4746      4695      4694      4744      4747
      4696      4694      4744      4745      4696      4694      4744      4746
      4696      4694      4744      4747      4697      4700      4703      4704
      4697      4700      4703      4705      4697      4700      4703      4706
      4698      4697      4700      4701      4698      4697      4700      4702
      4698      4697      4700      4703      4699      4697      4700      4701
      4699      4697      4700      4702      4699      4697      4700      4703
      4700      4703      4706      4707      4700      4703      4706      4708
      4700      4703      4706      4709      4701      4700      4703      4704
      4701      4700      4703      4705      4701      4700      4703      4706
      4702      4700      4703      4704      4702      4700      4703      4705
      4702      4700      4703      4706      4703      4706      4709      4710
      4703      4706      4709      4711      4703      4706      4709      4712
      4704      4703      4706      4707      4704      4703      4706      4708
      4704      4703      4706      4709      4705      4703      4706      4707
      4705      4703      4706      4708      4705      4703      4706      4709
      4706      4709      4712      4713      4706      4709      4712      4714
      4706      4709      4712      4715      4707      4706      4709      4710
      4707      4706      4709      4711      4707      4706      4709      4712
      4708      4706      4709      4710      4708      4706      4709      4711
      4708      4706      4709      4712      4709      4712      4715      4716
      4709      4712      4715      4717      4710      4709      4712      4713
      4710      4709      4712      4714      4710      4709      4712      4715
      4711      4709      4712      4713      4711      4709      4712      4714
      4711      4709      4712      4715      4712      4715      4717      4718
      4712      4715      4717      4719      4713      4712      4715      4716
      4713      4712      4715      4717      4714      4712      4715      4716
      4714      4712      4715      4717      4715      4717      4719      4720
      4715      4717      4719      4721      4715      4717      4719      4722
      4716      4715      4717      4718      4716      4715      4717      4719
      4717      4719      4722      4723      4717      4719      4722      4724
      4717      4719      4722      4725      4718      4717      4719      4720
      4718      4717      4719      4721      4718      4717      4719      4722
      4719      4722      4725      4726      4719      4722      4725      4727
      4719      4722      4725      4728      4720      4719      4722      4723
      4720      4719      4722      4724      4720      4719      4722      4725
      4721      4719      4722      4723      4721      4719      4722      4724
      4721      4719      4722      4725      4722      4725      4728      4729
      4722      4725      4728      4730      4722      4725      4728      4731
      4723      4722      4725      4726      4723      4722      4725      4727
      4723      4722      4725      4728      4724      4722      4725      4726
      4724      4722      4725      4727      4724      4722      4725      4728
      4725      4728      4731      4732      4725      4728      4731      4733
      4725      4728      4731      4734      4726      4725      4728      4729
      4726      4725      4728      4730      4726      4725      4728      4731
      4727      4725      4728      4729      4727      4725      4728      4730
      4727      4725      4728      4731      4728      4731      4734      4735
      4728      4731      4734      4736      4728      4731      4734      4737
      4729      4728      4731      4732      4729      4728      4731      4733
      4729      4728      4731      4734      4730      4728      4731      4732
      4730      4728      4731      4733      4730      4728      4731      4734
      4731      4734      4737      4738      4731      4734      4737      4739
      4731      4734      4737      4740      4732      4731      4734      4735
      4732      4731      4734      4736      4732      4731      4734      4737
      4733      4731      4734      4735      4733      4731      4734      4736
      4733      4731      4734      4737      4734      4737      4740      4741
      4734      4737      4740      4742      4734      4737      4740      4743
      4735      4734      4737      4738      4735      4734      4737      4739
      4735      4734      4737      4740      4736      4734      4737      4738
      4736      4734      4737      4739      4736      4734      4737      4740
      4738      4737      4740      4741      4738      4737      4740      4742
      4738      4737      4740      4743      4739      4737      4740      4741
      4739      4737      4740      4742      4739      4737      4740      4743
      4744      4747      4750      4751      4744      4747      4750      4752
      4744      4747      4750      4753      4745      4744      4747      4748
      4745      4744      4747      4749      4745      4744      4747      4750
      4746      4744      4747      4748      4746      4744      4747      4749
      4746      4744      4747      4750      4747      4750      4753      4754
      4747      4750      4753      4755      4747      4750      4753      4756
      4748      4747      4750      4751      4748      4747      4750      4752
      4748      4747      4750      4753      4749      4747      4750      4751
      4749      4747      4750      4752      4749      4747      4750      4753
      4750      4753      4756      4757      4750      4753      4756      4758
      4750      4753      4756      4759      4751      4750      4753      4754
      4751      4750      4753      4755      4751      4750      4753      4756
      4752      4750      4753      4754      4752      4750      4753      4755
      4752      4750      4753      4756      4753      4756      4759      4760
      4753      4756      4759      4761      4753      4756      4759      4762
      4754      4753      4756      4757      4754      4753      4756      4758
      4754      4753      4756      4759      4755      4753      4756      4757
      4755      4753      4756      4758      4755      4753      4756      4759
      4756      4759      4762      4763      4756      4759      4762      4764
      4756      4759      4762      4765      4757      4756      4759      4760
      4757      4756      4759      4761      4757      4756      4759      4762
      4758      4756      4759      4760      4758      4756      4759      4761
      4758      4756      4759      4762      4759      4762      4765      4766
      4759      4762      4765      4767      4759      4762      4765      4768
      4760      4759      4762      4763      4760      4759      4762      4764
      4760      4759      4762      4765      4761      4759      4762      4763
      4761      4759      4762      4764      4761      4759      4762      4765
      4762      4765      4768      4769      4762      4765      4768      4770
      4762      4765      4768      4771      4763      4762      4765      4766
      4763      4762      4765      4767      4763      4762      4765      4768
      4764      4762      4765      4766      4764      4762      4765      4767
      4764      4762      4765      4768      4765      4768      4771      4772
      4765      4768      4771      4773      4765      4768      4771      4774
      4766      4765      4768      4769      4766      4765      4768      4770
      4766      4765      4768      4771      4767      4765      4768      4769
      4767      4765      4768      4770      4767      4765      4768      4771
      4768      4771      4774      4775      4768      4771      4774      4776
      4768      4771      4774      4777      4769      4768      4771      4772
      4769      4768      4771      4773      4769      4768      4771      4774
      4770      4768      4771      4772      4770      4768      4771      4773
      4770      4768      4771      4774      4771      4774      4777      4778
      4771      4774      4777      4779      4771      4774      4777      4780
      4772      4771      4774      4775      4772      4771      4774      4776
      4772      4771      4774      4777      4773      4771      4774      4775
      4773      4771      4774      4776      4773      4771      4774      4777
      4774      4777      4780      4781      4774      4777      4780      4782
      4774      4777      4780      4783      4775      4774      4777      4778
      4775      4774      4777      4779      4775      4774      4777      4780
      4776      4774      4777      4778      4776      4774      4777      4779
      4776      4774      4777      4780      4777      4780      4783      4784
      4777      4780      4783      4785      4777      4780      4783      4786
      4778      4777      4780      4781      4778      4777      4780      4782
      4778      4777      4780      4783      4779      4777      4780      4781
      4779      4777      4780      4782      4779      4777      4780      4783
      4781      4780      4783      4784      4781      4780      4783      4785
      4781      4780      4783      4786      4782      4780      4783      4784
      4782      4780      4783      4785      4782      4780      4783      4786
      4787      4788      4803      4804      4787      4788      4803      4805
      4787      4788      4803      4809      4788      4787      4791      4792
      4788      4787      4791      4793      4788      4787      4791      4794
      4788      4787      4795      4796      4788      4787      4795      4797
      4788      4787      4795      4798      4788      4787      4799      4800
      4788      4787      4799      4801      4788      4787      4799      4802
      4788      4803      4809      4806      4789      4788      4787      4791
      4789      4788      4787      4795      4789      4788      4787      4799
      4789      4788      4803      4804      4789      4788      4803      4805
      4789      4788      4803      4809      4790      4788      4787      4791
      4790      4788      4787      4795      4790      4788      4787      4799
      4790      4788      4803      4804      4790      4788      4803      4805
      4790      4788      4803      4809      4791      4787      4788      4803
      4791      4787      4795      4796      4791      4787      4795      4797
      4791      4787      4795      4798      4791      4787      4799      4800
      4791      4787      4799      4801      4791      4787      4799      4802
      4792      4791      4787      4795      4792      4791      4787      4799
      4793      4791      4787      4795      4793      4791      4787      4799
      4794      4791      4787      4795      4794      4791      4787      4799
      4795      4787      4788      4803      4795      4787      4799      4800
      4795      4787      4799      4801      4795      4787      4799      4802
      4796      4795      4787      4799      4797      4795      4787      4799
      4798      4795      4787      4799      4799      4787      4788      4803
      4803      4809      4806      4807      4803      4809      4806      4808
      4803      4809      4806      4810      4804      4803      4809      4806
      4805      4803      4809      4806      4806      4810      4811      4812
      4806      4810      4811      4813      4806      4810      4811      4814
      4807      4806      4810      4811      4808      4806      4810      4811
      4809      4806      4810      4811      4810      4811      4814      4815
      4810      4811      4814      4816      4810      4811      4814      4822
      4811      4814      4816      4817      4811      4814      4822      4823
      4811      4814      4822      4824      4811      4814      4822      4825
      4812      4811      4814      4815      4812      4811      4814      4816
      4812      4811      4814      4822      4813      4811      4814      4815
      4813      4811      4814      4816      4813      4811      4814      4822
      4814      4816      4817      4818      4814      4816      4817      4819
      4814      4822      4825      4826      4815      4814      4816      4817
      4815      4814      4822      4823      4815      4814      4822      4824
      4815      4814      4822      4825      4816      4814      4822      4823
      4816      4814      4822      4824      4816      4814      4822      4825
      4816      4817      4819      4820      4816      4817      4819      4821
      4816      4817      4819      4831      4817      4816      4814      4822
      4817      4819      4831      4832      4817      4819      4831      4833
      4817      4819      4831      4834      4818      4817      4819      4820
      4818      4817      4819      4821      4818      4817      4819      4831
      4819      4831      4834      4835      4819      4831      4834      4836
      4819      4831      4834      4837      4820      4819      4831      4832
      4820      4819      4831      4833      4820      4819      4831      4834
      4821      4819      4831      4832      4821      4819      4831      4833
      4821      4819      4831      4834      4822      4825      4826      4827
      4822      4825      4826      4828      4823      4822      4825      4826
      4824      4822      4825      4826      4825      4826      4828      4829
      4825      4826      4828      4830      4825      4826      4828      4878
      4826      4828      4878      4879      4826      4828      4878      4880
      4826      4828      4878      4881      4827      4826      4828      4829
      4827      4826      4828      4830      4827      4826      4828      4878
      4828      4878      4881      4882      4828      4878      4881      4883
      4828      4878      4881      4884      4829      4828      4878      4879
      4829      4828      4878      4880      4829      4828      4878      4881
      4830      4828      4878      4879      4830      4828      4878      4880
      4830      4828      4878      4881      4831      4834      4837      4838
      4831      4834      4837      4839      4831      4834      4837      4840
      4832      4831      4834      4835      4832      4831      4834      4836
      4832      4831      4834      4837      4833      4831      4834      4835
      4833      4831      4834      4836      4833      4831      4834      4837
      4834      4837      4840      4841      4834      4837      4840      4842
      4834      4837      4840      4843      4835      4834      4837      4838
      4835      4834      4837      4839      4835      4834      4837      4840
      4836      4834      4837      4838      4836      4834      4837      4839
      4836      4834      4837      4840      4837      4840      4843      4844
      4837      4840      4843      4845      4837      4840      4843      4846
      4838      4837      4840      4841      4838      4837      4840      4842
      4838      4837      4840      4843      4839      4837      4840      4841
      4839      4837      4840      4842      4839      4837      4840      4843
      4840      4843      4846      4847      4840      4843      4846      4848
      4840      4843      4846      4849      4841      4840      4843      4844
      4841      4840      4843      4845      4841      4840      4843      4846
      4842      4840      4843      4844      4842      4840      4843      4845
      4842      4840      4843      4846      4843      4846      4849      4850
      4843      4846      4849      4851      4844      4843      4846      4847
      4844      4843      4846      4848      4844      4843      4846      4849
      4845      4843      4846      4847      4845      4843      4846      4848
      4845      4843      4846      4849      4846      4849      4851      4852
      4846      4849      4851      4853      4847      4846      4849      4850
      4847      4846      4849      4851      4848      4846      4849      4850
      4848      4846      4849      4851      4849      4851      4853      4854
      4849      4851      4853      4855      4849      4851      4853      4856
      4850      4849      4851      4852      4850      4849      4851      4853
      4851      4853      4856      4857      4851      4853      4856      4858
      4851      4853      4856      4859      4852      4851      4853      4854
      4852      4851      4853      4855      4852      4851      4853      4856
      4853      4856      4859      4860      4853      4856      4859      4861
      4853      4856      4859      4862      4854      4853      4856      4857
      4854      4853      4856      4858      4854      4853      4856      4859
      4855      4853      4856      4857      4855      4853      4856      4858
      4855      4853      4856      4859      4856      4859      4862      4863
      4856      4859      4862      4864      4856      4859      4862      4865
      4857      4856      4859      4860      4857      4856      4859      4861
      4857      4856      4859      4862      4858      4856      4859      4860
      4858      4856      4859      4861      4858      4856      4859      4862
      4859      4862      4865      4866      4859      4862      4865      4867
      4859      4862      4865      4868      4860      4859      4862      4863
      4860      4859      4862      4864      4860      4859      4862      4865
      4861      4859      4862      4863      4861      4859      4862      4864
      4861      4859      4862      4865      4862      4865      4868      4869
      4862      4865      4868      4870      4862      4865      4868      4871
      4863      4862      4865      4866      4863      4862      4865      4867
      4863      4862      4865      4868      4864      4862      4865      4866
      4864      4862      4865      4867      4864      4862      4865      4868
      4865      4868      4871      4872      4865      4868      4871      4873
      4865      4868      4871      4874      4866      4865      4868      4869
      4866      4865      4868      4870      4866      4865      4868      4871
      4867      4865      4868      4869      4867      4865      4868      4870
      4867      4865      4868      4871      4868      4871      4874      4875
      4868      4871      4874      4876      4868      4871      4874      4877
      4869      4868      4871      4872      4869      4868      4871      4873
      4869      4868      4871      4874      4870      4868      4871      4872
      4870      4868      4871      4873      4870      4868      4871      4874
      4872      4871      4874      4875      4872      4871      4874      4876
      4872      4871      4874      4877      4873      4871      4874      4875
      4873      4871      4874      4876      4873      4871      4874      4877
      4878      4881      4884      4885      4878      4881      4884      4886
      4878      4881      4884      4887      4879      4878      4881      4882
      4879      4878      4881      4883      4879      4878      4881      4884
      4880      4878      4881      4882      4880      4878      4881      4883
      4880      4878      4881      4884      4881      4884      4887      4888
      4881      4884      4887      4889      4881      4884      4887      4890
      4882      4881      4884      4885      4882      4881      4884      4886
      4882      4881      4884      4887      4883      4881      4884      4885
      4883      4881      4884      4886      4883      4881      4884      4887
      4884      4887      4890      4891      4884      4887      4890      4892
      4884      4887      4890      4893      4885      4884      4887      4888
      4885      4884      4887      4889      4885      4884      4887      4890
      4886      4884      4887      4888      4886      4884      4887      4889
      4886      4884      4887      4890      4887      4890      4893      4894
      4887      4890      4893      4895      4887      4890      4893      4896
      4888      4887      4890      4891      4888      4887      4890      4892
      4888      4887      4890      4893      4889      4887      4890      4891
      4889      4887      4890      4892      4889      4887      4890      4893
      4890      4893      4896      4897      4890      4893      4896      4898
      4890      4893      4896      4899      4891      4890      4893      4894
      4891      4890      4893      4895      4891      4890      4893      4896
      4892      4890      4893      4894      4892      4890      4893      4895
      4892      4890      4893      4896      4893      4896      4899      4900
      4893      4896      4899      4901      4893      4896      4899      4902
      4894      4893      4896      4897      4894      4893      4896      4898
      4894      4893      4896      4899      4895      4893      4896      4897
      4895      4893      4896      4898      4895      4893      4896      4899
      4896      4899      4902      4903      4896      4899      4902      4904
      4896      4899      4902      4905      4897      4896      4899      4900
      4897      4896      4899      4901      4897      4896      4899      4902
      4898      4896      4899      4900      4898      4896      4899      4901
      4898      4896      4899      4902      4899      4902      4905      4906
      4899      4902      4905      4907      4899      4902      4905      4908
      4900      4899      4902      4903      4900      4899      4902      4904
      4900      4899      4902      4905      4901      4899      4902      4903
      4901      4899      4902      4904      4901      4899      4902      4905
      4902      4905      4908      4909      4902      4905      4908      4910
      4902      4905      4908      4911      4903      4902      4905      4906
      4903      4902      4905      4907      4903      4902      4905      4908
      4904      4902      4905      4906      4904      4902      4905      4907
      4904      4902      4905      4908      4905      4908      4911      4912
      4905      4908      4911      4913      4905      4908      4911      4914
      4906      4905      4908      4909      4906      4905      4908      4910
      4906      4905      4908      4911      4907      4905      4908      4909
      4907      4905      4908      4910      4907      4905      4908      4911
      4908      4911      4914      4915      4908      4911      4914      4916
      4908      4911      4914      4917      4909      4908      4911      4912
      4909      4908      4911      4913      4909      4908      4911      4914
      4910      4908      4911      4912      4910      4908      4911      4913
      4910      4908      4911      4914      4911      4914      4917      4918
      4911      4914      4917      4919      4911      4914      4917      4920
      4912      4911      4914      4915      4912      4911      4914      4916
      4912      4911      4914      4917      4913      4911      4914      4915
      4913      4911      4914      4916      4913      4911      4914      4917
      4915      4914      4917      4918      4915      4914      4917      4919
      4915      4914      4917      4920      4916      4914      4917      4918
      4916      4914      4917      4919      4916      4914      4917      4920
      4921      4925      4928      4929      4921      4925      4928      4930
      4921      4925      4928      4935      4922      4921      4925      4926
      4922      4921      4925      4927      4922      4921      4925      4928
      4923      4921      4925      4926      4923      4921      4925      4927
      4923      4921      4925      4928      4924      4921      4925      4926
      4924      4921      4925      4927      4924      4921      4925      4928
      4925      4928      4935      4931      4926      4925      4928      4929
      4926      4925      4928      4930      4926      4925      4928      4935
      4927      4925      4928      4929      4927      4925      4928      4930
      4927      4925      4928      4935      4928      4935      4931      4932
      4928      4935      4931      4933      4928      4935      4931      4934
      4929      4928      4935      4931      4930      4928      4935      4931
      4931      4934      4936      4937      4931      4934      4936      4938
      4931      4934      4936      4939      4932      4931      4934      4936
      4933      4931      4934      4936      4934      4936      4939      4940
      4934      4936      4939      4941      4934      4936      4939      4947
      4935      4931      4934      4936      4936      4939      4941      4942
      4936      4939      4947      4948      4936      4939      4947      4949
      4936      4939      4947      4950      4937      4936      4939      4940
      4937      4936      4939      4941      4937      4936      4939      4947
      4938      4936      4939      4940      4938      4936      4939      4941
      4938      4936      4939      4947      4939      4941      4942      4943
      4939      4941      4942      4944      4939      4947      4950      4951
      4940      4939      4941      4942      4940      4939      4947      4948
      4940      4939      4947      4949      4940      4939      4947      4950
      4941      4939      4947      4948      4941      4939      4947      4949
      4941      4939      4947      4950      4941      4942      4944      4945
      4941      4942      4944      4946      4941      4942      4944      4956
      4942      4941      4939      4947      4942      4944      4956      4957
      4942      4944      4956      4958      4942      4944      4956      4959
      4943      4942      4944      4945      4943      4942      4944      4946
      4943      4942      4944      4956      4944      4956      4959      4960
      4944      4956      4959      4961      4944      4956      4959      4962
      4945      4944      4956      4957      4945      4944      4956      4958
      4945      4944      4956      4959      4946      4944      4956      4957
      4946      4944      4956      4958      4946      4944      4956      4959
      4947      4950      4951      4952      4947      4950      4951      4953
      4948      4947      4950      4951      4949      4947      4950      4951
      4950      4951      4953      4954      4950      4951      4953      4955
      4950      4951      4953      5003      4951      4953      5003      5004
      4951      4953      5003      5005      4951      4953      5003      5006
      4952      4951      4953      4954      4952      4951      4953      4955
      4952      4951      4953      5003      4953      5003      5006      5007
      4953      5003      5006      5008      4953      5003      5006      5009
      4954      4953      5003      5004      4954      4953      5003      5005
      4954      4953      5003      5006      4955      4953      5003      5004
      4955      4953      5003      5005      4955      4953      5003      5006
      4956      4959      4962      4963      4956      4959      4962      4964
      4956      4959      4962      4965      4957      4956      4959      4960
      4957      4956      4959      4961      4957      4956      4959      4962
      4958      4956      4959      4960      4958      4956      4959      4961
      4958      4956      4959      4962      4959      4962      4965      4966
      4959      4962      4965      4967      4959      4962      4965      4968
      4960      4959      4962      4963      4960      4959      4962      4964
      4960      4959      4962      4965      4961      4959      4962      4963
      4961      4959      4962      4964      4961      4959      4962      4965
      4962      4965      4968      4969      4962      4965      4968      4970
      4962      4965      4968      4971      4963      4962      4965      4966
      4963      4962      4965      4967      4963      4962      4965      4968
      4964      4962      4965      4966      4964      4962      4965      4967
      4964      4962      4965      4968      4965      4968      4971      4972
      4965      4968      4971      4973      4965      4968      4971      4974
      4966      4965      4968      4969      4966      4965      4968      4970
      4966      4965      4968      4971      4967      4965      4968      4969
      4967      4965      4968      4970      4967      4965      4968      4971
      4968      4971      4974      4975      4968      4971      4974      4976
      4969      4968      4971      4972      4969      4968      4971      4973
      4969      4968      4971      4974      4970      4968      4971      4972
      4970      4968      4971      4973      4970      4968      4971      4974
      4971      4974      4976      4977      4971      4974      4976      4978
      4972      4971      4974      4975      4972      4971      4974      4976
      4973      4971      4974      4975      4973      4971      4974      4976
      4974      4976      4978      4979      4974      4976      4978      4980
      4974      4976      4978      4981      4975      4974      4976      4977
      4975      4974      4976      4978      4976      4978      4981      4982
      4976      4978      4981      4983      4976      4978      4981      4984
      4977      4976      4978      4979      4977      4976      4978      4980
      4977      4976      4978      4981      4978      4981      4984      4985
      4978      4981      4984      4986      4978      4981      4984      4987
      4979      4978      4981      4982      4979      4978      4981      4983
      4979      4978      4981      4984      4980      4978      4981      4982
      4980      4978      4981      4983      4980      4978      4981      4984
      4981      4984      4987      4988      4981      4984      4987      4989
      4981      4984      4987      4990      4982      4981      4984      4985
      4982      4981      4984      4986      4982      4981      4984      4987
      4983      4981      4984      4985      4983      4981      4984      4986
      4983      4981      4984      4987      4984      4987      4990      4991
      4984      4987      4990      4992      4984      4987      4990      4993
      4985      4984      4987      4988      4985      4984      4987      4989
      4985      4984      4987      4990      4986      4984      4987      4988
      4986      4984      4987      4989      4986      4984      4987      4990
      4987      4990      4993      4994      4987      4990      4993      4995
      4987      4990      4993      4996      4988      4987      4990      4991
      4988      4987      4990      4992      4988      4987      4990      4993
      4989      4987      4990      4991      4989      4987      4990      4992
      4989      4987      4990      4993      4990      4993      4996      4997
      4990      4993      4996      4998      4990      4993      4996      4999
      4991      4990      4993      4994      4991      4990      4993      4995
      4991      4990      4993      4996      4992      4990      4993      4994
      4992      4990      4993      4995      4992      4990      4993      4996
      4993      4996      4999      5000      4993      4996      4999      5001
      4993      4996      4999      5002      4994      4993      4996      4997
      4994      4993      4996      4998      4994      4993      4996      4999
      4995      4993      4996      4997      4995      4993      4996      4998
      4995      4993      4996      4999      4997      4996      4999      5000
      4997      4996      4999      5001      4997      4996      4999      5002
      4998      4996      4999      5000      4998      4996      4999      5001
      4998      4996      4999      5002      5003      5006      5009      5010
      5003      5006      5009      5011      5003      5006      5009      5012
      5004      5003      5006      5007      5004      5003      5006      5008
      5004      5003      5006      5009      5005      5003      5006      5007
      5005      5003      5006      5008      5005      5003      5006      5009
      5006      5009      5012      5013      5006      5009      5012      5014
      5006      5009      5012      5015      5007      5006      5009      5010
      5007      5006      5009      5011      5007      5006      5009      5012
      5008      5006      5009      5010      5008      5006      5009      5011
      5008      5006      5009      5012      5009      5012      5015      5016
      5009      5012      5015      5017      5009      5012      5015      5018
      5010      5009      5012      5013      5010      5009      5012      5014
      5010      5009      5012      5015      5011      5009      5012      5013
      5011      5009      5012      5014      5011      5009      5012      5015
      5012      5015      5018      5019      5012      5015      5018      5020
      5012      5015      5018      5021      5013      5012      5015      5016
      5013      5012      5015      5017      5013      5012      5015      5018
      5014      5012      5015      5016      5014      5012      5015      5017
      5014      5012      5015      5018      5015      5018      5021      5022
      5015      5018      5021      5023      5015      5018      5021      5024
      5016      5015      5018      5019      5016      5015      5018      5020
      5016      5015      5018      5021      5017      5015      5018      5019
      5017      5015      5018      5020      5017      5015      5018      5021
      5018      5021      5024      5025      5018      5021      5024      5026
      5018      5021      5024      5027      5019      5018      5021      5022
      5019      5018      5021      5023      5019      5018      5021      5024
      5020      5018      5021      5022      5020      5018      5021      5023
      5020      5018      5021      5024      5021      5024      5027      5028
      5021      5024      5027      5029      5021      5024      5027      5030
      5022      5021      5024      5025      5022      5021      5024      5026
      5022      5021      5024      5027      5023      5021      5024      5025
      5023      5021      5024      5026      5023      5021      5024      5027
      5024      5027      5030      5031      5024      5027      5030      5032
      5024      5027      5030      5033      5025      5024      5027      5028
      5025      5024      5027      5029      5025      5024      5027      5030
      5026      5024      5027      5028      5026      5024      5027      5029
      5026      5024      5027      5030      5027      5030      5033      5034
      5027      5030      5033      5035      5027      5030      5033      5036
      5028      5027      5030      5031      5028      5027      5030      5032
      5028      5027      5030      5033      5029      5027      5030      5031
      5029      5027      5030      5032      5029      5027      5030      5033
      5030      5033      5036      5037      5030      5033      5036      5038
      5030      5033      5036      5039      5031      5030      5033      5034
      5031      5030      5033      5035      5031      5030      5033      5036
      5032      5030      5033      5034      5032      5030      5033      5035
      5032      5030      5033      5036      5033      5036      5039      5040
      5033      5036      5039      5041      5033      5036      5039      5042
      5034      5033      5036      5037      5034      5033      5036      5038
      5034      5033      5036      5039      5035      5033      5036      5037
      5035      5033      5036      5038      5035      5033      5036      5039
      5036      5039      5042      5043      5036      5039      5042      5044
      5036      5039      5042      5045      5037      5036      5039      5040
      5037      5036      5039      5041      5037      5036      5039      5042
      5038      5036      5039      5040      5038      5036      5039      5041
      5038      5036      5039      5042      5040      5039      5042      5043
      5040      5039      5042      5044      5040      5039      5042      5045
      5041      5039      5042      5043      5041      5039      5042      5044
      5041      5039      5042      5045      5046      5050      5053      5054
      5046      5050      5053      5055      5046      5050      5053      5060
      5047      5046      5050      5051      5047      5046      5050      5052
      5047      5046      5050      5053      5048      5046      5050      5051
      5048      5046      5050      5052      5048      5046      5050      5053
      5049      5046      5050      5051      5049      5046      5050      5052
      5049      5046      5050      5053      5050      5053      5060      5056
      5051      5050      5053      5054      5051      5050      5053      5055
      5051      5050      5053      5060      5052      5050      5053      5054
      5052      5050      5053      5055      5052      5050      5053      5060
      5053      5060      5056      5057      5053      5060      5056      5058
      5053      5060      5056      5059      5054      5053      5060      5056
      5055      5053      5060      5056      5056      5059      5061      5062
      5056      5059      5061      5063      5056      5059      5061      5064
      5057      5056      5059      5061      5058      5056      5059      5061
      5059      5061      5064      5065      5059      5061      5064      5066
      5059      5061      5064      5072      5060      5056      5059      5061
      5061      5064      5066      5067      5061      5064      5072      5073
      5061      5064      5072      5074      5061      5064      5072      5075
      5062      5061      5064      5065      5062      5061      5064      5066
      5062      5061      5064      5072      5063      5061      5064      5065
      5063      5061      5064      5066      5063      5061      5064      5072
      5064      5066      5067      5068      5064      5066      5067      5069
      5064      5072      5075      5076      5065      5064      5066      5067
      5065      5064      5072      5073      5065      5064      5072      5074
      5065      5064      5072      5075      5066      5064      5072      5073
      5066      5064      5072      5074      5066      5064      5072      5075
      5066      5067      5069      5070      5066      5067      5069      5071
      5066      5067      5069      5081      5067      5066      5064      5072
      5067      5069      5081      5082      5067      5069      5081      5083
      5067      5069      5081      5084      5068      5067      5069      5070
      5068      5067      5069      5071      5068      5067      5069      5081
      5069      5081      5084      5085      5069      5081      5084      5086
      5069      5081      5084      5087      5070      5069      5081      5082
      5070      5069      5081      5083      5070      5069      5081      5084
      5071      5069      5081      5082      5071      5069      5081      5083
      5071      5069      5081      5084      5072      5075      5076      5077
      5072      5075      5076      5078      5073      5072      5075      5076
      5074      5072      5075      5076      5075      5076      5078      5079
      5075      5076      5078      5080      5075      5076      5078      5128
      5076      5078      5128      5129      5076      5078      5128      5130
      5076      5078      5128      5131      5077      5076      5078      5079
      5077      5076      5078      5080      5077      5076      5078      5128
      5078      5128      5131      5132      5078      5128      5131      5133
      5078      5128      5131      5134      5079      5078      5128      5129
      5079      5078      5128      5130      5079      5078      5128      5131
      5080      5078      5128      5129      5080      5078      5128      5130
      5080      5078      5128      5131      5081      5084      5087      5088
      5081      5084      5087      5089      5081      5084      5087      5090
      5082      5081      5084      5085      5082      5081      5084      5086
      5082      5081      5084      5087      5083      5081      5084      5085
      5083      5081      5084      5086      5083      5081      5084      5087
      5084      5087      5090      5091      5084      5087      5090      5092
      5084      5087      5090      5093      5085      5084      5087      5088
      5085      5084      5087      5089      5085      5084      5087      5090
      5086      5084      5087      5088      5086      5084      5087      5089
      5086      5084      5087      5090      5087      5090      5093      5094
      5087      5090      5093      5095      5087      5090      5093      5096
      5088      5087      5090      5091      5088      5087      5090      5092
      5088      5087      5090      5093      5089      5087      5090      5091
      5089      5087      5090      5092      5089      5087      5090      5093
      5090      5093      5096      5097      5090      5093      5096      5098
      5090      5093      5096      5099      5091      5090      5093      5094
      5091      5090      5093      5095      5091      5090      5093      5096
      5092      5090      5093      5094      5092      5090      5093      5095
      5092      5090      5093      5096      5093      5096      5099      5100
      5093      5096      5099      5101      5094      5093      5096      5097
      5094      5093      5096      5098      5094      5093      5096      5099
      5095      5093      5096      5097      5095      5093      5096      5098
      5095      5093      5096      5099      5096      5099      5101      5102
      5096      5099      5101      5103      5097      5096      5099      5100
      5097      5096      5099      5101      5098      5096      5099      5100
      5098      5096      5099      5101      5099      5101      5103      5104
      5099      5101      5103      5105      5099      5101      5103      5106
      5100      5099      5101      5102      5100      5099      5101      5103
      5101      5103      5106      5107      5101      5103      5106      5108
      5101      5103      5106      5109      5102      5101      5103      5104
      5102      5101      5103      5105      5102      5101      5103      5106
      5103      5106      5109      5110      5103      5106      5109      5111
      5103      5106      5109      5112      5104      5103      5106      5107
      5104      5103      5106      5108      5104      5103      5106      5109
      5105      5103      5106      5107      5105      5103      5106      5108
      5105      5103      5106      5109      5106      5109      5112      5113
      5106      5109      5112      5114      5106      5109      5112      5115
      5107      5106      5109      5110      5107      5106      5109      5111
      5107      5106      5109      5112      5108      5106      5109      5110
      5108      5106      5109      5111      5108      5106      5109      5112
      5109      5112      5115      5116      5109      5112      5115      5117
      5109      5112      5115      5118      5110      5109      5112      5113
      5110      5109      5112      5114      5110      5109      5112      5115
      5111      5109      5112      5113      5111      5109      5112      5114
      5111      5109      5112      5115      5112      5115      5118      5119
      5112      5115      5118      5120      5112      5115      5118      5121
      5113      5112      5115      5116      5113      5112      5115      5117
      5113      5112      5115      5118      5114      5112      5115      5116
      5114      5112      5115      5117      5114      5112      5115      5118
      5115      5118      5121      5122      5115      5118      5121      5123
      5115      5118      5121      5124      5116      5115      5118      5119
      5116      5115      5118      5120      5116      5115      5118      5121
      5117      5115      5118      5119      5117      5115      5118      5120
      5117      5115      5118      5121      5118      5121      5124      5125
      5118      5121      5124      5126      5118      5121      5124      5127
      5119      5118      5121      5122      5119      5118      5121      5123
      5119      5118      5121      5124      5120      5118      5121      5122
      5120      5118      5121      5123      5120      5118      5121      5124
      5122      5121      5124      5125      5122      5121      5124      5126
      5122      5121      5124      5127      5123      5121      5124      5125
      5123      5121      5124      5126      5123      5121      5124      5127
      5128      5131      5134      5135      5128      5131      5134      5136
      5128      5131      5134      5137      5129      5128      5131      5132
      5129      5128      5131      5133      5129      5128      5131      5134
      5130      5128      5131      5132      5130      5128      5131      5133
      5130      5128      5131      5134      5131      5134      5137      5138
      5131      5134      5137      5139      5131      5134      5137      5140
      5132      5131      5134      5135      5132      5131      5134      5136
      5132      5131      5134      5137      5133      5131      5134      5135
      5133      5131      5134      5136      5133      5131      5134      5137
      5134      5137      5140      5141      5134      5137      5140      5142
      5134      5137      5140      5143      5135      5134      5137      5138
      5135      5134      5137      5139      5135      5134      5137      5140
      5136      5134      5137      5138      5136      5134      5137      5139
      5136      5134      5137      5140      5137      5140      5143      5144
      5137      5140      5143      5145      5137      5140      5143      5146
      5138      5137      5140      5141      5138      5137      5140      5142
      5138      5137      5140      5143      5139      5137      5140      5141
      5139      5137      5140      5142      5139      5137      5140      5143
      5140      5143      5146      5147      5140      5143      5146      5148
      5140      5143      5146      5149      5141      5140      5143      5144
      5141      5140      5143      5145      5141      5140      5143      5146
      5142      5140      5143      5144      5142      5140      5143      5145
      5142      5140      5143      5146      5143      5146      5149      5150
      5143      5146      5149      5151      5143      5146      5149      5152
      5144      5143      5146      5147      5144      5143      5146      5148
      5144      5143      5146      5149      5145      5143      5146      5147
      5145      5143      5146      5148      5145      5143      5146      5149
      5146      5149      5152      5153      5146      5149      5152      5154
      5146      5149      5152      5155      5147      5146      5149      5150
      5147      5146      5149      5151      5147      5146      5149      5152
      5148      5146      5149      5150      5148      5146      5149      5151
      5148      5146      5149      5152      5149      5152      5155      5156
      5149      5152      5155      5157      5149      5152      5155      5158
      5150      5149      5152      5153      5150      5149      5152      5154
      5150      5149      5152      5155      5151      5149      5152      5153
      5151      5149      5152      5154      5151      5149      5152      5155
      5152      5155      5158      5159      5152      5155      5158      5160
      5152      5155      5158      5161      5153      5152      5155      5156
      5153      5152      5155      5157      5153      5152      5155      5158
      5154      5152      5155      5156      5154      5152      5155      5157
      5154      5152      5155      5158      5155      5158      5161      5162
      5155      5158      5161      5163      5155      5158      5161      5164
      5156      5155      5158      5159      5156      5155      5158      5160
      5156      5155      5158      5161      5157      5155      5158      5159
      5157      5155      5158      5160      5157      5155      5158      5161
      5158      5161      5164      5165      5158      5161      5164      5166
      5158      5161      5164      5167      5159      5158      5161      5162
      5159      5158      5161      5163      5159      5158      5161      5164
      5160      5158      5161      5162      5160      5158      5161      5163
      5160      5158      5161      5164      5161      5164      5167      5168
      5161      5164      5167      5169      5161      5164      5167      5170
      5162      5161      5164      5165      5162      5161      5164      5166
      5162      5161      5164      5167      5163      5161      5164      5165
      5163      5161      5164      5166      5163      5161      5164      5167
      5165      5164      5167      5168      5165      5164      5167      5169
      5165      5164      5167      5170      5166      5164      5167      5168
      5166      5164      5167      5169      5166      5164      5167      5170
      5171      5172      5187      5188      5171      5172      5187      5189
      5171      5172      5187      5193      5172      5171      5175      5176
      5172      5171      5175      5177      5172      5171      5175      5178
      5172      5171      5179      5180      5172      5171      5179      5181
      5172      5171      5179      5182      5172      5171      5183      5184
      5172      5171      5183      5185      5172      5171      5183      5186
      5172      5187      5193      5190      5173      5172      5171      5175
      5173      5172      5171      5179      5173      5172      5171      5183
      5173      5172      5187      5188      5173      5172      5187      5189
      5173      5172      5187      5193      5174      5172      5171      5175
      5174      5172      5171      5179      5174      5172      5171      5183
      5174      5172      5187      5188      5174      5172      5187      5189
      5174      5172      5187      5193      5175      5171      5172      5187
      5175      5171      5179      5180      5175      5171      5179      5181
      5175      5171      5179      5182      5175      5171      5183      5184
      5175      5171      5183      5185      5175      5171      5183      5186
      5176      5175      5171      5179      5176      5175      5171      5183
      5177      5175      5171      5179      5177      5175      5171      5183
      5178      5175      5171      5179      5178      5175      5171      5183
      5179      5171      5172      5187      5179      5171      5183      5184
      5179      5171      5183      5185      5179      5171      5183      5186
      5180      5179      5171      5183      5181      5179      5171      5183
      5182      5179      5171      5183      5183      5171      5172      5187
      5187      5193      5190      5191      5187      5193      5190      5192
      5187      5193      5190      5194      5188      5187      5193      5190
      5189      5187      5193      5190      5190      5194      5195      5196
      5190      5194      5195      5197      5190      5194      5195      5198
      5191      5190      5194      5195      5192      5190      5194      5195
      5193      5190      5194      5195      5194      5195      5198      5199
      5194      5195      5198      5200      5194      5195      5198      5206
      5195      5198      5200      5201      5195      5198      5206      5207
      5195      5198      5206      5208      5195      5198      5206      5209
      5196      5195      5198      5199      5196      5195      5198      5200
      5196      5195      5198      5206      5197      5195      5198      5199
      5197      5195      5198      5200      5197      5195      5198      5206
      5198      5200      5201      5202      5198      5200      5201      5203
      5198      5206      5209      5210      5199      5198      5200      5201
      5199      5198      5206      5207      5199      5198      5206      5208
      5199      5198      5206      5209      5200      5198      5206      5207
      5200      5198      5206      5208      5200      5198      5206      5209
      5200      5201      5203      5204      5200      5201      5203      5205
      5200      5201      5203      5215      5201      5200      5198      5206
      5201      5203      5215      5216      5201      5203      5215      5217
      5201      5203      5215      5218      5202      5201      5203      5204
      5202      5201      5203      5205      5202      5201      5203      5215
      5203      5215      5218      5219      5203      5215      5218      5220
      5203      5215      5218      5221      5204      5203      5215      5216
      5204      5203      5215      5217      5204      5203      5215      5218
      5205      5203      5215      5216      5205      5203      5215      5217
      5205      5203      5215      5218      5206      5209      5210      5211
      5206      5209      5210      5212      5207      5206      5209      5210
      5208      5206      5209      5210      5209      5210      5212      5213
      5209      5210      5212      5214      5209      5210      5212      5262
      5210      5212      5262      5263      5210      5212      5262      5264
      5210      5212      5262      5265      5211      5210      5212      5213
      5211      5210      5212      5214      5211      5210      5212      5262
      5212      5262      5265      5266      5212      5262      5265      5267
      5212      5262      5265      5268      5213      5212      5262      5263
      5213      5212      5262      5264      5213      5212      5262      5265
      5214      5212      5262      5263      5214      5212      5262      5264
      5214      5212      5262      5265      5215      5218      5221      5222
      5215      5218      5221      5223      5215      5218      5221      5224
      5216      5215      5218      5219      5216      5215      5218      5220
      5216      5215      5218      5221      5217      5215      5218      5219
      5217      5215      5218      5220      5217      5215      5218      5221
      5218      5221      5224      5225      5218      5221      5224      5226
      5218      5221      5224      5227      5219      5218      5221      5222
      5219      5218      5221      5223      5219      5218      5221      5224
      5220      5218      5221      5222      5220      5218      5221      5223
      5220      5218      5221      5224      5221      5224      5227      5228
      5221      5224      5227      5229      5221      5224      5227      5230
      5222      5221      5224      5225      5222      5221      5224      5226
      5222      5221      5224      5227      5223      5221      5224      5225
      5223      5221      5224      5226      5223      5221      5224      5227
      5224      5227      5230      5231      5224      5227      5230      5232
      5224      5227      5230      5233      5225      5224      5227      5228
      5225      5224      5227      5229      5225      5224      5227      5230
      5226      5224      5227      5228      5226      5224      5227      5229
      5226      5224      5227      5230      5227      5230      5233      5234
      5227      5230      5233      5235      5228      5227      5230      5231
      5228      5227      5230      5232      5228      5227      5230      5233
      5229      5227      5230      5231      5229      5227      5230      5232
      5229      5227      5230      5233      5230      5233      5235      5236
      5230      5233      5235      5237      5231      5230      5233      5234
      5231      5230      5233      5235      5232      5230      5233      5234
      5232      5230      5233      5235      5233      5235      5237      5238
      5233      5235      5237      5239      5233      5235      5237      5240
      5234      5233      5235      5236      5234      5233      5235      5237
      5235      5237      5240      5241      5235      5237      5240      5242
      5235      5237      5240      5243      5236      5235      5237      5238
      5236      5235      5237      5239      5236      5235      5237      5240
      5237      5240      5243      5244      5237      5240      5243      5245
      5237      5240      5243      5246      5238      5237      5240      5241
      5238      5237      5240      5242      5238      5237      5240      5243
      5239      5237      5240      5241      5239      5237      5240      5242
      5239      5237      5240      5243      5240      5243      5246      5247
      5240      5243      5246      5248      5240      5243      5246      5249
      5241      5240      5243      5244      5241      5240      5243      5245
      5241      5240      5243      5246      5242      5240      5243      5244
      5242      5240      5243      5245      5242      5240      5243      5246
      5243      5246      5249      5250      5243      5246      5249      5251
      5243      5246      5249      5252      5244      5243      5246      5247
      5244      5243      5246      5248      5244      5243      5246      5249
      5245      5243      5246      5247      5245      5243      5246      5248
      5245      5243      5246      5249      5246      5249      5252      5253
      5246      5249      5252      5254      5246      5249      5252      5255
      5247      5246      5249      5250      5247      5246      5249      5251
      5247      5246      5249      5252      5248      5246      5249      5250
      5248      5246      5249      5251      5248      5246      5249      5252
      5249      5252      5255      5256      5249      5252      5255      5257
      5249      5252      5255      5258      5250      5249      5252      5253
      5250      5249      5252      5254      5250      5249      5252      5255
      5251      5249      5252      5253      5251      5249      5252      5254
      5251      5249      5252      5255      5252      5255      5258      5259
      5252      5255      5258      5260      5252      5255      5258      5261
      5253      5252      5255      5256      5253      5252      5255      5257
      5253      5252      5255      5258      5254      5252      5255      5256
      5254      5252      5255      5257      5254      5252      5255      5258
      5256      5255      5258      5259      5256      5255      5258      5260
      5256      5255      5258      5261      5257      5255      5258      5259
      5257      5255      5258      5260      5257      5255      5258      5261
      5262      5265      5268      5269      5262      5265      5268      5270
      5262      5265      5268      5271      5263      5262      5265      5266
      5263      5262      5265      5267      5263      5262      5265      5268
      5264      5262      5265      5266      5264      5262      5265      5267
      5264      5262      5265      5268      5265      5268      5271      5272
      5265      5268      5271      5273      5265      5268      5271      5274
      5266      5265      5268      5269      5266      5265      5268      5270
      5266      5265      5268      5271      5267      5265      5268      5269
      5267      5265      5268      5270      5267      5265      5268      5271
      5268      5271      5274      5275      5268      5271      5274      5276
      5268      5271      5274      5277      5269      5268      5271      5272
      5269      5268      5271      5273      5269      5268      5271      5274
      5270      5268      5271      5272      5270      5268      5271      5273
      5270      5268      5271      5274      5271      5274      5277      5278
      5271      5274      5277      5279      5271      5274      5277      5280
      5272      5271      5274      5275      5272      5271      5274      5276
      5272      5271      5274      5277      5273      5271      5274      5275
      5273      5271      5274      5276      5273      5271      5274      5277
      5274      5277      5280      5281      5274      5277      5280      5282
      5274      5277      5280      5283      5275      5274      5277      5278
      5275      5274      5277      5279      5275      5274      5277      5280
      5276      5274      5277      5278      5276      5274      5277      5279
      5276      5274      5277      5280      5277      5280      5283      5284
      5277      5280      5283      5285      5277      5280      5283      5286
      5278      5277      5280      5281      5278      5277      5280      5282
      5278      5277      5280      5283      5279      5277      5280      5281
      5279      5277      5280      5282      5279      5277      5280      5283
      5280      5283      5286      5287      5280      5283      5286      5288
      5280      5283      5286      5289      5281      5280      5283      5284
      5281      5280      5283      5285      5281      5280      5283      5286
      5282      5280      5283      5284      5282      5280      5283      5285
      5282      5280      5283      5286      5283      5286      5289      5290
      5283      5286      5289      5291      5283      5286      5289      5292
      5284      5283      5286      5287      5284      5283      5286      5288
      5284      5283      5286      5289      5285      5283      5286      5287
      5285      5283      5286      5288      5285      5283      5286      5289
      5286      5289      5292      5293      5286      5289      5292      5294
      5286      5289      5292      5295      5287      5286      5289      5290
      5287      5286      5289      5291      5287      5286      5289      5292
      5288      5286      5289      5290      5288      5286      5289      5291
      5288      5286      5289      5292      5289      5292      5295      5296
      5289      5292      5295      5297      5289      5292      5295      5298
      5290      5289      5292      5293      5290      5289      5292      5294
      5290      5289      5292      5295      5291      5289      5292      5293
      5291      5289      5292      5294      5291      5289      5292      5295
      5292      5295      5298      5299      5292      5295      5298      5300
      5292      5295      5298      5301      5293      5292      5295      5296
      5293      5292      5295      5297      5293      5292      5295      5298
      5294      5292      5295      5296      5294      5292      5295      5297
      5294      5292      5295      5298      5295      5298      5301      5302
      5295      5298      5301      5303      5295      5298      5301      5304
      5296      5295      5298      5299      5296      5295      5298      5300
      5296      5295      5298      5301      5297      5295      5298      5299
      5297      5295      5298      5300      5297      5295      5298      5301
      5299      5298      5301      5302      5299      5298      5301      5303
      5299      5298      5301      5304      5300      5298      5301      5302
      5300      5298      5301      5303      5300      5298      5301      5304
      5305      5309      5312      5313      5305      5309      5312      5314
      5305      5309      5312      5319      5306      5305      5309      5310
      5306      5305      5309      5311      5306      5305      5309      5312
      5307      5305      5309      5310      5307      5305      5309      5311
      5307      5305      5309      5312      5308      5305      5309      5310
      5308      5305      5309      5311      5308      5305      5309      5312
      5309      5312      5319      5315      5310      5309      5312      5313
      5310      5309      5312      5314      5310      5309      5312      5319
      5311      5309      5312      5313      5311      5309      5312      5314
      5311      5309      5312      5319      5312      5319      5315      5316
      5312      5319      5315      5317      5312      5319      5315      5318
      5313      5312      5319      5315      5314      5312      5319      5315
      5315      5318      5320      5321      5315      5318      5320      5322
      5315      5318      5320      5323      5316      5315      5318      5320
      5317      5315      5318      5320      5318      5320      5323      5324
      5318      5320      5323      5325      5318      5320      5323      5331
      5319      5315      5318      5320      5320      5323      5325      5326
      5320      5323      5331      5332      5320      5323      5331      5333
      5320      5323      5331      5334      5321      5320      5323      5324
      5321      5320      5323      5325      5321      5320      5323      5331
      5322      5320      5323      5324      5322      5320      5323      5325
      5322      5320      5323      5331      5323      5325      5326      5327
      5323      5325      5326      5328      5323      5331      5334      5335
      5324      5323      5325      5326      5324      5323      5331      5332
      5324      5323      5331      5333      5324      5323      5331      5334
      5325      5323      5331      5332      5325      5323      5331      5333
      5325      5323      5331      5334      5325      5326      5328      5329
      5325      5326      5328      5330      5325      5326      5328      5340
      5326      5325      5323      5331      5326      5328      5340      5341
      5326      5328      5340      5342      5326      5328      5340      5343
      5327      5326      5328      5329      5327      5326      5328      5330
      5327      5326      5328      5340      5328      5340      5343      5344
      5328      5340      5343      5345      5328      5340      5343      5346
      5329      5328      5340      5341      5329      5328      5340      5342
      5329      5328      5340      5343      5330      5328      5340      5341
      5330      5328      5340      5342      5330      5328      5340      5343
      5331      5334      5335      5336      5331      5334      5335      5337
      5332      5331      5334      5335      5333      5331      5334      5335
      5334      5335      5337      5338      5334      5335      5337      5339
      5334      5335      5337      5387      5335      5337      5387      5388
      5335      5337      5387      5389      5335      5337      5387      5390
      5336      5335      5337      5338      5336      5335      5337      5339
      5336      5335      5337      5387      5337      5387      5390      5391
      5337      5387      5390      5392      5337      5387      5390      5393
      5338      5337      5387      5388      5338      5337      5387      5389
      5338      5337      5387      5390      5339      5337      5387      5388
      5339      5337      5387      5389      5339      5337      5387      5390
      5340      5343      5346      5347      5340      5343      5346      5348
      5340      5343      5346      5349      5341      5340      5343      5344
      5341      5340      5343      5345      5341      5340      5343      5346
      5342      5340      5343      5344      5342      5340      5343      5345
      5342      5340      5343      5346      5343      5346      5349      5350
      5343      5346      5349      5351      5343      5346      5349      5352
      5344      5343      5346      5347      5344      5343      5346      5348
      5344      5343      5346      5349      5345      5343      5346      5347
      5345      5343      5346      5348      5345      5343      5346      5349
      5346      5349      5352      5353      5346      5349      5352      5354
      5346      5349      5352      5355      5347      5346      5349      5350
      5347      5346      5349      5351      5347      5346      5349      5352
      5348      5346      5349      5350      5348      5346      5349      5351
      5348      5346      5349      5352      5349      5352      5355      5356
      5349      5352      5355      5357      5349      5352      5355      5358
      5350      5349      5352      5353      5350      5349      5352      5354
      5350      5349      5352      5355      5351      5349      5352      5353
      5351      5349      5352      5354      5351      5349      5352      5355
      5352      5355      5358      5359      5352      5355      5358      5360
      5353      5352      5355      5356      5353      5352      5355      5357
      5353      5352      5355      5358      5354      5352      5355      5356
      5354      5352      5355      5357      5354      5352      5355      5358
      5355      5358      5360      5361      5355      5358      5360      5362
      5356      5355      5358      5359      5356      5355      5358      5360
      5357      5355      5358      5359      5357      5355      5358      5360
      5358      5360      5362      5363      5358      5360      5362      5364
      5358      5360      5362      5365      5359      5358      5360      5361
      5359      5358      5360      5362      5360      5362      5365      5366
      5360      5362      5365      5367      5360      5362      5365      5368
      5361      5360      5362      5363      5361      5360      5362      5364
      5361      5360      5362      5365      5362      5365      5368      5369
      5362      5365      5368      5370      5362      5365      5368      5371
      5363      5362      5365      5366      5363      5362      5365      5367
      5363      5362      5365      5368      5364      5362      5365      5366
      5364      5362      5365      5367      5364      5362      5365      5368
      5365      5368      5371      5372      5365      5368      5371      5373
      5365      5368      5371      5374      5366      5365      5368      5369
      5366      5365      5368      5370      5366      5365      5368      5371
      5367      5365      5368      5369      5367      5365      5368      5370
      5367      5365      5368      5371      5368      5371      5374      5375
      5368      5371      5374      5376      5368      5371      5374      5377
      5369      5368      5371      5372      5369      5368      5371      5373
      5369      5368      5371      5374      5370      5368      5371      5372
      5370      5368      5371      5373      5370      5368      5371      5374
      5371      5374      5377      5378      5371      5374      5377      5379
      5371      5374      5377      5380      5372      5371      5374      5375
      5372      5371      5374      5376      5372      5371      5374      5377
      5373      5371      5374      5375      5373      5371      5374      5376
      5373      5371      5374      5377      5374      5377      5380      5381
      5374      5377      5380      5382      5374      5377      5380      5383
      5375      5374      5377      5378      5375      5374      5377      5379
      5375      5374      5377      5380      5376      5374      5377      5378
      5376      5374      5377      5379      5376      5374      5377      5380
      5377      5380      5383      5384      5377      5380      5383      5385
      5377      5380      5383      5386      5378      5377      5380      5381
      5378      5377      5380      5382      5378      5377      5380      5383
      5379      5377      5380      5381      5379      5377      5380      5382
      5379      5377      5380      5383      5381      5380      5383      5384
      5381      5380      5383      5385      5381      5380      5383      5386
      5382      5380      5383      5384      5382      5380      5383      5385
      5382      5380      5383      5386      5387      5390      5393      5394
      5387      5390      5393      5395      5387      5390      5393      5396
      5388      5387      5390      5391      5388      5387      5390      5392
      5388      5387      5390      5393      5389      5387      5390      5391
      5389      5387      5390      5392      5389      5387      5390      5393
      5390      5393      5396      5397      5390      5393      5396      5398
      5390      5393      5396      5399      5391      5390      5393      5394
      5391      5390      5393      5395      5391      5390      5393      5396
      5392      5390      5393      5394      5392      5390      5393      5395
      5392      5390      5393      5396      5393      5396      5399      5400
      5393      5396      5399      5401      5393      5396      5399      5402
      5394      5393      5396      5397      5394      5393      5396      5398
      5394      5393      5396      5399      5395      5393      5396      5397
      5395      5393      5396      5398      5395      5393      5396      5399
      5396      5399      5402      5403      5396      5399      5402      5404
      5396      5399      5402      5405      5397      5396      5399      5400
      5397      5396      5399      5401      5397      5396      5399      5402
      5398      5396      5399      5400      5398      5396      5399      5401
      5398      5396      5399      5402      5399      5402      5405      5406
      5399      5402      5405      5407      5399      5402      5405      5408
      5400      5399      5402      5403      5400      5399      5402      5404
      5400      5399      5402      5405      5401      5399      5402      5403
      5401      5399      5402      5404      5401      5399      5402      5405
      5402      5405      5408      5409      5402      5405      5408      5410
      5402      5405      5408      5411      5403      5402      5405      5406
      5403      5402      5405      5407      5403      5402      5405      5408
      5404      5402      5405      5406      5404      5402      5405      5407
      5404      5402      5405      5408      5405      5408      5411      5412
      5405      5408      5411      5413      5405      5408      5411      5414
      5406      5405      5408      5409      5406      5405      5408      5410
      5406      5405      5408      5411      5407      5405      5408      5409
      5407      5405      5408      5410      5407      5405      5408      5411
      5408      5411      5414      5415      5408      5411      5414      5416
      5408      5411      5414      5417      5409      5408      5411      5412
      5409      5408      5411      5413      5409      5408      5411      5414
      5410      5408      5411      5412      5410      5408      5411      5413
      5410      5408      5411      5414      5411      5414      5417      5418
      5411      5414      5417      5419      5411      5414      5417      5420
      5412      5411      5414      5415      5412      5411      5414      5416
      5412      5411      5414      5417      5413      5411      5414      5415
      5413      5411      5414      5416      5413      5411      5414      5417
      5414      5417      5420      5421      5414      5417      5420      5422
      5414      5417      5420      5423      5415      5414      5417      5418
      5415      5414      5417      5419      5415      5414      5417      5420
      5416      5414      5417      5418      5416      5414      5417      5419
      5416      5414      5417      5420      5417      5420      5423      5424
      5417      5420      5423      5425      5417      5420      5423      5426
      5418      5417      5420      5421      5418      5417      5420      5422
      5418      5417      5420      5423      5419      5417      5420      5421
      5419      5417      5420      5422      5419      5417      5420      5423
      5420      5423      5426      5427      5420      5423      5426      5428
      5420      5423      5426      5429      5421      5420      5423      5424
      5421      5420      5423      5425      5421      5420      5423      5426
      5422      5420      5423      5424      5422      5420      5423      5425
      5422      5420      5423      5426      5424      5423      5426      5427
      5424      5423      5426      5428      5424      5423      5426      5429
      5425      5423      5426      5427      5425      5423      5426      5428
      5425      5423      5426      5429      5430      5434      5437      5438
      5430      5434      5437      5439      5430      5434      5437      5444
      5431      5430      5434      5435      5431      5430      5434      5436
      5431      5430      5434      5437      5432      5430      5434      5435
      5432      5430      5434      5436      5432      5430      5434      5437
      5433      5430      5434      5435      5433      5430      5434      5436
      5433      5430      5434      5437      5434      5437      5444      5440
      5435      5434      5437      5438      5435      5434      5437      5439
      5435      5434      5437      5444      5436      5434      5437      5438
      5436      5434      5437      5439      5436      5434      5437      5444
      5437      5444      5440      5441      5437      5444      5440      5442
      5437      5444      5440      5443      5438      5437      5444      5440
      5439      5437      5444      5440      5440      5443      5445      5446
      5440      5443      5445      5447      5440      5443      5445      5448
      5441      5440      5443      5445      5442      5440      5443      5445
      5443      5445      5448      5449      5443      5445      5448      5450
      5443      5445      5448      5456      5444      5440      5443      5445
      5445      5448      5450      5451      5445      5448      5456      5457
      5445      5448      5456      5458      5445      5448      5456      5459
      5446      5445      5448      5449      5446      5445      5448      5450
      5446      5445      5448      5456      5447      5445      5448      5449
      5447      5445      5448      5450      5447      5445      5448      5456
      5448      5450      5451      5452      5448      5450      5451      5453
      5448      5456      5459      5460      5449      5448      5450      5451
      5449      5448      5456      5457      5449      5448      5456      5458
      5449      5448      5456      5459      5450      5448      5456      5457
      5450      5448      5456      5458      5450      5448      5456      5459
      5450      5451      5453      5454      5450      5451      5453      5455
      5450      5451      5453      5465      5451      5450      5448      5456
      5451      5453      5465      5466      5451      5453      5465      5467
      5451      5453      5465      5468      5452      5451      5453      5454
      5452      5451      5453      5455      5452      5451      5453      5465
      5453      5465      5468      5469      5453      5465      5468      5470
      5453      5465      5468      5471      5454      5453      5465      5466
      5454      5453      5465      5467      5454      5453      5465      5468
      5455      5453      5465      5466      5455      5453      5465      5467
      5455      5453      5465      5468      5456      5459      5460      5461
      5456      5459      5460      5462      5457      5456      5459      5460
      5458      5456      5459      5460      5459      5460      5462      5463
      5459      5460      5462      5464      5459      5460      5462      5512
      5460      5462      5512      5513      5460      5462      5512      5514
      5460      5462      5512      5515      5461      5460      5462      5463
      5461      5460      5462      5464      5461      5460      5462      5512
      5462      5512      5515      5516      5462      5512      5515      5517
      5462      5512      5515      5518      5463      5462      5512      5513
      5463      5462      5512      5514      5463      5462      5512      5515
      5464      5462      5512      5513      5464      5462      5512      5514
      5464      5462      5512      5515      5465      5468      5471      5472
      5465      5468      5471      5473      5465      5468      5471      5474
      5466      5465      5468      5469      5466      5465      5468      5470
      5466      5465      5468      5471      5467      5465      5468      5469
      5467      5465      5468      5470      5467      5465      5468      5471
      5468      5471      5474      5475      5468      5471      5474      5476
      5468      5471      5474      5477      5469      5468      5471      5472
      5469      5468      5471      5473      5469      5468      5471      5474
      5470      5468      5471      5472      5470      5468      5471      5473
      5470      5468      5471      5474      5471      5474      5477      5478
      5471      5474      5477      5479      5471      5474      5477      5480
      5472      5471      5474      5475      5472      5471      5474      5476
      5472      5471      5474      5477      5473      5471      5474      5475
      5473      5471      5474      5476      5473      5471      5474      5477
      5474      5477      5480      5481      5474      5477      5480      5482
      5474      5477      5480      5483      5475      5474      5477      5478
      5475      5474      5477      5479      5475      5474      5477      5480
      5476      5474      5477      5478      5476      5474      5477      5479
      5476      5474      5477      5480      5477      5480      5483      5484
      5477      5480      5483      5485      5478      5477      5480      5481
      5478      5477      5480      5482      5478      5477      5480      5483
      5479      5477      5480      5481      5479      5477      5480      5482
      5479      5477      5480      5483      5480      5483      5485      5486
      5480      5483      5485      5487      5481      5480      5483      5484
      5481      5480      5483      5485      5482      5480      5483      5484
      5482      5480      5483      5485      5483      5485      5487      5488
      5483      5485      5487      5489      5483      5485      5487      5490
      5484      5483      5485      5486      5484      5483      5485      5487
      5485      5487      5490      5491      5485      5487      5490      5492
      5485      5487      5490      5493      5486      5485      5487      5488
      5486      5485      5487      5489      5486      5485      5487      5490
      5487      5490      5493      5494      5487      5490      5493      5495
      5487      5490      5493      5496      5488      5487      5490      5491
      5488      5487      5490      5492      5488      5487      5490      5493
      5489      5487      5490      5491      5489      5487      5490      5492
      5489      5487      5490      5493      5490      5493      5496      5497
      5490      5493      5496      5498      5490      5493      5496      5499
      5491      5490      5493      5494      5491      5490      5493      5495
      5491      5490      5493      5496      5492      5490      5493      5494
      5492      5490      5493      5495      5492      5490      5493      5496
      5493      5496      5499      5500      5493      5496      5499      5501
      5493      5496      5499      5502      5494      5493      5496      5497
      5494      5493      5496      5498      5494      5493      5496      5499
      5495      5493      5496      5497      5495      5493      5496      5498
      5495      5493      5496      5499      5496      5499      5502      5503
      5496      5499      5502      5504      5496      5499      5502      5505
      5497      5496      5499      5500      5497      5496      5499      5501
      5497      5496      5499      5502      5498      5496      5499      5500
      5498      5496      5499      5501      5498      5496      5499      5502
      5499      5502      5505      5506      5499      5502      5505      5507
      5499      5502      5505      5508      5500      5499      5502      5503
      5500      5499      5502      5504      5500      5499      5502      5505
      5501      5499      5502      5503      5501      5499      5502      5504
      5501      5499      5502      5505      5502      5505      5508      5509
      5502      5505      5508      5510      5502      5505      5508      5511
      5503      5502      5505      5506      5503      5502      5505      5507
      5503      5502      5505      5508      5504      5502      5505      5506
      5504      5502      5505      5507      5504      5502      5505      5508
      5506      5505      5508      5509      5506      5505      5508      5510
      5506      5505      5508      5511      5507      5505      5508      5509
      5507      5505      5508      5510      5507      5505      5508      5511
      5512      5515      5518      5519      5512      5515      5518      5520
      5512      5515      5518      5521      5513      5512      5515      5516
      5513      5512      5515      5517      5513      5512      5515      5518
      5514      5512      5515      5516      5514      5512      5515      5517
      5514      5512      5515      5518      5515      5518      5521      5522
      5515      5518      5521      5523      5515      5518      5521      5524
      5516      5515      5518      5519      5516      5515      5518      5520
      5516      5515      5518      5521      5517      5515      5518      5519
      5517      5515      5518      5520      5517      5515      5518      5521
      5518      5521      5524      5525      5518      5521      5524      5526
      5518      5521      5524      5527      5519      5518      5521      5522
      5519      5518      5521      5523      5519      5518      5521      5524
      5520      5518      5521      5522      5520      5518      5521      5523
      5520      5518      5521      5524      5521      5524      5527      5528
      5521      5524      5527      5529      5521      5524      5527      5530
      5522      5521      5524      5525      5522      5521      5524      5526
      5522      5521      5524      5527      5523      5521      5524      5525
      5523      5521      5524      5526      5523      5521      5524      5527
      5524      5527      5530      5531      5524      5527      5530      5532
      5524      5527      5530      5533      5525      5524      5527      5528
      5525      5524      5527      5529      5525      5524      5527      5530
      5526      5524      5527      5528      5526      5524      5527      5529
      5526      5524      5527      5530      5527      5530      5533      5534
      5527      5530      5533      5535      5527      5530      5533      5536
      5528      5527      5530      5531      5528      5527      5530      5532
      5528      5527      5530      5533      5529      5527      5530      5531
      5529      5527      5530      5532      5529      5527      5530      5533
      5530      5533      5536      5537      5530      5533      5536      5538
      5530      5533      5536      5539      5531      5530      5533      5534
      5531      5530      5533      5535      5531      5530      5533      5536
      5532      5530      5533      5534      5532      5530      5533      5535
      5532      5530      5533      5536      5533      5536      5539      5540
      5533      5536      5539      5541      5533      5536      5539      5542
      5534      5533      5536      5537      5534      5533      5536      5538
      5534      5533      5536      5539      5535      5533      5536      5537
      5535      5533      5536      5538      5535      5533      5536      5539
      5536      5539      5542      5543      5536      5539      5542      5544
      5536      5539      5542      5545      5537      5536      5539      5540
      5537      5536      5539      5541      5537      5536      5539      5542
      5538      5536      5539      5540      5538      5536      5539      5541
      5538      5536      5539      5542      5539      5542      5545      5546
      5539      5542      5545      5547      5539      5542      5545      5548
      5540      5539      5542      5543      5540      5539      5542      5544
      5540      5539      5542      5545      5541      5539      5542      5543
      5541      5539      5542      5544      5541      5539      5542      5545
      5542      5545      5548      5549      5542      5545      5548      5550
      5542      5545      5548      5551      5543      5542      5545      5546
      5543      5542      5545      5547      5543      5542      5545      5548
      5544      5542      5545      5546      5544      5542      5545      5547
      5544      5542      5545      5548      5545      5548      5551      5552
      5545      5548      5551      5553      5545      5548      5551      5554
      5546      5545      5548      5549      5546      5545      5548      5550
      5546      5545      5548      5551      5547      5545      5548      5549
      5547      5545      5548      5550      5547      5545      5548      5551
      5549      5548      5551      5552      5549      5548      5551      5553
      5549      5548      5551      5554      5550      5548      5551      5552
      5550      5548      5551      5553      5550      5548      5551      5554
      5555      5556      5571      5572      5555      5556      5571      5573
      5555      5556      5571      5577      5556      5555      5559      5560
      5556      5555      5559      5561      5556      5555      5559      5562
      5556      5555      5563      5564      5556      5555      5563      5565
      5556      5555      5563      5566      5556      5555      5567      5568
      5556      5555      5567      5569      5556      5555      5567      5570
      5556      5571      5577      5574      5557      5556      5555      5559
      5557      5556      5555      5563      5557      5556      5555      5567
      5557      5556      5571      5572      5557      5556      5571      5573
      5557      5556      5571      5577      5558      5556      5555      5559
      5558      5556      5555      5563      5558      5556      5555      5567
      5558      5556      5571      5572      5558      5556      5571      5573
      5558      5556      5571      5577      5559      5555      5556      5571
      5559      5555      5563      5564      5559      5555      5563      5565
      5559      5555      5563      5566      5559      5555      5567      5568
      5559      5555      5567      5569      5559      5555      5567      5570
      5560      5559      5555      5563      5560      5559      5555      5567
      5561      5559      5555      5563      5561      5559      5555      5567
      5562      5559      5555      5563      5562      5559      5555      5567
      5563      5555      5556      5571      5563      5555      5567      5568
      5563      5555      5567      5569      5563      5555      5567      5570
      5564      5563      5555      5567      5565      5563      5555      5567
      5566      5563      5555      5567      5567      5555      5556      5571
      5571      5577      5574      5575      5571      5577      5574      5576
      5571      5577      5574      5578      5572      5571      5577      5574
      5573      5571      5577      5574      5574      5578      5579      5580
      5574      5578      5579      5581      5574      5578      5579      5582
      5575      5574      5578      5579      5576      5574      5578      5579
      5577      5574      5578      5579      5578      5579      5582      5583
      5578      5579      5582      5584      5578      5579      5582      5590
      5579      5582      5584      5585      5579      5582      5590      5591
      5579      5582      5590      5592      5579      5582      5590      5593
      5580      5579      5582      5583      5580      5579      5582      5584
      5580      5579      5582      5590      5581      5579      5582      5583
      5581      5579      5582      5584      5581      5579      5582      5590
      5582      5584      5585      5586      5582      5584      5585      5587
      5582      5590      5593      5594      5583      5582      5584      5585
      5583      5582      5590      5591      5583      5582      5590      5592
      5583      5582      5590      5593      5584      5582      5590      5591
      5584      5582      5590      5592      5584      5582      5590      5593
      5584      5585      5587      5588      5584      5585      5587      5589
      5584      5585      5587      5599      5585      5584      5582      5590
      5585      5587      5599      5600      5585      5587      5599      5601
      5585      5587      5599      5602      5586      5585      5587      5588
      5586      5585      5587      5589      5586      5585      5587      5599
      5587      5599      5602      5603      5587      5599      5602      5604
      5587      5599      5602      5605      5588      5587      5599      5600
      5588      5587      5599      5601      5588      5587      5599      5602
      5589      5587      5599      5600      5589      5587      5599      5601
      5589      5587      5599      5602      5590      5593      5594      5595
      5590      5593      5594      5596      5591      5590      5593      5594
      5592      5590      5593      5594      5593      5594      5596      5597
      5593      5594      5596      5598      5593      5594      5596      5646
      5594      5596      5646      5647      5594      5596      5646      5648
      5594      5596      5646      5649      5595      5594      5596      5597
      5595      5594      5596      5598      5595      5594      5596      5646
      5596      5646      5649      5650      5596      5646      5649      5651
      5596      5646      5649      5652      5597      5596      5646      5647
      5597      5596      5646      5648      5597      5596      5646      5649
      5598      5596      5646      5647      5598      5596      5646      5648
      5598      5596      5646      5649      5599      5602      5605      5606
      5599      5602      5605      5607      5599      5602      5605      5608
      5600      5599      5602      5603      5600      5599      5602      5604
      5600      5599      5602      5605      5601      5599      5602      5603
      5601      5599      5602      5604      5601      5599      5602      5605
      5602      5605      5608      5609      5602      5605      5608      5610
      5602      5605      5608      5611      5603      5602      5605      5606
      5603      5602      5605      5607      5603      5602      5605      5608
      5604      5602      5605      5606      5604      5602      5605      5607
      5604      5602      5605      5608      5605      5608      5611      5612
      5605      5608      5611      5613      5605      5608      5611      5614
      5606      5605      5608      5609      5606      5605      5608      5610
      5606      5605      5608      5611      5607      5605      5608      5609
      5607      5605      5608      5610      5607      5605      5608      5611
      5608      5611      5614      5615      5608      5611      5614      5616
      5608      5611      5614      5617      5609      5608      5611      5612
      5609      5608      5611      5613      5609      5608      5611      5614
      5610      5608      5611      5612      5610      5608      5611      5613
      5610      5608      5611      5614      5611      5614      5617      5618
      5611      5614      5617      5619      5612      5611      5614      5615
      5612      5611      5614      5616      5612      5611      5614      5617
      5613      5611      5614      5615      5613      5611      5614      5616
      5613      5611      5614      5617      5614      5617      5619      5620
      5614      5617      5619      5621      5615      5614      5617      5618
      5615      5614      5617      5619      5616      5614      5617      5618
      5616      5614      5617      5619      5617      5619      5621      5622
      5617      5619      5621      5623      5617      5619      5621      5624
      5618      5617      5619      5620      5618      5617      5619      5621
      5619      5621      5624      5625      5619      5621      5624      5626
      5619      5621      5624      5627      5620      5619      5621      5622
      5620      5619      5621      5623      5620      5619      5621      5624
      5621      5624      5627      5628      5621      5624      5627      5629
      5621      5624      5627      5630      5622      5621      5624      5625
      5622      5621      5624      5626      5622      5621      5624      5627
      5623      5621      5624      5625      5623      5621      5624      5626
      5623      5621      5624      5627      5624      5627      5630      5631
      5624      5627      5630      5632      5624      5627      5630      5633
      5625      5624      5627      5628      5625      5624      5627      5629
      5625      5624      5627      5630      5626      5624      5627      5628
      5626      5624      5627      5629      5626      5624      5627      5630
      5627      5630      5633      5634      5627      5630      5633      5635
      5627      5630      5633      5636      5628      5627      5630      5631
      5628      5627      5630      5632      5628      5627      5630      5633
      5629      5627      5630      5631      5629      5627      5630      5632
      5629      5627      5630      5633      5630      5633      5636      5637
      5630      5633      5636      5638      5630      5633      5636      5639
      5631      5630      5633      5634      5631      5630      5633      5635
      5631      5630      5633      5636      5632      5630      5633      5634
      5632      5630      5633      5635      5632      5630      5633      5636
      5633      5636      5639      5640      5633      5636      5639      5641
      5633      5636      5639      5642      5634      5633      5636      5637
      5634      5633      5636      5638      5634      5633      5636      5639
      5635      5633      5636      5637      5635      5633      5636      5638
      5635      5633      5636      5639      5636      5639      5642      5643
      5636      5639      5642      5644      5636      5639      5642      5645
      5637      5636      5639      5640      5637      5636      5639      5641
      5637      5636      5639      5642      5638      5636      5639      5640
      5638      5636      5639      5641      5638      5636      5639      5642
      5640      5639      5642      5643      5640      5639      5642      5644
      5640      5639      5642      5645      5641      5639      5642      5643
      5641      5639      5642      5644      5641      5639      5642      5645
      5646      5649      5652      5653      5646      5649      5652      5654
      5646      5649      5652      5655      5647      5646      5649      5650
      5647      5646      5649      5651      5647      5646      5649      5652
      5648      5646      5649      5650      5648      5646      5649      5651
      5648      5646      5649      5652      5649      5652      5655      5656
      5649      5652      5655      5657      5649      5652      5655      5658
      5650      5649      5652      5653      5650      5649      5652      5654
      5650      5649      5652      5655      5651      5649      5652      5653
      5651      5649      5652      5654      5651      5649      5652      5655
      5652      5655      5658      5659      5652      5655      5658      5660
      5652      5655      5658      5661      5653      5652      5655      5656
      5653      5652      5655      5657      5653      5652      5655      5658
      5654      5652      5655      5656      5654      5652      5655      5657
      5654      5652      5655      5658      5655      5658      5661      5662
      5655      5658      5661      5663      5655      5658      5661      5664
      5656      5655      5658      5659      5656      5655      5658      5660
      5656      5655      5658      5661      5657      5655      5658      5659
      5657      5655      5658      5660      5657      5655      5658      5661
      5658      5661      5664      5665      5658      5661      5664      5666
      5658      5661      5664      5667      5659      5658      5661      5662
      5659      5658      5661      5663      5659      5658      5661      5664
      5660      5658      5661      5662      5660      5658      5661      5663
      5660      5658      5661      5664      5661      5664      5667      5668
      5661      5664      5667      5669      5661      5664      5667      5670
      5662      5661      5664      5665      5662      5661      5664      5666
      5662      5661      5664      5667      5663      5661      5664      5665
      5663      5661      5664      5666      5663      5661      5664      5667
      5664      5667      5670      5671      5664      5667      5670      5672
      5664      5667      5670      5673      5665      5664      5667      5668
      5665      5664      5667      5669      5665      5664      5667      5670
      5666      5664      5667      5668      5666      5664      5667      5669
      5666      5664      5667      5670      5667      5670      5673      5674
      5667      5670      5673      5675      5667      5670      5673      5676
      5668      5667      5670      5671      5668      5667      5670      5672
      5668      5667      5670      5673      5669      5667      5670      5671
      5669      5667      5670      5672      5669      5667      5670      5673
      5670      5673      5676      5677      5670      5673      5676      5678
      5670      5673      5676      5679      5671      5670      5673      5674
      5671      5670      5673      5675      5671      5670      5673      5676
      5672      5670      5673      5674      5672      5670      5673      5675
      5672      5670      5673      5676      5673      5676      5679      5680
      5673      5676      5679      5681      5673      5676      5679      5682
      5674      5673      5676      5677      5674      5673      5676      5678
      5674      5673      5676      5679      5675      5673      5676      5677
      5675      5673      5676      5678      5675      5673      5676      5679
      5676      5679      5682      5683      5676      5679      5682      5684
      5676      5679      5682      5685      5677      5676      5679      5680
      5677      5676      5679      5681      5677      5676      5679      5682
      5678      5676      5679      5680      5678      5676      5679      5681
      5678      5676      5679      5682      5679      5682      5685      5686
      5679      5682      5685      5687      5679      5682      5685      5688
      5680      5679      5682      5683      5680      5679      5682      5684
      5680      5679      5682      5685      5681      5679      5682      5683
      5681      5679      5682      5684      5681      5679      5682      5685
      5683      5682      5685      5686      5683      5682      5685      5687
      5683      5682      5685      5688      5684      5682      5685      5686
      5684      5682      5685      5687      5684      5682      5685      5688
      5689      5690      5705      5706      5689      5690      5705      5707
      5689      5690      5705      5711      5690      5689      5693      5694
      5690      5689      5693      5695      5690      5689      5693      5696
      5690      5689      5697      5698      5690      5689      5697      5699
      5690      5689      5697      5700      5690      5689      5701      5702
      5690      5689      5701      5703      5690      5689      5701      5704
      5690      5705      5711      5708      5691      5690      5689      5693
      5691      5690      5689      5697      5691      5690      5689      5701
      5691      5690      5705      5706      5691      5690      5705      5707
      5691      5690      5705      5711      5692      5690      5689      5693
      5692      5690      5689      5697      5692      5690      5689      5701
      5692      5690      5705      5706      5692      5690      5705      5707
      5692      5690      5705      5711      5693      5689      5690      5705
      5693      5689      5697      5698      5693      5689      5697      5699
      5693      5689      5697      5700      5693      5689      5701      5702
      5693      5689      5701      5703      5693      5689      5701      5704
      5694      5693      5689      5697      5694      5693      5689      5701
      5695      5693      5689      5697      5695      5693      5689      5701
      5696      5693      5689      5697      5696      5693      5689      5701
      5697      5689      5690      5705      5697      5689      5701      5702
      5697      5689      5701      5703      5697      5689      5701      5704
      5698      5697      5689      5701      5699      5697      5689      5701
      5700      5697      5689      5701      5701      5689      5690      5705
      5705      5711      5708      5709      5705      5711      5708      5710
      5705      5711      5708      5712      5706      5705      5711      5708
      5707      5705      5711      5708      5708      5712      5713      5714
      5708      5712      5713      5715      5708      5712      5713      5716
      5709      5708      5712      5713      5710      5708      5712      5713
      5711      5708      5712      5713      5712      5713      5716      5717
      5712      5713      5716      5718      5712      5713      5716      5724
      5713      5716      5718      5719      5713      5716      5724      5725
      5713      5716      5724      5726      5713      5716      5724      5727
      5714      5713      5716      5717      5714      5713      5716      5718
      5714      5713      5716      5724      5715      5713      5716      5717
      5715      5713      5716      5718      5715      5713      5716      5724
      5716      5718      5719      5720      5716      5718      5719      5721
      5716      5724      5727      5728      5717      5716      5718      5719
      5717      5716      5724      5725      5717      5716      5724      5726
      5717      5716      5724      5727      5718      5716      5724      5725
      5718      5716      5724      5726      5718      5716      5724      5727
      5718      5719      5721      5722      5718      5719      5721      5723
      5718      5719      5721      5733      5719      5718      5716      5724
      5719      5721      5733      5734      5719      5721      5733      5735
      5719      5721      5733      5736      5720      5719      5721      5722
      5720      5719      5721      5723      5720      5719      5721      5733
      5721      5733      5736      5737      5721      5733      5736      5738
      5721      5733      5736      5739      5722      5721      5733      5734
      5722      5721      5733      5735      5722      5721      5733      5736
      5723      5721      5733      5734      5723      5721      5733      5735
      5723      5721      5733      5736      5724      5727      5728      5729
      5724      5727      5728      5730      5725      5724      5727      5728
      5726      5724      5727      5728      5727      5728      5730      5731
      5727      5728      5730      5732      5727      5728      5730      5780
      5728      5730      5780      5781      5728      5730      5780      5782
      5728      5730      5780      5783      5729      5728      5730      5731
      5729      5728      5730      5732      5729      5728      5730      5780
      5730      5780      5783      5784      5730      5780      5783      5785
      5730      5780      5783      5786      5731      5730      5780      5781
      5731      5730      5780      5782      5731      5730      5780      5783
      5732      5730      5780      5781      5732      5730      5780      5782
      5732      5730      5780      5783      5733      5736      5739      5740
      5733      5736      5739      5741      5733      5736      5739      5742
      5734      5733      5736      5737      5734      5733      5736      5738
      5734      5733      5736      5739      5735      5733      5736      5737
      5735      5733      5736      5738      5735      5733      5736      5739
      5736      5739      5742      5743      5736      5739      5742      5744
      5736      5739      5742      5745      5737      5736      5739      5740
      5737      5736      5739      5741      5737      5736      5739      5742
      5738      5736      5739      5740      5738      5736      5739      5741
      5738      5736      5739      5742      5739      5742      5745      5746
      5739      5742      5745      5747      5739      5742      5745      5748
      5740      5739      5742      5743      5740      5739      5742      5744
      5740      5739      5742      5745      5741      5739      5742      5743
      5741      5739      5742      5744      5741      5739      5742      5745
      5742      5745      5748      5749      5742      5745      5748      5750
      5742      5745      5748      5751      5743      5742      5745      5746
      5743      5742      5745      5747      5743      5742      5745      5748
      5744      5742      5745      5746      5744      5742      5745      5747
      5744      5742      5745      5748      5745      5748      5751      5752
      5745      5748      5751      5753      5746      5745      5748      5749
      5746      5745      5748      5750      5746      5745      5748      5751
      5747      5745      5748      5749      5747      5745      5748      5750
      5747      5745      5748      5751      5748      5751      5753      5754
      5748      5751      5753      5755      5749      5748      5751      5752
      5749      5748      5751      5753      5750      5748      5751      5752
      5750      5748      5751      5753      5751      5753      5755      5756
      5751      5753      5755      5757      5751      5753      5755      5758
      5752      5751      5753      5754      5752      5751      5753      5755
      5753      5755      5758      5759      5753      5755      5758      5760
      5753      5755      5758      5761      5754      5753      5755      5756
      5754      5753      5755      5757      5754      5753      5755      5758
      5755      5758      5761      5762      5755      5758      5761      5763
      5755      5758      5761      5764      5756      5755      5758      5759
      5756      5755      5758      5760      5756      5755      5758      5761
      5757      5755      5758      5759      5757      5755      5758      5760
      5757      5755      5758      5761      5758      5761      5764      5765
      5758      5761      5764      5766      5758      5761      5764      5767
      5759      5758      5761      5762      5759      5758      5761      5763
      5759      5758      5761      5764      5760      5758      5761      5762
      5760      5758      5761      5763      5760      5758      5761      5764
      5761      5764      5767      5768      5761      5764      5767      5769
      5761      5764      5767      5770      5762      5761      5764      5765
      5762      5761      5764      5766      5762      5761      5764      5767
      5763      5761      5764      5765      5763      5761      5764      5766
      5763      5761      5764      5767      5764      5767      5770      5771
      5764      5767      5770      5772      5764      5767      5770      5773
      5765      5764      5767      5768      5765      5764      5767      5769
      5765      5764      5767      5770      5766      5764      5767      5768
      5766      5764      5767      5769      5766      5764      5767      5770
      5767      5770      5773      5774      5767      5770      5773      5775
      5767      5770      5773      5776      5768      5767      5770      5771
      5768      5767      5770      5772      5768      5767      5770      5773
      5769      5767      5770      5771      5769      5767      5770      5772
      5769      5767      5770      5773      5770      5773      5776      5777
      5770      5773      5776      5778      5770      5773      5776      5779
      5771      5770      5773      5774      5771      5770      5773      5775
      5771      5770      5773      5776      5772      5770      5773      5774
      5772      5770      5773      5775      5772      5770      5773      5776
      5774      5773      5776      5777      5774      5773      5776      5778
      5774      5773      5776      5779      5775      5773      5776      5777
      5775      5773      5776      5778      5775      5773      5776      5779
      5780      5783      5786      5787      5780      5783      5786      5788
      5780      5783      5786      5789      5781      5780      5783      5784
      5781      5780      5783      5785      5781      5780      5783      5786
      5782      5780      5783      5784      5782      5780      5783      5785
      5782      5780      5783      5786      5783      5786      5789      5790
      5783      5786      5789      5791      5783      5786      5789      5792
      5784      5783      5786      5787      5784      5783      5786      5788
      5784      5783      5786      5789      5785      5783      5786      5787
      5785      5783      5786      5788      5785      5783      5786      5789
      5786      5789      5792      5793      5786      5789      5792      5794
      5786      5789      5792      5795      5787      5786      5789      5790
      5787      5786      5789      5791      5787      5786      5789      5792
      5788      5786      5789      5790      5788      5786      5789      5791
      5788      5786      5789      5792      5789      5792      5795      5796
      5789      5792      5795      5797      5789      5792      5795      5798
      5790      5789      5792      5793      5790      5789      5792      5794
      5790      5789      5792      5795      5791      5789      5792      5793
      5791      5789      5792      5794      5791      5789      5792      5795
      5792      5795      5798      5799      5792      5795      5798      5800
      5792      5795      5798      5801      5793      5792      5795      5796
      5793      5792      5795      5797      5793      5792      5795      5798
      5794      5792      5795      5796      5794      5792      5795      5797
      5794      5792      5795      5798      5795      5798      5801      5802
      5795      5798      5801      5803      5795      5798      5801      5804
      5796      5795      5798      5799      5796      5795      5798      5800
      5796      5795      5798      5801      5797      5795      5798      5799
      5797      5795      5798      5800      5797      5795      5798      5801
      5798      5801      5804      5805      5798      5801      5804      5806
      5798      5801      5804      5807      5799      5798      5801      5802
      5799      5798      5801      5803      5799      5798      5801      5804
      5800      5798      5801      5802      5800      5798      5801      5803
      5800      5798      5801      5804      5801      5804      5807      5808
      5801      5804      5807      5809      5801      5804      5807      5810
      5802      5801      5804      5805      5802      5801      5804      5806
      5802      5801      5804      5807      5803      5801      5804      5805
      5803      5801      5804      5806      5803      5801      5804      5807
      5804      5807      5810      5811      5804      5807      5810      5812
      5804      5807      5810      5813      5805      5804      5807      5808
      5805      5804      5807      5809      5805      5804      5807      5810
      5806      5804      5807      5808      5806      5804      5807      5809
      5806      5804      5807      5810      5807      5810      5813      5814
      5807      5810      5813      5815      5807      5810      5813      5816
      5808      5807      5810      5811      5808      5807      5810      5812
      5808      5807      5810      5813      5809      5807      5810      5811
      5809      5807      5810      5812      5809      5807      5810      5813
      5810      5813      5816      5817      5810      5813      5816      5818
      5810      5813      5816      5819      5811      5810      5813      5814
      5811      5810      5813      5815      5811      5810      5813      5816
      5812      5810      5813      5814      5812      5810      5813      5815
      5812      5810      5813      5816      5813      5816      5819      5820
      5813      5816      5819      5821      5813      5816      5819      5822
      5814      5813      5816      5817      5814      5813      5816      5818
      5814      5813      5816      5819      5815      5813      5816      5817
      5815      5813      5816      5818      5815      5813      5816      5819
      5817      5816      5819      5820      5817      5816      5819      5821
      5817      5816      5819      5822      5818      5816      5819      5820
      5818      5816      5819      5821      5818      5816      5819      5822
      5823      5824      5839      5840      5823      5824      5839      5841
      5823      5824      5839      5845      5824      5823      5827      5828
      5824      5823      5827      5829      5824      5823      5827      5830
      5824      5823      5831      5832      5824      5823      5831      5833
      5824      5823      5831      5834      5824      5823      5835      5836
      5824      5823      5835      5837      5824      5823      5835      5838
      5824      5839      5845      5842      5825      5824      5823      5827
      5825      5824      5823      5831      5825      5824      5823      5835
      5825      5824      5839      5840      5825      5824      5839      5841
      5825      5824      5839      5845      5826      5824      5823      5827
      5826      5824      5823      5831      5826      5824      5823      5835
      5826      5824      5839      5840      5826      5824      5839      5841
      5826      5824      5839      5845      5827      5823      5824      5839
      5827      5823      5831      5832      5827      5823      5831      5833
      5827      5823      5831      5834      5827      5823      5835      5836
      5827      5823      5835      5837      5827      5823      5835      5838
      5828      5827      5823      5831      5828      5827      5823      5835
      5829      5827      5823      5831      5829      5827      5823      5835
      5830      5827      5823      5831      5830      5827      5823      5835
      5831      5823      5824      5839      5831      5823      5835      5836
      5831      5823      5835      5837      5831      5823      5835      5838
      5832      5831      5823      5835      5833      5831      5823      5835
      5834      5831      5823      5835      5835      5823      5824      5839
      5839      5845      5842      5843      5839      5845      5842      5844
      5839      5845      5842      5846      5840      5839      5845      5842
      5841      5839      5845      5842      5842      5846      5847      5848
      5842      5846      5847      5849      5842      5846      5847      5850
      5843      5842      5846      5847      5844      5842      5846      5847
      5845      5842      5846      5847      5846      5847      5850      5851
      5846      5847      5850      5852      5846      5847      5850      5858
      5847      5850      5852      5853      5847      5850      5858      5859
      5847      5850      5858      5860      5847      5850      5858      5861
      5848      5847      5850      5851      5848      5847      5850      5852
      5848      5847      5850      5858      5849      5847      5850      5851
      5849      5847      5850      5852      5849      5847      5850      5858
      5850      5852      5853      5854      5850      5852      5853      5855
      5850      5858      5861      5862      5851      5850      5852      5853
      5851      5850      5858      5859      5851      5850      5858      5860
      5851      5850      5858      5861      5852      5850      5858      5859
      5852      5850      5858      5860      5852      5850      5858      5861
      5852      5853      5855      5856      5852      5853      5855      5857
      5852      5853      5855      5867      5853      5852      5850      5858
      5853      5855      5867      5868      5853      5855      5867      5869
      5853      5855      5867      5870      5854      5853      5855      5856
      5854      5853      5855      5857      5854      5853      5855      5867
      5855      5867      5870      5871      5855      5867      5870      5872
      5855      5867      5870      5873      5856      5855      5867      5868
      5856      5855      5867      5869      5856      5855      5867      5870
      5857      5855      5867      5868      5857      5855      5867      5869
      5857      5855      5867      5870      5858      5861      5862      5863
      5858      5861      5862      5864      5859      5858      5861      5862
      5860      5858      5861      5862      5861      5862      5864      5865
      5861      5862      5864      5866      5861      5862      5864      5914
      5862      5864      5914      5915      5862      5864      5914      5916
      5862      5864      5914      5917      5863      5862      5864      5865
      5863      5862      5864      5866      5863      5862      5864      5914
      5864      5914      5917      5918      5864      5914      5917      5919
      5864      5914      5917      5920      5865      5864      5914      5915
      5865      5864      5914      5916      5865      5864      5914      5917
      5866      5864      5914      5915      5866      5864      5914      5916
      5866      5864      5914      5917      5867      5870      5873      5874
      5867      5870      5873      5875      5867      5870      5873      5876
      5868      5867      5870      5871      5868      5867      5870      5872
      5868      5867      5870      5873      5869      5867      5870      5871
      5869      5867      5870      5872      5869      5867      5870      5873
      5870      5873      5876      5877      5870      5873      5876      5878
      5870      5873      5876      5879      5871      5870      5873      5874
      5871      5870      5873      5875      5871      5870      5873      5876
      5872      5870      5873      5874      5872      5870      5873      5875
      5872      5870      5873      5876      5873      5876      5879      5880
      5873      5876      5879      5881      5873      5876      5879      5882
      5874      5873      5876      5877      5874      5873      5876      5878
      5874      5873      5876      5879      5875      5873      5876      5877
      5875      5873      5876      5878      5875      5873      5876      5879
      5876      5879      5882      5883      5876      5879      5882      5884
      5876      5879      5882      5885      5877      5876      5879      5880
      5877      5876      5879      5881      5877      5876      5879      5882
      5878      5876      5879      5880      5878      5876      5879      5881
      5878      5876      5879      5882      5879      5882      5885      5886
      5879      5882      5885      5887      5880      5879      5882      5883
      5880      5879      5882      5884      5880      5879      5882      5885
      5881      5879      5882      5883      5881      5879      5882      5884
      5881      5879      5882      5885      5882      5885      5887      5888
      5882      5885      5887      5889      5883      5882      5885      5886
      5883      5882      5885      5887      5884      5882      5885      5886
      5884      5882      5885      5887      5885      5887      5889      5890
      5885      5887      5889      5891      5885      5887      5889      5892
      5886      5885      5887      5888      5886      5885      5887      5889
      5887      5889      5892      5893      5887      5889      5892      5894
      5887      5889      5892      5895      5888      5887      5889      5890
      5888      5887      5889      5891      5888      5887      5889      5892
      5889      5892      5895      5896      5889      5892      5895      5897
      5889      5892      5895      5898      5890      5889      5892      5893
      5890      5889      5892      5894      5890      5889      5892      5895
      5891      5889      5892      5893      5891      5889      5892      5894
      5891      5889      5892      5895      5892      5895      5898      5899
      5892      5895      5898      5900      5892      5895      5898      5901
      5893      5892      5895      5896      5893      5892      5895      5897
      5893      5892      5895      5898      5894      5892      5895      5896
      5894      5892      5895      5897      5894      5892      5895      5898
      5895      5898      5901      5902      5895      5898      5901      5903
      5895      5898      5901      5904      5896      5895      5898      5899
      5896      5895      5898      5900      5896      5895      5898      5901
      5897      5895      5898      5899      5897      5895      5898      5900
      5897      5895      5898      5901      5898      5901      5904      5905
      5898      5901      5904      5906      5898      5901      5904      5907
      5899      5898      5901      5902      5899      5898      5901      5903
      5899      5898      5901      5904      5900      5898      5901      5902
      5900      5898      5901      5903      5900      5898      5901      5904
      5901      5904      5907      5908      5901      5904      5907      5909
      5901      5904      5907      5910      5902      5901      5904      5905
      5902      5901      5904      5906      5902      5901      5904      5907
      5903      5901      5904      5905      5903      5901      5904      5906
      5903      5901      5904      5907      5904      5907      5910      5911
      5904      5907      5910      5912      5904      5907      5910      5913
      5905      5904      5907      5908      5905      5904      5907      5909
      5905      5904      5907      5910      5906      5904      5907      5908
      5906      5904      5907      5909      5906      5904      5907      5910
      5908      5907      5910      5911      5908      5907      5910      5912
      5908      5907      5910      5913      5909      5907      5910      5911
      5909      5907      5910      5912      5909      5907      5910      5913
      5914      5917      5920      5921      5914      5917      5920      5922
      5914      5917      5920      5923      5915      5914      5917      5918
      5915      5914      5917      5919      5915      5914      5917      5920
      5916      5914      5917      5918      5916      5914      5917      5919
      5916      5914      5917      5920      5917      5920      5923      5924
      5917      5920      5923      5925      5917      5920      5923      5926
      5918      5917      5920      5921      5918      5917      5920      5922
      5918      5917      5920      5923      5919      5917      5920      5921
      5919      5917      5920      5922      5919      5917      5920      5923
      5920      5923      5926      5927      5920      5923      5926      5928
      5920      5923      5926      5929      5921      5920      5923      5924
      5921      5920      5923      5925      5921      5920      5923      5926
      5922      5920      5923      5924      5922      5920      5923      5925
      5922      5920      5923      5926      5923      5926      5929      5930
      5923      5926      5929      5931      5923      5926      5929      5932
      5924      5923      5926      5927      5924      5923      5926      5928
      5924      5923      5926      5929      5925      5923      5926      5927
      5925      5923      5926      5928      5925      5923      5926      5929
      5926      5929      5932      5933      5926      5929      5932      5934
      5926      5929      5932      5935      5927      5926      5929      5930
      5927      5926      5929      5931      5927      5926      5929      5932
      5928      5926      5929      5930      5928      5926      5929      5931
      5928      5926      5929      5932      5929      5932      5935      5936
      5929      5932      5935      5937      5929      5932      5935      5938
      5930      5929      5932      5933      5930      5929      5932      5934
      5930      5929      5932      5935      5931      5929      5932      5933
      5931      5929      5932      5934      5931      5929      5932      5935
      5932      5935      5938      5939      5932      5935      5938      5940
      5932      5935      5938      5941      5933      5932      5935      5936
      5933      5932      5935      5937      5933      5932      5935      5938
      5934      5932      5935      5936      5934      5932      5935      5937
      5934      5932      5935      5938      5935      5938      5941      5942
      5935      5938      5941      5943      5935      5938      5941      5944
      5936      5935      5938      5939      5936      5935      5938      5940
      5936      5935      5938      5941      5937      5935      5938      5939
      5937      5935      5938      5940      5937      5935      5938      5941
      5938      5941      5944      5945      5938      5941      5944      5946
      5938      5941      5944      5947      5939      5938      5941      5942
      5939      5938      5941      5943      5939      5938      5941      5944
      5940      5938      5941      5942      5940      5938      5941      5943
      5940      5938      5941      5944      5941      5944      5947      5948
      5941      5944      5947      5949      5941      5944      5947      5950
      5942      5941      5944      5945      5942      5941      5944      5946
      5942      5941      5944      5947      5943      5941      5944      5945
      5943      5941      5944      5946      5943      5941      5944      5947
      5944      5947      5950      5951      5944      5947      5950      5952
      5944      5947      5950      5953      5945      5944      5947      5948
      5945      5944      5947      5949      5945      5944      5947      5950
      5946      5944      5947      5948      5946      5944      5947      5949
      5946      5944      5947      5950      5947      5950      5953      5954
      5947      5950      5953      5955      5947      5950      5953      5956
      5948      5947      5950      5951      5948      5947      5950      5952
      5948      5947      5950      5953      5949      5947      5950      5951
      5949      5947      5950      5952      5949      5947      5950      5953
      5951      5950      5953      5954      5951      5950      5953      5955
      5951      5950      5953      5956      5952      5950      5953      5954
      5952      5950      5953      5955      5952      5950      5953      5956
      5957      5958      5973      5974      5957      5958      5973      5975
      5957      5958      5973      5979      5958      5957      5961      5962
      5958      5957      5961      5963      5958      5957      5961      5964
      5958      5957      5965      5966      5958      5957      5965      5967
      5958      5957      5965      5968      5958      5957      5969      5970
      5958      5957      5969      5971      5958      5957      5969      5972
      5958      5973      5979      5976      5959      5958      5957      5961
      5959      5958      5957      5965      5959      5958      5957      5969
      5959      5958      5973      5974      5959      5958      5973      5975
      5959      5958      5973      5979      5960      5958      5957      5961
      5960      5958      5957      5965      5960      5958      5957      5969
      5960      5958      5973      5974      5960      5958      5973      5975
      5960      5958      5973      5979      5961      5957      5958      5973
      5961      5957      5965      5966      5961      5957      5965      5967
      5961      5957      5965      5968      5961      5957      5969      5970
      5961      5957      5969      5971      5961      5957      5969      5972
      5962      5961      5957      5965      5962      5961      5957      5969
      5963      5961      5957      5965      5963      5961      5957      5969
      5964      5961      5957      5965      5964      5961      5957      5969
      5965      5957      5958      5973      5965      5957      5969      5970
      5965      5957      5969      5971      5965      5957      5969      5972
      5966      5965      5957      5969      5967      5965      5957      5969
      5968      5965      5957      5969      5969      5957      5958      5973
      5973      5979      5976      5977      5973      5979      5976      5978
      5973      5979      5976      5980      5974      5973      5979      5976
      5975      5973      5979      5976      5976      5980      5981      5982
      5976      5980      5981      5983      5976      5980      5981      5984
      5977      5976      5980      5981      5978      5976      5980      5981
      5979      5976      5980      5981      5980      5981      5984      5985
      5980      5981      5984      5986      5980      5981      5984      5992
      5981      5984      5986      5987      5981      5984      5992      5993
      5981      5984      5992      5994      5981      5984      5992      5995
      5982      5981      5984      5985      5982      5981      5984      5986
      5982      5981      5984      5992      5983      5981      5984      5985
      5983      5981      5984      5986      5983      5981      5984      5992
      5984      5986      5987      5988      5984      5986      5987      5989
      5984      5992      5995      5996      5985      5984      5986      5987
      5985      5984      5992      5993      5985      5984      5992      5994
      5985      5984      5992      5995      5986      5984      5992      5993
      5986      5984      5992      5994      5986      5984      5992      5995
      5986      5987      5989      5990      5986      5987      5989      5991
      5986      5987      5989      6001      5987      5986      5984      5992
      5987      5989      6001      6002      5987      5989      6001      6003
      5987      5989      6001      6004      5988      5987      5989      5990
      5988      5987      5989      5991      5988      5987      5989      6001
      5989      6001      6004      6005      5989      6001      6004      6006
      5989      6001      6004      6007      5990      5989      6001      6002
      5990      5989      6001      6003      5990      5989      6001      6004
      5991      5989      6001      6002      5991      5989      6001      6003
      5991      5989      6001      6004      5992      5995      5996      5997
      5992      5995      5996      5998      5993      5992      5995      5996
      5994      5992      5995      5996      5995      5996      5998      5999
      5995      5996      5998      6000      5995      5996      5998      6048
      5996      5998      6048      6049      5996      5998      6048      6050
      5996      5998      6048      6051      5997      5996      5998      5999
      5997      5996      5998      6000      5997      5996      5998      6048
      5998      6048      6051      6052      5998      6048      6051      6053
      5998      6048      6051      6054      5999      5998      6048      6049
      5999      5998      6048      6050      5999      5998      6048      6051
      6000      5998      6048      6049      6000      5998      6048      6050
      6000      5998      6048      6051      6001      6004      6007      6008
      6001      6004      6007      6009      6001      6004      6007      6010
      6002      6001      6004      6005      6002      6001      6004      6006
      6002      6001      6004      6007      6003      6001      6004      6005
      6003      6001      6004      6006      6003      6001      6004      6007
      6004      6007      6010      6011      6004      6007      6010      6012
      6004      6007      6010      6013      6005      6004      6007      6008
      6005      6004      6007      6009      6005      6004      6007      6010
      6006      6004      6007      6008      6006      6004      6007      6009
      6006      6004      6007      6010      6007      6010      6013      6014
      6007      6010      6013      6015      6007      6010      6013      6016
      6008      6007      6010      6011      6008      6007      6010      6012
      6008      6007      6010      6013      6009      6007      6010      6011
      6009      6007      6010      6012      6009      6007      6010      6013
      6010      6013      6016      6017      6010      6013      6016      6018
      6010      6013      6016      6019      6011      6010      6013      6014
      6011      6010      6013      6015      6011      6010      6013      6016
      6012      6010      6013      6014      6012      6010      6013      6015
      6012      6010      6013      6016      6013      6016      6019      6020
      6013      6016      6019      6021      6014      6013      6016      6017
      6014      6013      6016      6018      6014      6013      6016      6019
      6015      6013      6016      6017      6015      6013      6016      6018
      6015      6013      6016      6019      6016      6019      6021      6022
      6016      6019      6021      6023      6017      6016      6019      6020
      6017      6016      6019      6021      6018      6016      6019      6020
      6018      6016      6019      6021      6019      6021      6023      6024
      6019      6021      6023      6025      6019      6021      6023      6026
      6020      6019      6021      6022      6020      6019      6021      6023
      6021      6023      6026      6027      6021      6023      6026      6028
      6021      6023      6026      6029      6022      6021      6023      6024
      6022      6021      6023      6025      6022      6021      6023      6026
      6023      6026      6029      6030      6023      6026      6029      6031
      6023      6026      6029      6032      6024      6023      6026      6027
      6024      6023      6026      6028      6024      6023      6026      6029
      6025      6023      6026      6027      6025      6023      6026      6028
      6025      6023      6026      6029      6026      6029      6032      6033
      6026      6029      6032      6034      6026      6029      6032      6035
      6027      6026      6029      6030      6027      6026      6029      6031
      6027      6026      6029      6032      6028      6026      6029      6030
      6028      6026      6029      6031      6028      6026      6029      6032
      6029      6032      6035      6036      6029      6032      6035      6037
      6029      6032      6035      6038      6030      6029      6032      6033
      6030      6029      6032      6034      6030      6029      6032      6035
      6031      6029      6032      6033      6031      6029      6032      6034
      6031      6029      6032      6035      6032      6035      6038      6039
      6032      6035      6038      6040      6032      6035      6038      6041
      6033      6032      6035      6036      6033      6032      6035      6037
      6033      6032      6035      6038      6034      6032      6035      6036
      6034      6032      6035      6037      6034      6032      6035      6038
      6035      6038      6041      6042      6035      6038      6041      6043
      6035      6038      6041      6044      6036      6035      6038      6039
      6036      6035      6038      6040      6036      6035      6038      6041
      6037      6035      6038      6039      6037      6035      6038      6040
      6037      6035      6038      6041      6038      6041      6044      6045
      6038      6041      6044      6046      6038      6041      6044      6047
      6039      6038      6041      6042      6039      6038      6041      6043
      6039      6038      6041      6044      6040      6038      6041      6042
      6040      6038      6041      6043      6040      6038      6041      6044
      6042      6041      6044      6045      6042      6041      6044      6046
      6042      6041      6044      6047      6043      6041      6044      6045
      6043      6041      6044      6046      6043      6041      6044      6047
      6048      6051      6054      6055      6048      6051      6054      6056
      6048      6051      6054      6057      6049      6048      6051      6052
      6049      6048      6051      6053      6049      6048      6051      6054
      6050      6048      6051      6052      6050      6048      6051      6053
      6050      6048      6051      6054      6051      6054      6057      6058
      6051      6054      6057      6059      6051      6054      6057      6060
      6052      6051      6054      6055      6052      6051      6054      6056
      6052      6051      6054      6057      6053      6051      6054      6055
      6053      6051      6054      6056      6053      6051      6054      6057
      6054      6057      6060      6061      6054      6057      6060      6062
      6054      6057      6060      6063      6055      6054      6057      6058
      6055      6054      6057      6059      6055      6054      6057      6060
      6056      6054      6057      6058      6056      6054      6057      6059
      6056      6054      6057      6060      6057      6060      6063      6064
      6057      6060      6063      6065      6057      6060      6063      6066
      6058      6057      6060      6061      6058      6057      6060      6062
      6058      6057      6060      6063      6059      6057      6060      6061
      6059      6057      6060      6062      6059      6057      6060      6063
      6060      6063      6066      6067      6060      6063      6066      6068
      6060      6063      6066      6069      6061      6060      6063      6064
      6061      6060      6063      6065      6061      6060      6063      6066
      6062      6060      6063      6064      6062      6060      6063      6065
      6062      6060      6063      6066      6063      6066      6069      6070
      6063      6066      6069      6071      6063      6066      6069      6072
      6064      6063      6066      6067      6064      6063      6066      6068
      6064      6063      6066      6069      6065      6063      6066      6067
      6065      6063      6066      6068      6065      6063      6066      6069
      6066      6069      6072      6073      6066      6069      6072      6074
      6066      6069      6072      6075      6067      6066      6069      6070
      6067      6066      6069      6071      6067      6066      6069      6072
      6068      6066      6069      6070      6068      6066      6069      6071
      6068      6066      6069      6072      6069      6072      6075      6076
      6069      6072      6075      6077      6069      6072      6075      6078
      6070      6069      6072      6073      6070      6069      6072      6074
      6070      6069      6072      6075      6071      6069      6072      6073
      6071      6069      6072      6074      6071      6069      6072      6075
      6072      6075      6078      6079      6072      6075      6078      6080
      6072      6075      6078      6081      6073      6072      6075      6076
      6073      6072      6075      6077      6073      6072      6075      6078
      6074      6072      6075      6076      6074      6072      6075      6077
      6074      6072      6075      6078      6075      6078      6081      6082
      6075      6078      6081      6083      6075      6078      6081      6084
      6076      6075      6078      6079      6076      6075      6078      6080
      6076      6075      6078      6081      6077      6075      6078      6079
      6077      6075      6078      6080      6077      6075      6078      6081
      6078      6081      6084      6085      6078      6081      6084      6086
      6078      6081      6084      6087      6079      6078      6081      6082
      6079      6078      6081      6083      6079      6078      6081      6084
      6080      6078      6081      6082      6080      6078      6081      6083
      6080      6078      6081      6084      6081      6084      6087      6088
      6081      6084      6087      6089      6081      6084      6087      6090
      6082      6081      6084      6085      6082      6081      6084      6086
      6082      6081      6084      6087      6083      6081      6084      6085
      6083      6081      6084      6086      6083      6081      6084      6087
      6085      6084      6087      6088      6085      6084      6087      6089
      6085      6084      6087      6090      6086      6084      6087      6088
      6086      6084      6087      6089      6086      6084      6087      6090
      6091      6095      6098      6099      6091      6095      6098      6100
      6091      6095      6098      6105      6092      6091      6095      6096
      6092      6091      6095      6097      6092      6091      6095      6098
      6093      6091      6095      6096      6093      6091      6095      6097
      6093      6091      6095      6098      6094      6091      6095      6096
      6094      6091      6095      6097      6094      6091      6095      6098
      6095      6098      6105      6101      6096      6095      6098      6099
      6096      6095      6098      6100      6096      6095      6098      6105
      6097      6095      6098      6099      6097      6095      6098      6100
      6097      6095      6098      6105      6098      6105      6101      6102
      6098      6105      6101      6103      6098      6105      6101      6104
      6099      6098      6105      6101      6100      6098      6105      6101
      6101      6104      6106      6107      6101      6104      6106      6108
      6101      6104      6106      6109      6102      6101      6104      6106
      6103      6101      6104      6106      6104      6106      6109      6110
      6104      6106      6109      6111      6104      6106      6109      6117
      6105      6101      6104      6106      6106      6109      6111      6112
      6106      6109      6117      6118      6106      6109      6117      6119
      6106      6109      6117      6120      6107      6106      6109      6110
      6107      6106      6109      6111      6107      6106      6109      6117
      6108      6106      6109      6110      6108      6106      6109      6111
      6108      6106      6109      6117      6109      6111      6112      6113
      6109      6111      6112      6114      6109      6117      6120      6121
      6110      6109      6111      6112      6110      6109      6117      6118
      6110      6109      6117      6119      6110      6109      6117      6120
      6111      6109      6117      6118      6111      6109      6117      6119
      6111      6109      6117      6120      6111      6112      6114      6115
      6111      6112      6114      6116      6111      6112      6114      6126
      6112      6111      6109      6117      6112      6114      6126      6127
      6112      6114      6126      6128      6112      6114      6126      6129
      6113      6112      6114      6115      6113      6112      6114      6116
      6113      6112      6114      6126      6114      6126      6129      6130
      6114      6126      6129      6131      6114      6126      6129      6132
      6115      6114      6126      6127      6115      6114      6126      6128
      6115      6114      6126      6129      6116      6114      6126      6127
      6116      6114      6126      6128      6116      6114      6126      6129
      6117      6120      6121      6122      6117      6120      6121      6123
      6118      6117      6120      6121      6119      6117      6120      6121
      6120      6121      6123      6124      6120      6121      6123      6125
      6120      6121      6123      6173      6121      6123      6173      6174
      6121      6123      6173      6175      6121      6123      6173      6176
      6122      6121      6123      6124      6122      6121      6123      6125
      6122      6121      6123      6173      6123      6173      6176      6177
      6123      6173      6176      6178      6123      6173      6176      6179
      6124      6123      6173      6174      6124      6123      6173      6175
      6124      6123      6173      6176      6125      6123      6173      6174
      6125      6123      6173      6175      6125      6123      6173      6176
      6126      6129      6132      6133      6126      6129      6132      6134
      6126      6129      6132      6135      6127      6126      6129      6130
      6127      6126      6129      6131      6127      6126      6129      6132
      6128      6126      6129      6130      6128      6126      6129      6131
      6128      6126      6129      6132      6129      6132      6135      6136
      6129      6132      6135      6137      6129      6132      6135      6138
      6130      6129      6132      6133      6130      6129      6132      6134
      6130      6129      6132      6135      6131      6129      6132      6133
      6131      6129      6132      6134      6131      6129      6132      6135
      6132      6135      6138      6139      6132      6135      6138      6140
      6132      6135      6138      6141      6133      6132      6135      6136
      6133      6132      6135      6137      6133      6132      6135      6138
      6134      6132      6135      6136      6134      6132      6135      6137
      6134      6132      6135      6138      6135      6138      6141      6142
      6135      6138      6141      6143      6135      6138      6141      6144
      6136      6135      6138      6139      6136      6135      6138      6140
      6136      6135      6138      6141      6137      6135      6138      6139
      6137      6135      6138      6140      6137      6135      6138      6141
      6138      6141      6144      6145      6138      6141      6144      6146
      6139      6138      6141      6142      6139      6138      6141      6143
      6139      6138      6141      6144      6140      6138      6141      6142
      6140      6138      6141      6143      6140      6138      6141      6144
      6141      6144      6146      6147      6141      6144      6146      6148
      6142      6141      6144      6145      6142      6141      6144      6146
      6143      6141      6144      6145      6143      6141      6144      6146
      6144      6146      6148      6149      6144      6146      6148      6150
      6144      6146      6148      6151      6145      6144      6146      6147
      6145      6144      6146      6148      6146      6148      6151      6152
      6146      6148      6151      6153      6146      6148      6151      6154
      6147      6146      6148      6149      6147      6146      6148      6150
      6147      6146      6148      6151      6148      6151      6154      6155
      6148      6151      6154      6156      6148      6151      6154      6157
      6149      6148      6151      6152      6149      6148      6151      6153
      6149      6148      6151      6154      6150      6148      6151      6152
      6150      6148      6151      6153      6150      6148      6151      6154
      6151      6154      6157      6158      6151      6154      6157      6159
      6151      6154      6157      6160      6152      6151      6154      6155
      6152      6151      6154      6156      6152      6151      6154      6157
      6153      6151      6154      6155      6153      6151      6154      6156
      6153      6151      6154      6157      6154      6157      6160      6161
      6154      6157      6160      6162      6154      6157      6160      6163
      6155      6154      6157      6158      6155      6154      6157      6159
      6155      6154      6157      6160      6156      6154      6157      6158
      6156      6154      6157      6159      6156      6154      6157      6160
      6157      6160      6163      6164      6157      6160      6163      6165
      6157      6160      6163      6166      6158      6157      6160      6161
      6158      6157      6160      6162      6158      6157      6160      6163
      6159      6157      6160      6161      6159      6157      6160      6162
      6159      6157      6160      6163      6160      6163      6166      6167
      6160      6163      6166      6168      6160      6163      6166      6169
      6161      6160      6163      6164      6161      6160      6163      6165
      6161      6160      6163      6166      6162      6160      6163      6164
      6162      6160      6163      6165      6162      6160      6163      6166
      6163      6166      6169      6170      6163      6166      6169      6171
      6163      6166      6169      6172      6164      6163      6166      6167
      6164      6163      6166      6168      6164      6163      6166      6169
      6165      6163      6166      6167      6165      6163      6166      6168
      6165      6163      6166      6169      6167      6166      6169      6170
      6167      6166      6169      6171      6167      6166      6169      6172
      6168      6166      6169      6170      6168      6166      6169      6171
      6168      6166      6169      6172      6173      6176      6179      6180
      6173      6176      6179      6181      6173      6176      6179      6182
      6174      6173      6176      6177      6174      6173      6176      6178
      6174      6173      6176      6179      6175      6173      6176      6177
      6175      6173      6176      6178      6175      6173      6176      6179
      6176      6179      6182      6183      6176      6179      6182      6184
      6176      6179      6182      6185      6177      6176      6179      6180
      6177      6176      6179      6181      6177      6176      6179      6182
      6178      6176      6179      6180      6178      6176      6179      6181
      6178      6176      6179      6182      6179      6182      6185      6186
      6179      6182      6185      6187      6179      6182      6185      6188
      6180      6179      6182      6183      6180      6179      6182      6184
      6180      6179      6182      6185      6181      6179      6182      6183
      6181      6179      6182      6184      6181      6179      6182      6185
      6182      6185      6188      6189      6182      6185      6188      6190
      6182      6185      6188      6191      6183      6182      6185      6186
      6183      6182      6185      6187      6183      6182      6185      6188
      6184      6182      6185      6186      6184      6182      6185      6187
      6184      6182      6185      6188      6185      6188      6191      6192
      6185      6188      6191      6193      6185      6188      6191      6194
      6186      6185      6188      6189      6186      6185      6188      6190
      6186      6185      6188      6191      6187      6185      6188      6189
      6187      6185      6188      6190      6187      6185      6188      6191
      6188      6191      6194      6195      6188      6191      6194      6196
      6188      6191      6194      6197      6189      6188      6191      6192
      6189      6188      6191      6193      6189      6188      6191      6194
      6190      6188      6191      6192      6190      6188      6191      6193
      6190      6188      6191      6194      6191      6194      6197      6198
      6191      6194      6197      6199      6191      6194      6197      6200
      6192      6191      6194      6195      6192      6191      6194      6196
      6192      6191      6194      6197      6193      6191      6194      6195
      6193      6191      6194      6196      6193      6191      6194      6197
      6194      6197      6200      6201      6194      6197      6200      6202
      6194      6197      6200      6203      6195      6194      6197      6198
      6195      6194      6197      6199      6195      6194      6197      6200
      6196      6194      6197      6198      6196      6194      6197      6199
      6196      6194      6197      6200      6197      6200      6203      6204
      6197      6200      6203      6205      6197      6200      6203      6206
      6198      6197      6200      6201      6198      6197      6200      6202
      6198      6197      6200      6203      6199      6197      6200      6201
      6199      6197      6200      6202      6199      6197      6200      6203
      6200      6203      6206      6207      6200      6203      6206      6208
      6200      6203      6206      6209      6201      6200      6203      6204
      6201      6200      6203      6205      6201      6200      6203      6206
      6202      6200      6203      6204      6202      6200      6203      6205
      6202      6200      6203      6206      6203      6206      6209      6210
      6203      6206      6209      6211      6203      6206      6209      6212
      6204      6203      6206      6207      6204      6203      6206      6208
      6204      6203      6206      6209      6205      6203      6206      6207
      6205      6203      6206      6208      6205      6203      6206      6209
      6206      6209      6212      6213      6206      6209      6212      6214
      6206      6209      6212      6215      6207      6206      6209      6210
      6207      6206      6209      6211      6207      6206      6209      6212
      6208      6206      6209      6210      6208      6206      6209      6211
      6208      6206      6209      6212      6210      6209      6212      6213
      6210      6209      6212      6214      6210      6209      6212      6215
      6211      6209      6212      6213      6211      6209      6212      6214
      6211      6209      6212      6215      6216      6220      6223      6224
      6216      6220      6223      6225      6216      6220      6223      6230
      6217      6216      6220      6221      6217      6216      6220      6222
      6217      6216      6220      6223      6218      6216      6220      6221
      6218      6216      6220      6222      6218      6216      6220      6223
      6219      6216      6220      6221      6219      6216      6220      6222
      6219      6216      6220      6223      6220      6223      6230      6226
      6221      6220      6223      6224      6221      6220      6223      6225
      6221      6220      6223      6230      6222      6220      6223      6224
      6222      6220      6223      6225      6222      6220      6223      6230
      6223      6230      6226      6227      6223      6230      6226      6228
      6223      6230      6226      6229      6224      6223      6230      6226
      6225      6223      6230      6226      6226      6229      6231      6232
      6226      6229      6231      6233      6226      6229      6231      6234
      6227      6226      6229      6231      6228      6226      6229      6231
      6229      6231      6234      6235      6229      6231      6234      6236
      6229      6231      6234      6242      6230      6226      6229      6231
      6231      6234      6236      6237      6231      6234      6242      6243
      6231      6234      6242      6244      6231      6234      6242      6245
      6232      6231      6234      6235      6232      6231      6234      6236
      6232      6231      6234      6242      6233      6231      6234      6235
      6233      6231      6234      6236      6233      6231      6234      6242
      6234      6236      6237      6238      6234      6236      6237      6239
      6234      6242      6245      6246      6235      6234      6236      6237
      6235      6234      6242      6243      6235      6234      6242      6244
      6235      6234      6242      6245      6236      6234      6242      6243
      6236      6234      6242      6244      6236      6234      6242      6245
      6236      6237      6239      6240      6236      6237      6239      6241
      6236      6237      6239      6251      6237      6236      6234      6242
      6237      6239      6251      6252      6237      6239      6251      6253
      6237      6239      6251      6254      6238      6237      6239      6240
      6238      6237      6239      6241      6238      6237      6239      6251
      6239      6251      6254      6255      6239      6251      6254      6256
      6239      6251      6254      6257      6240      6239      6251      6252
      6240      6239      6251      6253      6240      6239      6251      6254
      6241      6239      6251      6252      6241      6239      6251      6253
      6241      6239      6251      6254      6242      6245      6246      6247
      6242      6245      6246      6248      6243      6242      6245      6246
      6244      6242      6245      6246      6245      6246      6248      6249
      6245      6246      6248      6250      6245      6246      6248      6298
      6246      6248      6298      6299      6246      6248      6298      6300
      6246      6248      6298      6301      6247      6246      6248      6249
      6247      6246      6248      6250      6247      6246      6248      6298
      6248      6298      6301      6302      6248      6298      6301      6303
      6248      6298      6301      6304      6249      6248      6298      6299
      6249      6248      6298      6300      6249      6248      6298      6301
      6250      6248      6298      6299      6250      6248      6298      6300
      6250      6248      6298      6301      6251      6254      6257      6258
      6251      6254      6257      6259      6251      6254      6257      6260
      6252      6251      6254      6255      6252      6251      6254      6256
      6252      6251      6254      6257      6253      6251      6254      6255
      6253      6251      6254      6256      6253      6251      6254      6257
      6254      6257      6260      6261      6254      6257      6260      6262
      6254      6257      6260      6263      6255      6254      6257      6258
      6255      6254      6257      6259      6255      6254      6257      6260
      6256      6254      6257      6258      6256      6254      6257      6259
      6256      6254      6257      6260      6257      6260      6263      6264
      6257      6260      6263      6265      6257      6260      6263      6266
      6258      6257      6260      6261      6258      6257      6260      6262
      6258      6257      6260      6263      6259      6257      6260      6261
      6259      6257      6260      6262      6259      6257      6260      6263
      6260      6263      6266      6267      6260      6263      6266      6268
      6260      6263      6266      6269      6261      6260      6263      6264
      6261      6260      6263      6265      6261      6260      6263      6266
      6262      6260      6263      6264      6262      6260      6263      6265
      6262      6260      6263      6266      6263      6266      6269      6270
      6263      6266      6269      6271      6264      6263      6266      6267
      6264      6263      6266      6268      6264      6263      6266      6269
      6265      6263      6266      6267      6265      6263      6266      6268
      6265      6263      6266      6269      6266      6269      6271      6272
      6266      6269      6271      6273      6267      6266      6269      6270
      6267      6266      6269      6271      6268      6266      6269      6270
      6268      6266      6269      6271      6269      6271      6273      6274
      6269      6271      6273      6275      6269      6271      6273      6276
      6270      6269      6271      6272      6270      6269      6271      6273
      6271      6273      6276      6277      6271      6273      6276      6278
      6271      6273      6276      6279      6272      6271      6273      6274
      6272      6271      6273      6275      6272      6271      6273      6276
      6273      6276      6279      6280      6273      6276      6279      6281
      6273      6276      6279      6282      6274      6273      6276      6277
      6274      6273      6276      6278      6274      6273      6276      6279
      6275      6273      6276      6277      6275      6273      6276      6278
      6275      6273      6276      6279      6276      6279      6282      6283
      6276      6279      6282      6284      6276      6279      6282      6285
      6277      6276      6279      6280      6277      6276      6279      6281
      6277      6276      6279      6282      6278      6276      6279      6280
      6278      6276      6279      6281      6278      6276      6279      6282
      6279      6282      6285      6286      6279      6282      6285      6287
      6279      6282      6285      6288      6280      6279      6282      6283
      6280      6279      6282      6284      6280      6279      6282      6285
      6281      6279      6282      6283      6281      6279      6282      6284
      6281      6279      6282      6285      6282      6285      6288      6289
      6282      6285      6288      6290      6282      6285      6288      6291
      6283      6282      6285      6286      6283      6282      6285      6287
      6283      6282      6285      6288      6284      6282      6285      6286
      6284      6282      6285      6287      6284      6282      6285      6288
      6285      6288      6291      6292      6285      6288      6291      6293
      6285      6288      6291      6294      6286      6285      6288      6289
      6286      6285      6288      6290      6286      6285      6288      6291
      6287      6285      6288      6289      6287      6285      6288      6290
      6287      6285      6288      6291      6288      6291      6294      6295
      6288      6291      6294      6296      6288      6291      6294      6297
      6289      6288      6291      6292      6289      6288      6291      6293
      6289      6288      6291      6294      6290      6288      6291      6292
      6290      6288      6291      6293      6290      6288      6291      6294
      6292      6291      6294      6295      6292      6291      6294      6296
      6292      6291      6294      6297      6293      6291      6294      6295
      6293      6291      6294      6296      6293      6291      6294      6297
      6298      6301      6304      6305      6298      6301      6304      6306
      6298      6301      6304      6307      6299      6298      6301      6302
      6299      6298      6301      6303      6299      6298      6301      6304
      6300      6298      6301      6302      6300      6298      6301      6303
      6300      6298      6301      6304      6301      6304      6307      6308
      6301      6304      6307      6309      6301      6304      6307      6310
      6302      6301      6304      6305      6302      6301      6304      6306
      6302      6301      6304      6307      6303      6301      6304      6305
      6303      6301      6304      6306      6303      6301      6304      6307
      6304      6307      6310      6311      6304      6307      6310      6312
      6304      6307      6310      6313      6305      6304      6307      6308
      6305      6304      6307      6309      6305      6304      6307      6310
      6306      6304      6307      6308      6306      6304      6307      6309
      6306      6304      6307      6310      6307      6310      6313      6314
      6307      6310      6313      6315      6307      6310      6313      6316
      6308      6307      6310      6311      6308      6307      6310      6312
      6308      6307      6310      6313      6309      6307      6310      6311
      6309      6307      6310      6312      6309      6307      6310      6313
      6310      6313      6316      6317      6310      6313      6316      6318
      6310      6313      6316      6319      6311      6310      6313      6314
      6311      6310      6313      6315      6311      6310      6313      6316
      6312      6310      6313      6314      6312      6310      6313      6315
      6312      6310      6313      6316      6313      6316      6319      6320
      6313      6316      6319      6321      6313      6316      6319      6322
      6314      6313      6316      6317      6314      6313      6316      6318
      6314      6313      6316      6319      6315      6313      6316      6317
      6315      6313      6316      6318      6315      6313      6316      6319
      6316      6319      6322      6323      6316      6319      6322      6324
      6316      6319      6322      6325      6317      6316      6319      6320
      6317      6316      6319      6321      6317      6316      6319      6322
      6318      6316      6319      6320      6318      6316      6319      6321
      6318      6316      6319      6322      6319      6322      6325      6326
      6319      6322      6325      6327      6319      6322      6325      6328
      6320      6319      6322      6323      6320      6319      6322      6324
      6320      6319      6322      6325      6321      6319      6322      6323
      6321      6319      6322      6324      6321      6319      6322      6325
      6322      6325      6328      6329      6322      6325      6328      6330
      6322      6325      6328      6331      6323      6322      6325      6326
      6323      6322      6325      6327      6323      6322      6325      6328
      6324      6322      6325      6326      6324      6322      6325      6327
      6324      6322      6325      6328      6325      6328      6331      6332
      6325      6328      6331      6333      6325      6328      6331      6334
      6326      6325      6328      6329      6326      6325      6328      6330
      6326      6325      6328      6331      6327      6325      6328      6329
      6327      6325      6328      6330      6327      6325      6328      6331
      6328      6331      6334      6335      6328      6331      6334      6336
      6328      6331      6334      6337      6329      6328      6331      6332
      6329      6328      6331      6333      6329      6328      6331      6334
      6330      6328      6331      6332      6330      6328      6331      6333
      6330      6328      6331      6334      6331      6334      6337      6338
      6331      6334      6337      6339      6331      6334      6337      6340
      6332      6331      6334      6335      6332      6331      6334      6336
      6332      6331      6334      6337      6333      6331      6334      6335
      6333      6331      6334      6336      6333      6331      6334      6337
      6335      6334      6337      6338      6335      6334      6337      6339
      6335      6334      6337      6340      6336      6334      6337      6338
      6336      6334      6337      6339      6336      6334      6337      6340
      6341      6345      6348      6349      6341      6345      6348      6350
      6341      6345      6348      6355      6342      6341      6345      6346
      6342      6341      6345      6347      6342      6341      6345      6348
      6343      6341      6345      6346      6343      6341      6345      6347
      6343      6341      6345      6348      6344      6341      6345      6346
      6344      6341      6345      6347      6344      6341      6345      6348
      6345      6348      6355      6351      6346      6345      6348      6349
      6346      6345      6348      6350      6346      6345      6348      6355
      6347      6345      6348      6349      6347      6345      6348      6350
      6347      6345      6348      6355      6348      6355      6351      6352
      6348      6355      6351      6353      6348      6355      6351      6354
      6349      6348      6355      6351      6350      6348      6355      6351
      6351      6354      6356      6357      6351      6354      6356      6358
      6351      6354      6356      6359      6352      6351      6354      6356
      6353      6351      6354      6356      6354      6356      6359      6360
      6354      6356      6359      6361      6354      6356      6359      6367
      6355      6351      6354      6356      6356      6359      6361      6362
      6356      6359      6367      6368      6356      6359      6367      6369
      6356      6359      6367      6370      6357      6356      6359      6360
      6357      6356      6359      6361      6357      6356      6359      6367
      6358      6356      6359      6360      6358      6356      6359      6361
      6358      6356      6359      6367      6359      6361      6362      6363
      6359      6361      6362      6364      6359      6367      6370      6371
      6360      6359      6361      6362      6360      6359      6367      6368
      6360      6359      6367      6369      6360      6359      6367      6370
      6361      6359      6367      6368      6361      6359      6367      6369
      6361      6359      6367      6370      6361      6362      6364      6365
      6361      6362      6364      6366      6361      6362      6364      6376
      6362      6361      6359      6367      6362      6364      6376      6377
      6362      6364      6376      6378      6362      6364      6376      6379
      6363      6362      6364      6365      6363      6362      6364      6366
      6363      6362      6364      6376      6364      6376      6379      6380
      6364      6376      6379      6381      6364      6376      6379      6382
      6365      6364      6376      6377      6365      6364      6376      6378
      6365      6364      6376      6379      6366      6364      6376      6377
      6366      6364      6376      6378      6366      6364      6376      6379
      6367      6370      6371      6372      6367      6370      6371      6373
      6368      6367      6370      6371      6369      6367      6370      6371
      6370      6371      6373      6374      6370      6371      6373      6375
      6370      6371      6373      6423      6371      6373      6423      6424
      6371      6373      6423      6425      6371      6373      6423      6426
      6372      6371      6373      6374      6372      6371      6373      6375
      6372      6371      6373      6423      6373      6423      6426      6427
      6373      6423      6426      6428      6373      6423      6426      6429
      6374      6373      6423      6424      6374      6373      6423      6425
      6374      6373      6423      6426      6375      6373      6423      6424
      6375      6373      6423      6425      6375      6373      6423      6426
      6376      6379      6382      6383      6376      6379      6382      6384
      6376      6379      6382      6385      6377      6376      6379      6380
      6377      6376      6379      6381      6377      6376      6379      6382
      6378      6376      6379      6380      6378      6376      6379      6381
      6378      6376      6379      6382      6379      6382      6385      6386
      6379      6382      6385      6387      6379      6382      6385      6388
      6380      6379      6382      6383      6380      6379      6382      6384
      6380      6379      6382      6385      6381      6379      6382      6383
      6381      6379      6382      6384      6381      6379      6382      6385
      6382      6385      6388      6389      6382      6385      6388      6390
      6382      6385      6388      6391      6383      6382      6385      6386
      6383      6382      6385      6387      6383      6382      6385      6388
      6384      6382      6385      6386      6384      6382      6385      6387
      6384      6382      6385      6388      6385      6388      6391      6392
      6385      6388      6391      6393      6385      6388      6391      6394
      6386      6385      6388      6389      6386      6385      6388      6390
      6386      6385      6388      6391      6387      6385      6388      6389
      6387      6385      6388      6390      6387      6385      6388      6391
      6388      6391      6394      6395      6388      6391      6394      6396
      6389      6388      6391      6392      6389      6388      6391      6393
      6389      6388      6391      6394      6390      6388      6391      6392
      6390      6388      6391      6393      6390      6388      6391      6394
      6391      6394      6396      6397      6391      6394      6396      6398
      6392      6391      6394      6395      6392      6391      6394      6396
      6393      6391      6394      6395      6393      6391      6394      6396
      6394      6396      6398      6399      6394      6396      6398      6400
      6394      6396      6398      6401      6395      6394      6396      6397
      6395      6394      6396      6398      6396      6398      6401      6402
      6396      6398      6401      6403      6396      6398      6401      6404
      6397      6396      6398      6399      6397      6396      6398      6400
      6397      6396      6398      6401      6398      6401      6404      6405
      6398      6401      6404      6406      6398      6401      6404      6407
      6399      6398      6401      6402      6399      6398      6401      6403
      6399      6398      6401      6404      6400      6398      6401      6402
      6400      6398      6401      6403      6400      6398      6401      6404
      6401      6404      6407      6408      6401      6404      6407      6409
      6401      6404      6407      6410      6402      6401      6404      6405
      6402      6401      6404      6406      6402      6401      6404      6407
      6403      6401      6404      6405      6403      6401      6404      6406
      6403      6401      6404      6407      6404      6407      6410      6411
      6404      6407      6410      6412      6404      6407      6410      6413
      6405      6404      6407      6408      6405      6404      6407      6409
      6405      6404      6407      6410      6406      6404      6407      6408
      6406      6404      6407      6409      6406      6404      6407      6410
      6407      6410      6413      6414      6407      6410      6413      6415
      6407      6410      6413      6416      6408      6407      6410      6411
      6408      6407      6410      6412      6408      6407      6410      6413
      6409      6407      6410      6411      6409      6407      6410      6412
      6409      6407      6410      6413      6410      6413      6416      6417
      6410      6413      6416      6418      6410      6413      6416      6419
      6411      6410      6413      6414      6411      6410      6413      6415
      6411      6410      6413      6416      6412      6410      6413      6414
      6412      6410      6413      6415      6412      6410      6413      6416
      6413      6416      6419      6420      6413      6416      6419      6421
      6413      6416      6419      6422      6414      6413      6416      6417
      6414      6413      6416      6418      6414      6413      6416      6419
      6415      6413      6416      6417      6415      6413      6416      6418
      6415      6413      6416      6419      6417      6416      6419      6420
      6417      6416      6419      6421      6417      6416      6419      6422
      6418      6416      6419      6420      6418      6416      6419      6421
      6418      6416      6419      6422      6423      6426      6429      6430
      6423      6426      6429      6431      6423      6426      6429      6432
      6424      6423      6426      6427      6424      6423      6426      6428
      6424      6423      6426      6429      6425      6423      6426      6427
      6425      6423      6426      6428      6425      6423      6426      6429
      6426      6429      6432      6433      6426      6429      6432      6434
      6426      6429      6432      6435      6427      6426      6429      6430
      6427      6426      6429      6431      6427      6426      6429      6432
      6428      6426      6429      6430      6428      6426      6429      6431
      6428      6426      6429      6432      6429      6432      6435      6436
      6429      6432      6435      6437      6429      6432      6435      6438
      6430      6429      6432      6433      6430      6429      6432      6434
      6430      6429      6432      6435      6431      6429      6432      6433
      6431      6429      6432      6434      6431      6429      6432      6435
      6432      6435      6438      6439      6432      6435      6438      6440
      6432      6435      6438      6441      6433      6432      6435      6436
      6433      6432      6435      6437      6433      6432      6435      6438
      6434      6432      6435      6436      6434      6432      6435      6437
      6434      6432      6435      6438      6435      6438      6441      6442
      6435      6438      6441      6443      6435      6438      6441      6444
      6436      6435      6438      6439      6436      6435      6438      6440
      6436      6435      6438      6441      6437      6435      6438      6439
      6437      6435      6438      6440      6437      6435      6438      6441
      6438      6441      6444      6445      6438      6441      6444      6446
      6438      6441      6444      6447      6439      6438      6441      6442
      6439      6438      6441      6443      6439      6438      6441      6444
      6440      6438      6441      6442      6440      6438      6441      6443
      6440      6438      6441      6444      6441      6444      6447      6448
      6441      6444      6447      6449      6441      6444      6447      6450
      6442      6441      6444      6445      6442      6441      6444      6446
      6442      6441      6444      6447      6443      6441      6444      6445
      6443      6441      6444      6446      6443      6441      6444      6447
      6444      6447      6450      6451      6444      6447      6450      6452
      6444      6447      6450      6453      6445      6444      6447      6448
      6445      6444      6447      6449      6445      6444      6447      6450
      6446      6444      6447      6448      6446      6444      6447      6449
      6446      6444      6447      6450      6447      6450      6453      6454
      6447      6450      6453      6455      6447      6450      6453      6456
      6448      6447      6450      6451      6448      6447      6450      6452
      6448      6447      6450      6453      6449      6447      6450      6451
      6449      6447      6450      6452      6449      6447      6450      6453
      6450      6453      6456      6457      6450      6453      6456      6458
      6450      6453      6456      6459      6451      6450      6453      6454
      6451      6450      6453      6455      6451      6450      6453      6456
      6452      6450      6453      6454      6452      6450      6453      6455
      6452      6450      6453      6456      6453      6456      6459      6460
      6453      6456      6459      6461      6453      6456      6459      6462
      6454      6453      6456      6457      6454      6453      6456      6458
      6454      6453      6456      6459      6455      6453      6456      6457
      6455      6453      6456      6458      6455      6453      6456      6459
      6456      6459      6462      6463      6456      6459      6462      6464
      6456      6459      6462      6465      6457      6456      6459      6460
      6457      6456      6459      6461      6457      6456      6459      6462
      6458      6456      6459      6460      6458      6456      6459      6461
      6458      6456      6459      6462      6460      6459      6462      6463
      6460      6459      6462      6464      6460      6459      6462      6465
      6461      6459      6462      6463      6461      6459      6462      6464
      6461      6459      6462      6465      6466      6467      6482      6483
      6466      6467      6482      6484      6466      6467      6482      6488
      6467      6466      6470      6471      6467      6466      6470      6472
      6467      6466      6470      6473      6467      6466      6474      6475
      6467      6466      6474      6476      6467      6466      6474      6477
      6467      6466      6478      6479      6467      6466      6478      6480
      6467      6466      6478      6481      6467      6482      6488      6485
      6468      6467      6466      6470      6468      6467      6466      6474
      6468      6467      6466      6478      6468      6467      6482      6483
      6468      6467      6482      6484      6468      6467      6482      6488
      6469      6467      6466      6470      6469      6467      6466      6474
      6469      6467      6466      6478      6469      6467      6482      6483
      6469      6467      6482      6484      6469      6467      6482      6488
      6470      6466      6467      6482      6470      6466      6474      6475
      6470      6466      6474      6476      6470      6466      6474      6477
      6470      6466      6478      6479      6470      6466      6478      6480
      6470      6466      6478      6481      6471      6470      6466      6474
      6471      6470      6466      6478      6472      6470      6466      6474
      6472      6470      6466      6478      6473      6470      6466      6474
      6473      6470      6466      6478      6474      6466      6467      6482
      6474      6466      6478      6479      6474      6466      6478      6480
      6474      6466      6478      6481      6475      6474      6466      6478
      6476      6474      6466      6478      6477      6474      6466      6478
      6478      6466      6467      6482      6482      6488      6485      6486
      6482      6488      6485      6487      6482      6488      6485      6489
      6483      6482      6488      6485      6484      6482      6488      6485
      6485      6489      6490      6491      6485      6489      6490      6492
      6485      6489      6490      6493      6486      6485      6489      6490
      6487      6485      6489      6490      6488      6485      6489      6490
      6489      6490      6493      6494      6489      6490      6493      6495
      6489      6490      6493      6501      6490      6493      6495      6496
      6490      6493      6501      6502      6490      6493      6501      6503
      6490      6493      6501      6504      6491      6490      6493      6494
      6491      6490      6493      6495      6491      6490      6493      6501
      6492      6490      6493      6494      6492      6490      6493      6495
      6492      6490      6493      6501      6493      6495      6496      6497
      6493      6495      6496      6498      6493      6501      6504      6505
      6494      6493      6495      6496      6494      6493      6501      6502
      6494      6493      6501      6503      6494      6493      6501      6504
      6495      6493      6501      6502      6495      6493      6501      6503
      6495      6493      6501      6504      6495      6496      6498      6499
      6495      6496      6498      6500      6495      6496      6498      6510
      6496      6495      6493      6501      6496      6498      6510      6511
      6496      6498      6510      6512      6496      6498      6510      6513
      6497      6496      6498      6499      6497      6496      6498      6500
      6497      6496      6498      6510      6498      6510      6513      6514
      6498      6510      6513      6515      6498      6510      6513      6516
      6499      6498      6510      6511      6499      6498      6510      6512
      6499      6498      6510      6513      6500      6498      6510      6511
      6500      6498      6510      6512      6500      6498      6510      6513
      6501      6504      6505      6506      6501      6504      6505      6507
      6502      6501      6504      6505      6503      6501      6504      6505
      6504      6505      6507      6508      6504      6505      6507      6509
      6504      6505      6507      6557      6505      6507      6557      6558
      6505      6507      6557      6559      6505      6507      6557      6560
      6506      6505      6507      6508      6506      6505      6507      6509
      6506      6505      6507      6557      6507      6557      6560      6561
      6507      6557      6560      6562      6507      6557      6560      6563
      6508      6507      6557      6558      6508      6507      6557      6559
      6508      6507      6557      6560      6509      6507      6557      6558
      6509      6507      6557      6559      6509      6507      6557      6560
      6510      6513      6516      6517      6510      6513      6516      6518
      6510      6513      6516      6519      6511      6510      6513      6514
      6511      6510      6513      6515      6511      6510      6513      6516
      6512      6510      6513      6514      6512      6510      6513      6515
      6512      6510      6513      6516      6513      6516      6519      6520
      6513      6516      6519      6521      6513      6516      6519      6522
      6514      6513      6516      6517      6514      6513      6516      6518
      6514      6513      6516      6519      6515      6513      6516      6517
      6515      6513      6516      6518      6515      6513      6516      6519
      6516      6519      6522      6523      6516      6519      6522      6524
      6516      6519      6522      6525      6517      6516      6519      6520
      6517      6516      6519      6521      6517      6516      6519      6522
      6518      6516      6519      6520      6518      6516      6519      6521
      6518      6516      6519      6522      6519      6522      6525      6526
      6519      6522      6525      6527      6519      6522      6525      6528
      6520      6519      6522      6523      6520      6519      6522      6524
      6520      6519      6522      6525      6521      6519      6522      6523
      6521      6519      6522      6524      6521      6519      6522      6525
      6522      6525      6528      6529      6522      6525      6528      6530
      6523      6522      6525      6526      6523      6522      6525      6527
      6523      6522      6525      6528      6524      6522      6525      6526
      6524      6522      6525      6527      6524      6522      6525      6528
      6525      6528      6530      6531      6525      6528      6530      6532
      6526      6525      6528      6529      6526      6525      6528      6530
      6527      6525      6528      6529      6527      6525      6528      6530
      6528      6530      6532      6533      6528      6530      6532      6534
      6528      6530      6532      6535      6529      6528      6530      6531
      6529      6528      6530      6532      6530      6532      6535      6536
      6530      6532      6535      6537      6530      6532      6535      6538
      6531      6530      6532      6533      6531      6530      6532      6534
      6531      6530      6532      6535      6532      6535      6538      6539
      6532      6535      6538      6540      6532      6535      6538      6541
      6533      6532      6535      6536      6533      6532      6535      6537
      6533      6532      6535      6538      6534      6532      6535      6536
      6534      6532      6535      6537      6534      6532      6535      6538
      6535      6538      6541      6542      6535      6538      6541      6543
      6535      6538      6541      6544      6536      6535      6538      6539
      6536      6535      6538      6540      6536      6535      6538      6541
      6537      6535      6538      6539      6537      6535      6538      6540
      6537      6535      6538      6541      6538      6541      6544      6545
      6538      6541      6544      6546      6538      6541      6544      6547
      6539      6538      6541      6542      6539      6538      6541      6543
      6539      6538      6541      6544      6540      6538      6541      6542
      6540      6538      6541      6543      6540      6538      6541      6544
      6541      6544      6547      6548      6541      6544      6547      6549
      6541      6544      6547      6550      6542      6541      6544      6545
      6542      6541      6544      6546      6542      6541      6544      6547
      6543      6541      6544      6545      6543      6541      6544      6546
      6543      6541      6544      6547      6544      6547      6550      6551
      6544      6547      6550      6552      6544      6547      6550      6553
      6545      6544      6547      6548      6545      6544      6547      6549
      6545      6544      6547      6550      6546      6544      6547      6548
      6546      6544      6547      6549      6546      6544      6547      6550
      6547      6550      6553      6554      6547      6550      6553      6555
      6547      6550      6553      6556      6548      6547      6550      6551
      6548      6547      6550      6552      6548      6547      6550      6553
      6549      6547      6550      6551      6549      6547      6550      6552
      6549      6547      6550      6553      6551      6550      6553      6554
      6551      6550      6553      6555      6551      6550      6553      6556
      6552      6550      6553      6554      6552      6550      6553      6555
      6552      6550      6553      6556      6557      6560      6563      6564
      6557      6560      6563      6565      6557      6560      6563      6566
      6558      6557      6560      6561      6558      6557      6560      6562
      6558      6557      6560      6563      6559      6557      6560      6561
      6559      6557      6560      6562      6559      6557      6560      6563
      6560      6563      6566      6567      6560      6563      6566      6568
      6560      6563      6566      6569      6561      6560      6563      6564
      6561      6560      6563      6565      6561      6560      6563      6566
      6562      6560      6563      6564      6562      6560      6563      6565
      6562      6560      6563      6566      6563      6566      6569      6570
      6563      6566      6569      6571      6563      6566      6569      6572
      6564      6563      6566      6567      6564      6563      6566      6568
      6564      6563      6566      6569      6565      6563      6566      6567
      6565      6563      6566      6568      6565      6563      6566      6569
      6566      6569      6572      6573      6566      6569      6572      6574
      6566      6569      6572      6575      6567      6566      6569      6570
      6567      6566      6569      6571      6567      6566      6569      6572
      6568      6566      6569      6570      6568      6566      6569      6571
      6568      6566      6569      6572      6569      6572      6575      6576
      6569      6572      6575      6577      6569      6572      6575      6578
      6570      6569      6572      6573      6570      6569      6572      6574
      6570      6569      6572      6575      6571      6569      6572      6573
      6571      6569      6572      6574      6571      6569      6572      6575
      6572      6575      6578      6579      6572      6575      6578      6580
      6572      6575      6578      6581      6573      6572      6575      6576
      6573      6572      6575      6577      6573      6572      6575      6578
      6574      6572      6575      6576      6574      6572      6575      6577
      6574      6572      6575      6578      6575      6578      6581      6582
      6575      6578      6581      6583      6575      6578      6581      6584
      6576      6575      6578      6579      6576      6575      6578      6580
      6576      6575      6578      6581      6577      6575      6578      6579
      6577      6575      6578      6580      6577      6575      6578      6581
      6578      6581      6584      6585      6578      6581      6584      6586
      6578      6581      6584      6587      6579      6578      6581      6582
      6579      6578      6581      6583      6579      6578      6581      6584
      6580      6578      6581      6582      6580      6578      6581      6583
      6580      6578      6581      6584      6581      6584      6587      6588
      6581      6584      6587      6589      6581      6584      6587      6590
      6582      6581      6584      6585      6582      6581      6584      6586
      6582      6581      6584      6587      6583      6581      6584      6585
      6583      6581      6584      6586      6583      6581      6584      6587
      6584      6587      6590      6591      6584      6587      6590      6592
      6584      6587      6590      6593      6585      6584      6587      6588
      6585      6584      6587      6589      6585      6584      6587      6590
      6586      6584      6587      6588      6586      6584      6587      6589
      6586      6584      6587      6590      6587      6590      6593      6594
      6587      6590      6593      6595      6587      6590      6593      6596
      6588      6587      6590      6591      6588      6587      6590      6592
      6588      6587      6590      6593      6589      6587      6590      6591
      6589      6587      6590      6592      6589      6587      6590      6593
      6590      6593      6596      6597      6590      6593      6596      6598
      6590      6593      6596      6599      6591      6590      6593      6594
      6591      6590      6593      6595      6591      6590      6593      6596
      6592      6590      6593      6594      6592      6590      6593      6595
      6592      6590      6593      6596      6594      6593      6596      6597
      6594      6593      6596      6598      6594      6593      6596      6599
      6595      6593      6596      6597      6595      6593      6596      6598
      6595      6593      6596      6599      6600      6601      6616      6617
      6600      6601      6616      6618      6600      6601      6616      6622
      6601      6600      6604      6605      6601      6600      6604      6606
      6601      6600      6604      6607      6601      6600      6608      6609
      6601      6600      6608      6610      6601      6600      6608      6611
      6601      6600      6612      6613      6601      6600      6612      6614
      6601      6600      6612      6615      6601      6616      6622      6619
      6602      6601      6600      6604      6602      6601      6600      6608
      6602      6601      6600      6612      6602      6601      6616      6617
      6602      6601      6616      6618      6602      6601      6616      6622
      6603      6601      6600      6604      6603      6601      6600      6608
      6603      6601      6600      6612      6603      6601      6616      6617
      6603      6601      6616      6618      6603      6601      6616      6622
      6604      6600      6601      6616      6604      6600      6608      6609
      6604      6600      6608      6610      6604      6600      6608      6611
      6604      6600      6612      6613      6604      6600      6612      6614
      6604      6600      6612      6615      6605      6604      6600      6608
      6605      6604      6600      6612      6606      6604      6600      6608
      6606      6604      6600      6612      6607      6604      6600      6608
      6607      6604      6600      6612      6608      6600      6601      6616
      6608      6600      6612      6613      6608      6600      6612      6614
      6608      6600      6612      6615      6609      6608      6600      6612
      6610      6608      6600      6612      6611      6608      6600      6612
      6612      6600      6601      6616      6616      6622      6619      6620
      6616      6622      6619      6621      6616      6622      6619      6623
      6617      6616      6622      6619      6618      6616      6622      6619
      6619      6623      6624      6625      6619      6623      6624      6626
      6619      6623      6624      6627      6620      6619      6623      6624
      6621      6619      6623      6624      6622      6619      6623      6624
      6623      6624      6627      6628      6623      6624      6627      6629
      6623      6624      6627      6635      6624      6627      6629      6630
      6624      6627      6635      6636      6624      6627      6635      6637
      6624      6627      6635      6638      6625      6624      6627      6628
      6625      6624      6627      6629      6625      6624      6627      6635
      6626      6624      6627      6628      6626      6624      6627      6629
      6626      6624      6627      6635      6627      6629      6630      6631
      6627      6629      6630      6632      6627      6635      6638      6639
      6628      6627      6629      6630      6628      6627      6635      6636
      6628      6627      6635      6637      6628      6627      6635      6638
      6629      6627      6635      6636      6629      6627      6635      6637
      6629      6627      6635      6638      6629      6630      6632      6633
      6629      6630      6632      6634      6629      6630      6632      6644
      6630      6629      6627      6635      6630      6632      6644      6645
      6630      6632      6644      6646      6630      6632      6644      6647
      6631      6630      6632      6633      6631      6630      6632      6634
      6631      6630      6632      6644      6632      6644      6647      6648
      6632      6644      6647      6649      6632      6644      6647      6650
      6633      6632      6644      6645      6633      6632      6644      6646
      6633      6632      6644      6647      6634      6632      6644      6645
      6634      6632      6644      6646      6634      6632      6644      6647
      6635      6638      6639      6640      6635      6638      6639      6641
      6636      6635      6638      6639      6637      6635      6638      6639
      6638      6639      6641      6642      6638      6639      6641      6643
      6638      6639      6641      6691      6639      6641      6691      6692
      6639      6641      6691      6693      6639      6641      6691      6694
      6640      6639      6641      6642      6640      6639      6641      6643
      6640      6639      6641      6691      6641      6691      6694      6695
      6641      6691      6694      6696      6641      6691      6694      6697
      6642      6641      6691      6692      6642      6641      6691      6693
      6642      6641      6691      6694      6643      6641      6691      6692
      6643      6641      6691      6693      6643      6641      6691      6694
      6644      6647      6650      6651      6644      6647      6650      6652
      6644      6647      6650      6653      6645      6644      6647      6648
      6645      6644      6647      6649      6645      6644      6647      6650
      6646      6644      6647      6648      6646      6644      6647      6649
      6646      6644      6647      6650      6647      6650      6653      6654
      6647      6650      6653      6655      6647      6650      6653      6656
      6648      6647      6650      6651      6648      6647      6650      6652
      6648      6647      6650      6653      6649      6647      6650      6651
      6649      6647      6650      6652      6649      6647      6650      6653
      6650      6653      6656      6657      6650      6653      6656      6658
      6650      6653      6656      6659      6651      6650      6653      6654
      6651      6650      6653      6655      6651      6650      6653      6656
      6652      6650      6653      6654      6652      6650      6653      6655
      6652      6650      6653      6656      6653      6656      6659      6660
      6653      6656      6659      6661      6653      6656      6659      6662
      6654      6653      6656      6657      6654      6653      6656      6658
      6654      6653      6656      6659      6655      6653      6656      6657
      6655      6653      6656      6658      6655      6653      6656      6659
      6656      6659      6662      6663      6656      6659      6662      6664
      6657      6656      6659      6660      6657      6656      6659      6661
      6657      6656      6659      6662      6658      6656      6659      6660
      6658      6656      6659      6661      6658      6656      6659      6662
      6659      6662      6664      6665      6659      6662      6664      6666
      6660      6659      6662      6663      6660      6659      6662      6664
      6661      6659      6662      6663      6661      6659      6662      6664
      6662      6664      6666      6667      6662      6664      6666      6668
      6662      6664      6666      6669      6663      6662      6664      6665
      6663      6662      6664      6666      6664      6666      6669      6670
      6664      6666      6669      6671      6664      6666      6669      6672
      6665      6664      6666      6667      6665      6664      6666      6668
      6665      6664      6666      6669      6666      6669      6672      6673
      6666      6669      6672      6674      6666      6669      6672      6675
      6667      6666      6669      6670      6667      6666      6669      6671
      6667      6666      6669      6672      6668      6666      6669      6670
      6668      6666      6669      6671      6668      6666      6669      6672
      6669      6672      6675      6676      6669      6672      6675      6677
      6669      6672      6675      6678      6670      6669      6672      6673
      6670      6669      6672      6674      6670      6669      6672      6675
      6671      6669      6672      6673      6671      6669      6672      6674
      6671      6669      6672      6675      6672      6675      6678      6679
      6672      6675      6678      6680      6672      6675      6678      6681
      6673      6672      6675      6676      6673      6672      6675      6677
      6673      6672      6675      6678      6674      6672      6675      6676
      6674      6672      6675      6677      6674      6672      6675      6678
      6675      6678      6681      6682      6675      6678      6681      6683
      6675      6678      6681      6684      6676      6675      6678      6679
      6676      6675      6678      6680      6676      6675      6678      6681
      6677      6675      6678      6679      6677      6675      6678      6680
      6677      6675      6678      6681      6678      6681      6684      6685
      6678      6681      6684      6686      6678      6681      6684      6687
      6679      6678      6681      6682      6679      6678      6681      6683
      6679      6678      6681      6684      6680      6678      6681      6682
      6680      6678      6681      6683      6680      6678      6681      6684
      6681      6684      6687      6688      6681      6684      6687      6689
      6681      6684      6687      6690      6682      6681      6684      6685
      6682      6681      6684      6686      6682      6681      6684      6687
      6683      6681      6684      6685      6683      6681      6684      6686
      6683      6681      6684      6687      6685      6684      6687      6688
      6685      6684      6687      6689      6685      6684      6687      6690
      6686      6684      6687      6688      6686      6684      6687      6689
      6686      6684      6687      6690      6691      6694      6697      6698
      6691      6694      6697      6699      6691      6694      6697      6700
      6692      6691      6694      6695      6692      6691      6694      6696
      6692      6691      6694      6697      6693      6691      6694      6695
      6693      6691      6694      6696      6693      6691      6694      6697
      6694      6697      6700      6701      6694      6697      6700      6702
      6694      6697      6700      6703      6695      6694      6697      6698
      6695      6694      6697      6699      6695      6694      6697      6700
      6696      6694      6697      6698      6696      6694      6697      6699
      6696      6694      6697      6700      6697      6700      6703      6704
      6697      6700      6703      6705      6697      6700      6703      6706
      6698      6697      6700      6701      6698      6697      6700      6702
      6698      6697      6700      6703      6699      6697      6700      6701
      6699      6697      6700      6702      6699      6697      6700      6703
      6700      6703      6706      6707      6700      6703      6706      6708
      6700      6703      6706      6709      6701      6700      6703      6704
      6701      6700      6703      6705      6701      6700      6703      6706
      6702      6700      6703      6704      6702      6700      6703      6705
      6702      6700      6703      6706      6703      6706      6709      6710
      6703      6706      6709      6711      6703      6706      6709      6712
      6704      6703      6706      6707      6704      6703      6706      6708
      6704      6703      6706      6709      6705      6703      6706      6707
      6705      6703      6706      6708      6705      6703      6706      6709
      6706      6709      6712      6713      6706      6709      6712      6714
      6706      6709      6712      6715      6707      6706      6709      6710
      6707      6706      6709      6711      6707      6706      6709      6712
      6708      6706      6709      6710      6708      6706      6709      6711
      6708      6706      6709      6712      6709      6712      6715      6716
      6709      6712      6715      6717      6709      6712      6715      6718
      6710      6709      6712      6713      6710      6709      6712      6714
      6710      6709      6712      6715      6711      6709      6712      6713
      6711      6709      6712      6714      6711      6709      6712      6715
      6712      6715      6718      6719      6712      6715      6718      6720
      6712      6715      6718      6721      6713      6712      6715      6716
      6713      6712      6715      6717      6713      6712      6715      6718
      6714      6712      6715      6716      6714      6712      6715      6717
      6714      6712      6715      6718      6715      6718      6721      6722
      6715      6718      6721      6723      6715      6718      6721      6724
      6716      6715      6718      6719      6716      6715      6718      6720
      6716      6715      6718      6721      6717      6715      6718      6719
      6717      6715      6718      6720      6717      6715      6718      6721
      6718      6721      6724      6725      6718      6721      6724      6726
      6718      6721      6724      6727      6719      6718      6721      6722
      6719      6718      6721      6723      6719      6718      6721      6724
      6720      6718      6721      6722      6720      6718      6721      6723
      6720      6718      6721      6724      6721      6724      6727      6728
      6721      6724      6727      6729      6721      6724      6727      6730
      6722      6721      6724      6725      6722      6721      6724      6726
      6722      6721      6724      6727      6723      6721      6724      6725
      6723      6721      6724      6726      6723      6721      6724      6727
      6724      6727      6730      6731      6724      6727      6730      6732
      6724      6727      6730      6733      6725      6724      6727      6728
      6725      6724      6727      6729      6725      6724      6727      6730
      6726      6724      6727      6728      6726      6724      6727      6729
      6726      6724      6727      6730      6728      6727      6730      6731
      6728      6727      6730      6732      6728      6727      6730      6733
      6729      6727      6730      6731      6729      6727      6730      6732
      6729      6727      6730      6733      6734      6738      6741      6742
      6734      6738      6741      6743      6734      6738      6741      6748
      6735      6734      6738      6739      6735      6734      6738      6740
      6735      6734      6738      6741      6736      6734      6738      6739
      6736      6734      6738      6740      6736      6734      6738      6741
      6737      6734      6738      6739      6737      6734      6738      6740
      6737      6734      6738      6741      6738      6741      6748      6744
      6739      6738      6741      6742      6739      6738      6741      6743
      6739      6738      6741      6748      6740      6738      6741      6742
      6740      6738      6741      6743      6740      6738      6741      6748
      6741      6748      6744      6745      6741      6748      6744      6746
      6741      6748      6744      6747      6742      6741      6748      6744
      6743      6741      6748      6744      6744      6747      6749      6750
      6744      6747      6749      6751      6744      6747      6749      6752
      6745      6744      6747      6749      6746      6744      6747      6749
      6747      6749      6752      6753      6747      6749      6752      6754
      6747      6749      6752      6760      6748      6744      6747      6749
      6749      6752      6754      6755      6749      6752      6760      6761
      6749      6752      6760      6762      6749      6752      6760      6763
      6750      6749      6752      6753      6750      6749      6752      6754
      6750      6749      6752      6760      6751      6749      6752      6753
      6751      6749      6752      6754      6751      6749      6752      6760
      6752      6754      6755      6756      6752      6754      6755      6757
      6752      6760      6763      6764      6753      6752      6754      6755
      6753      6752      6760      6761      6753      6752      6760      6762
      6753      6752      6760      6763      6754      6752      6760      6761
      6754      6752      6760      6762      6754      6752      6760      6763
      6754      6755      6757      6758      6754      6755      6757      6759
      6754      6755      6757      6769      6755      6754      6752      6760
      6755      6757      6769      6770      6755      6757      6769      6771
      6755      6757      6769      6772      6756      6755      6757      6758
      6756      6755      6757      6759      6756      6755      6757      6769
      6757      6769      6772      6773      6757      6769      6772      6774
      6757      6769      6772      6775      6758      6757      6769      6770
      6758      6757      6769      6771      6758      6757      6769      6772
      6759      6757      6769      6770      6759      6757      6769      6771
      6759      6757      6769      6772      6760      6763      6764      6765
      6760      6763      6764      6766      6761      6760      6763      6764
      6762      6760      6763      6764      6763      6764      6766      6767
      6763      6764      6766      6768      6763      6764      6766      6816
      6764      6766      6816      6817      6764      6766      6816      6818
      6764      6766      6816      6819      6765      6764      6766      6767
      6765      6764      6766      6768      6765      6764      6766      6816
      6766      6816      6819      6820      6766      6816      6819      6821
      6766      6816      6819      6822      6767      6766      6816      6817
      6767      6766      6816      6818      6767      6766      6816      6819
      6768      6766      6816      6817      6768      6766      6816      6818
      6768      6766      6816      6819      6769      6772      6775      6776
      6769      6772      6775      6777      6769      6772      6775      6778
      6770      6769      6772      6773      6770      6769      6772      6774
      6770      6769      6772      6775      6771      6769      6772      6773
      6771      6769      6772      6774      6771      6769      6772      6775
      6772      6775      6778      6779      6772      6775      6778      6780
      6772      6775      6778      6781      6773      6772      6775      6776
      6773      6772      6775      6777      6773      6772      6775      6778
      6774      6772      6775      6776      6774      6772      6775      6777
      6774      6772      6775      6778      6775      6778      6781      6782
      6775      6778      6781      6783      6775      6778      6781      6784
      6776      6775      6778      6779      6776      6775      6778      6780
      6776      6775      6778      6781      6777      6775      6778      6779
      6777      6775      6778      6780      6777      6775      6778      6781
      6778      6781      6784      6785      6778      6781      6784      6786
      6778      6781      6784      6787      6779      6778      6781      6782
      6779      6778      6781      6783      6779      6778      6781      6784
      6780      6778      6781      6782      6780      6778      6781      6783
      6780      6778      6781      6784      6781      6784      6787      6788
      6781      6784      6787      6789      6782      6781      6784      6785
      6782      6781      6784      6786      6782      6781      6784      6787
      6783      6781      6784      6785      6783      6781      6784      6786
      6783      6781      6784      6787      6784      6787      6789      6790
      6784      6787      6789      6791      6785      6784      6787      6788
      6785      6784      6787      6789      6786      6784      6787      6788
      6786      6784      6787      6789      6787      6789      6791      6792
      6787      6789      6791      6793      6787      6789      6791      6794
      6788      6787      6789      6790      6788      6787      6789      6791
      6789      6791      6794      6795      6789      6791      6794      6796
      6789      6791      6794      6797      6790      6789      6791      6792
      6790      6789      6791      6793      6790      6789      6791      6794
      6791      6794      6797      6798      6791      6794      6797      6799
      6791      6794      6797      6800      6792      6791      6794      6795
      6792      6791      6794      6796      6792      6791      6794      6797
      6793      6791      6794      6795      6793      6791      6794      6796
      6793      6791      6794      6797      6794      6797      6800      6801
      6794      6797      6800      6802      6794      6797      6800      6803
      6795      6794      6797      6798      6795      6794      6797      6799
      6795      6794      6797      6800      6796      6794      6797      6798
      6796      6794      6797      6799      6796      6794      6797      6800
      6797      6800      6803      6804      6797      6800      6803      6805
      6797      6800      6803      6806      6798      6797      6800      6801
      6798      6797      6800      6802      6798      6797      6800      6803
      6799      6797      6800      6801      6799      6797      6800      6802
      6799      6797      6800      6803      6800      6803      6806      6807
      6800      6803      6806      6808      6800      6803      6806      6809
      6801      6800      6803      6804      6801      6800      6803      6805
      6801      6800      6803      6806      6802      6800      6803      6804
      6802      6800      6803      6805      6802      6800      6803      6806
      6803      6806      6809      6810      6803      6806      6809      6811
      6803      6806      6809      6812      6804      6803      6806      6807
      6804      6803      6806      6808      6804      6803      6806      6809
      6805      6803      6806      6807      6805      6803      6806      6808
      6805      6803      6806      6809      6806      6809      6812      6813
      6806      6809      6812      6814      6806      6809      6812      6815
      6807      6806      6809      6810      6807      6806      6809      6811
      6807      6806      6809      6812      6808      6806      6809      6810
      6808      6806      6809      6811      6808      6806      6809      6812
      6810      6809      6812      6813      6810      6809      6812      6814
      6810      6809      6812      6815      6811      6809      6812      6813
      6811      6809      6812      6814      6811      6809      6812      6815
      6816      6819      6822      6823      6816      6819      6822      6824
      6816      6819      6822      6825      6817      6816      6819      6820
      6817      6816      6819      6821      6817      6816      6819      6822
      6818      6816      6819      6820      6818      6816      6819      6821
      6818      6816      6819      6822      6819      6822      6825      6826
      6819      6822      6825      6827      6819      6822      6825      6828
      6820      6819      6822      6823      6820      6819      6822      6824
      6820      6819      6822      6825      6821      6819      6822      6823
      6821      6819      6822      6824      6821      6819      6822      6825
      6822      6825      6828      6829      6822      6825      6828      6830
      6822      6825      6828      6831      6823      6822      6825      6826
      6823      6822      6825      6827      6823      6822      6825      6828
      6824      6822      6825      6826      6824      6822      6825      6827
      6824      6822      6825      6828      6825      6828      6831      6832
      6825      6828      6831      6833      6825      6828      6831      6834
      6826      6825      6828      6829      6826      6825      6828      6830
      6826      6825      6828      6831      6827      6825      6828      6829
      6827      6825      6828      6830      6827      6825      6828      6831
      6828      6831      6834      6835      6828      6831      6834      6836
      6828      6831      6834      6837      6829      6828      6831      6832
      6829      6828      6831      6833      6829      6828      6831      6834
      6830      6828      6831      6832      6830      6828      6831      6833
      6830      6828      6831      6834      6831      6834      6837      6838
      6831      6834      6837      6839      6831      6834      6837      6840
      6832      6831      6834      6835      6832      6831      6834      6836
      6832      6831      6834      6837      6833      6831      6834      6835
      6833      6831      6834      6836      6833      6831      6834      6837
      6834      6837      6840      6841      6834      6837      6840      6842
      6834      6837      6840      6843      6835      6834      6837      6838
      6835      6834      6837      6839      6835      6834      6837      6840
      6836      6834      6837      6838      6836      6834      6837      6839
      6836      6834      6837      6840      6837      6840      6843      6844
      6837      6840      6843      6845      6837      6840      6843      6846
      6838      6837      6840      6841      6838      6837      6840      6842
      6838      6837      6840      6843      6839      6837      6840      6841
      6839      6837      6840      6842      6839      6837      6840      6843
      6840      6843      6846      6847      6840      6843      6846      6848
      6840      6843      6846      6849      6841      6840      6843      6844
      6841      6840      6843      6845      6841      6840      6843      6846
      6842      6840      6843      6844      6842      6840      6843      6845
      6842      6840      6843      6846      6843      6846      6849      6850
      6843      6846      6849      6851      6843      6846      6849      6852
      6844      6843      6846      6847      6844      6843      6846      6848
      6844      6843      6846      6849      6845      6843      6846      6847
      6845      6843      6846      6848      6845      6843      6846      6849
      6846      6849      6852      6853      6846      6849      6852      6854
      6846      6849      6852      6855      6847      6846      6849      6850
      6847      6846      6849      6851      6847      6846      6849      6852
      6848      6846      6849      6850      6848      6846      6849      6851
      6848      6846      6849      6852      6849      6852      6855      6856
      6849      6852      6855      6857      6849      6852      6855      6858
      6850      6849      6852      6853      6850      6849      6852      6854
      6850      6849      6852      6855      6851      6849      6852      6853
      6851      6849      6852      6854      6851      6849      6852      6855
      6853      6852      6855      6856      6853      6852      6855      6857
      6853      6852      6855      6858      6854      6852      6855      6856
      6854      6852      6855      6857      6854      6852      6855      6858
      6859      6863      6866      6867      6859      6863      6866      6868
      6859      6863      6866      6873      6860      6859      6863      6864
      6860      6859      6863      6865      6860      6859      6863      6866
      6861      6859      6863      6864      6861      6859      6863      6865
      6861      6859      6863      6866      6862      6859      6863      6864
      6862      6859      6863      6865      6862      6859      6863      6866
      6863      6866      6873      6869      6864      6863      6866      6867
      6864      6863      6866      6868      6864      6863      6866      6873
      6865      6863      6866      6867      6865      6863      6866      6868
      6865      6863      6866      6873      6866      6873      6869      6870
      6866      6873      6869      6871      6866      6873      6869      6872
      6867      6866      6873      6869      6868      6866      6873      6869
      6869      6872      6874      6875      6869      6872      6874      6876
      6869      6872      6874      6877      6870      6869      6872      6874
      6871      6869      6872      6874      6872      6874      6877      6878
      6872      6874      6877      6879      6872      6874      6877      6885
      6873      6869      6872      6874      6874      6877      6879      6880
      6874      6877      6885      6886      6874      6877      6885      6887
      6874      6877      6885      6888      6875      6874      6877      6878
      6875      6874      6877      6879      6875      6874      6877      6885
      6876      6874      6877      6878      6876      6874      6877      6879
      6876      6874      6877      6885      6877      6879      6880      6881
      6877      6879      6880      6882      6877      6885      6888      6889
      6878      6877      6879      6880      6878      6877      6885      6886
      6878      6877      6885      6887      6878      6877      6885      6888
      6879      6877      6885      6886      6879      6877      6885      6887
      6879      6877      6885      6888      6879      6880      6882      6883
      6879      6880      6882      6884      6879      6880      6882      6894
      6880      6879      6877      6885      6880      6882      6894      6895
      6880      6882      6894      6896      6880      6882      6894      6897
      6881      6880      6882      6883      6881      6880      6882      6884
      6881      6880      6882      6894      6882      6894      6897      6898
      6882      6894      6897      6899      6882      6894      6897      6900
      6883      6882      6894      6895      6883      6882      6894      6896
      6883      6882      6894      6897      6884      6882      6894      6895
      6884      6882      6894      6896      6884      6882      6894      6897
      6885      6888      6889      6890      6885      6888      6889      6891
      6886      6885      6888      6889      6887      6885      6888      6889
      6888      6889      6891      6892      6888      6889      6891      6893
      6888      6889      6891      6941      6889      6891      6941      6942
      6889      6891      6941      6943      6889      6891      6941      6944
      6890      6889      6891      6892      6890      6889      6891      6893
      6890      6889      6891      6941      6891      6941      6944      6945
      6891      6941      6944      6946      6891      6941      6944      6947
      6892      6891      6941      6942      6892      6891      6941      6943
      6892      6891      6941      6944      6893      6891      6941      6942
      6893      6891      6941      6943      6893      6891      6941      6944
      6894      6897      6900      6901      6894      6897      6900      6902
      6894      6897      6900      6903      6895      6894      6897      6898
      6895      6894      6897      6899      6895      6894      6897      6900
      6896      6894      6897      6898      6896      6894      6897      6899
      6896      6894      6897      6900      6897      6900      6903      6904
      6897      6900      6903      6905      6897      6900      6903      6906
      6898      6897      6900      6901      6898      6897      6900      6902
      6898      6897      6900      6903      6899      6897      6900      6901
      6899      6897      6900      6902      6899      6897      6900      6903
      6900      6903      6906      6907      6900      6903      6906      6908
      6900      6903      6906      6909      6901      6900      6903      6904
      6901      6900      6903      6905      6901      6900      6903      6906
      6902      6900      6903      6904      6902      6900      6903      6905
      6902      6900      6903      6906      6903      6906      6909      6910
      6903      6906      6909      6911      6903      6906      6909      6912
      6904      6903      6906      6907      6904      6903      6906      6908
      6904      6903      6906      6909      6905      6903      6906      6907
      6905      6903      6906      6908      6905      6903      6906      6909
      6906      6909      6912      6913      6906      6909      6912      6914
      6907      6906      6909      6910      6907      6906      6909      6911
      6907      6906      6909      6912      6908      6906      6909      6910
      6908      6906      6909      6911      6908      6906      6909      6912
      6909      6912      6914      6915      6909      6912      6914      6916
      6910      6909      6912      6913      6910      6909      6912      6914
      6911      6909      6912      6913      6911      6909      6912      6914
      6912      6914      6916      6917      6912      6914      6916      6918
      6912      6914      6916      6919      6913      6912      6914      6915
      6913      6912      6914      6916      6914      6916      6919      6920
      6914      6916      6919      6921      6914      6916      6919      6922
      6915      6914      6916      6917      6915      6914      6916      6918
      6915      6914      6916      6919      6916      6919      6922      6923
      6916      6919      6922      6924      6916      6919      6922      6925
      6917      6916      6919      6920      6917      6916      6919      6921
      6917      6916      6919      6922      6918      6916      6919      6920
      6918      6916      6919      6921      6918      6916      6919      6922
      6919      6922      6925      6926      6919      6922      6925      6927
      6919      6922      6925      6928      6920      6919      6922      6923
      6920      6919      6922      6924      6920      6919      6922      6925
      6921      6919      6922      6923      6921      6919      6922      6924
      6921      6919      6922      6925      6922      6925      6928      6929
      6922      6925      6928      6930      6922      6925      6928      6931
      6923      6922      6925      6926      6923      6922      6925      6927
      6923      6922      6925      6928      6924      6922      6925      6926
      6924      6922      6925      6927      6924      6922      6925      6928
      6925      6928      6931      6932      6925      6928      6931      6933
      6925      6928      6931      6934      6926      6925      6928      6929
      6926      6925      6928      6930      6926      6925      6928      6931
      6927      6925      6928      6929      6927      6925      6928      6930
      6927      6925      6928      6931      6928      6931      6934      6935
      6928      6931      6934      6936      6928      6931      6934      6937
      6929      6928      6931      6932      6929      6928      6931      6933
      6929      6928      6931      6934      6930      6928      6931      6932
      6930      6928      6931      6933      6930      6928      6931      6934
      6931      6934      6937      6938      6931      6934      6937      6939
      6931      6934      6937      6940      6932      6931      6934      6935
      6932      6931      6934      6936      6932      6931      6934      6937
      6933      6931      6934      6935      6933      6931      6934      6936
      6933      6931      6934      6937      6935      6934      6937      6938
      6935      6934      6937      6939      6935      6934      6937      6940
      6936      6934      6937      6938      6936      6934      6937      6939
      6936      6934      6937      6940      6941      6944      6947      6948
      6941      6944      6947      6949      6941      6944      6947      6950
      6942      6941      6944      6945      6942      6941      6944      6946
      6942      6941      6944      6947      6943      6941      6944      6945
      6943      6941      6944      6946      6943      6941      6944      6947
      6944      6947      6950      6951      6944      6947      6950      6952
      6944      6947      6950      6953      6945      6944      6947      6948
      6945      6944      6947      6949      6945      6944      6947      6950
      6946      6944      6947      6948      6946      6944      6947      6949
      6946      6944      6947      6950      6947      6950      6953      6954
      6947      6950      6953      6955      6947      6950      6953      6956
      6948      6947      6950      6951      6948      6947      6950      6952
      6948      6947      6950      6953      6949      6947      6950      6951
      6949      6947      6950      6952      6949      6947      6950      6953
      6950      6953      6956      6957      6950      6953      6956      6958
      6950      6953      6956      6959      6951      6950      6953      6954
      6951      6950      6953      6955      6951      6950      6953      6956
      6952      6950      6953      6954      6952      6950      6953      6955
      6952      6950      6953      6956      6953      6956      6959      6960
      6953      6956      6959      6961      6953      6956      6959      6962
      6954      6953      6956      6957      6954      6953      6956      6958
      6954      6953      6956      6959      6955      6953      6956      6957
      6955      6953      6956      6958      6955      6953      6956      6959
      6956      6959      6962      6963      6956      6959      6962      6964
      6956      6959      6962      6965      6957      6956      6959      6960
      6957      6956      6959      6961      6957      6956      6959      6962
      6958      6956      6959      6960      6958      6956      6959      6961
      6958      6956      6959      6962      6959      6962      6965      6966
      6959      6962      6965      6967      6959      6962      6965      6968
      6960      6959      6962      6963      6960      6959      6962      6964
      6960      6959      6962      6965      6961      6959      6962      6963
      6961      6959      6962      6964      6961      6959      6962      6965
      6962      6965      6968      6969      6962      6965      6968      6970
      6962      6965      6968      6971      6963      6962      6965      6966
      6963      6962      6965      6967      6963      6962      6965      6968
      6964      6962      6965      6966      6964      6962      6965      6967
      6964      6962      6965      6968      6965      6968      6971      6972
      6965      6968      6971      6973      6965      6968      6971      6974
      6966      6965      6968      6969      6966      6965      6968      6970
      6966      6965      6968      6971      6967      6965      6968      6969
      6967      6965      6968      6970      6967      6965      6968      6971
      6968      6971      6974      6975      6968      6971      6974      6976
      6968      6971      6974      6977      6969      6968      6971      6972
      6969      6968      6971      6973      6969      6968      6971      6974
      6970      6968      6971      6972      6970      6968      6971      6973
      6970      6968      6971      6974      6971      6974      6977      6978
      6971      6974      6977      6979      6971      6974      6977      6980
      6972      6971      6974      6975      6972      6971      6974      6976
      6972      6971      6974      6977      6973      6971      6974      6975
      6973      6971      6974      6976      6973      6971      6974      6977
      6974      6977      6980      6981      6974      6977      6980      6982
      6974      6977      6980      6983      6975      6974      6977      6978
      6975      6974      6977      6979      6975      6974      6977      6980
      6976      6974      6977      6978      6976      6974      6977      6979
      6976      6974      6977      6980      6978      6977      6980      6981
      6978      6977      6980      6982      6978      6977      6980      6983
      6979      6977      6980      6981      6979      6977      6980      6982
      6979      6977      6980      6983      6984      6985      7000      7001
      6984      6985      7000      7002      6984      6985      7000      7006
      6985      6984      6988      6989      6985      6984      6988      6990
      6985      6984      6988      6991      6985      6984      6992      6993
      6985      6984      6992      6994      6985      6984      6992      6995
      6985      6984      6996      6997      6985      6984      6996      6998
      6985      6984      6996      6999      6985      7000      7006      7003
      6986      6985      6984      6988      6986      6985      6984      6992
      6986      6985      6984      6996      6986      6985      7000      7001
      6986      6985      7000      7002      6986      6985      7000      7006
      6987      6985      6984      6988      6987      6985      6984      6992
      6987      6985      6984      6996      6987      6985      7000      7001
      6987      6985      7000      7002      6987      6985      7000      7006
      6988      6984      6985      7000      6988      6984      6992      6993
      6988      6984      6992      6994      6988      6984      6992      6995
      6988      6984      6996      6997      6988      6984      6996      6998
      6988      6984      6996      6999      6989      6988      6984      6992
      6989      6988      6984      6996      6990      6988      6984      6992
      6990      6988      6984      6996      6991      6988      6984      6992
      6991      6988      6984      6996      6992      6984      6985      7000
      6992      6984      6996      6997      6992      6984      6996      6998
      6992      6984      6996      6999      6993      6992      6984      6996
      6994      6992      6984      6996      6995      6992      6984      6996
      6996      6984      6985      7000      7000      7006      7003      7004
      7000      7006      7003      7005      7000      7006      7003      7007
      7001      7000      7006      7003      7002      7000      7006      7003
      7003      7007      7008      7009      7003      7007      7008      7010
      7003      7007      7008      7011      7004      7003      7007      7008
      7005      7003      7007      7008      7006      7003      7007      7008
      7007      7008      7011      7012      7007      7008      7011      7013
      7007      7008      7011      7019      7008      7011      7013      7014
      7008      7011      7019      7020      7008      7011      7019      7021
      7008      7011      7019      7022      7009      7008      7011      7012
      7009      7008      7011      7013      7009      7008      7011      7019
      7010      7008      7011      7012      7010      7008      7011      7013
      7010      7008      7011      7019      7011      7013      7014      7015
      7011      7013      7014      7016      7011      7019      7022      7023
      7012      7011      7013      7014      7012      7011      7019      7020
      7012      7011      7019      7021      7012      7011      7019      7022
      7013      7011      7019      7020      7013      7011      7019      7021
      7013      7011      7019      7022      7013      7014      7016      7017
      7013      7014      7016      7018      7013      7014      7016      7028
      7014      7013      7011      7019      7014      7016      7028      7029
      7014      7016      7028      7030      7014      7016      7028      7031
      7015      7014      7016      7017      7015      7014      7016      7018
      7015      7014      7016      7028      7016      7028      7031      7032
      7016      7028      7031      7033      7016      7028      7031      7034
      7017      7016      7028      7029      7017      7016      7028      7030
      7017      7016      7028      7031      7018      7016      7028      7029
      7018      7016      7028      7030      7018      7016      7028      7031
      7019      7022      7023      7024      7019      7022      7023      7025
      7020      7019      7022      7023      7021      7019      7022      7023
      7022      7023      7025      7026      7022      7023      7025      7027
      7022      7023      7025      7075      7023      7025      7075      7076
      7023      7025      7075      7077      7023      7025      7075      7078
      7024      7023      7025      7026      7024      7023      7025      7027
      7024      7023      7025      7075      7025      7075      7078      7079
      7025      7075      7078      7080      7025      7075      7078      7081
      7026      7025      7075      7076      7026      7025      7075      7077
      7026      7025      7075      7078      7027      7025      7075      7076
      7027      7025      7075      7077      7027      7025      7075      7078
      7028      7031      7034      7035      7028      7031      7034      7036
      7028      7031      7034      7037      7029      7028      7031      7032
      7029      7028      7031      7033      7029      7028      7031      7034
      7030      7028      7031      7032      7030      7028      7031      7033
      7030      7028      7031      7034      7031      7034      7037      7038
      7031      7034      7037      7039      7031      7034      7037      7040
      7032      7031      7034      7035      7032      7031      7034      7036
      7032      7031      7034      7037      7033      7031      7034      7035
      7033      7031      7034      7036      7033      7031      7034      7037
      7034      7037      7040      7041      7034      7037      7040      7042
      7034      7037      7040      7043      7035      7034      7037      7038
      7035      7034      7037      7039      7035      7034      7037      7040
      7036      7034      7037      7038      7036      7034      7037      7039
      7036      7034      7037      7040      7037      7040      7043      7044
      7037      7040      7043      7045      7037      7040      7043      7046
      7038      7037      7040      7041      7038      7037      7040      7042
      7038      7037      7040      7043      7039      7037      7040      7041
      7039      7037      7040      7042      7039      7037      7040      7043
      7040      7043      7046      7047      7040      7043      7046      7048
      7041      7040      7043      7044      7041      7040      7043      7045
      7041      7040      7043      7046      7042      7040      7043      7044
      7042      7040      7043      7045      7042      7040      7043      7046
      7043      7046      7048      7049      7043      7046      7048      7050
      7044      7043      7046      7047      7044      7043      7046      7048
      7045      7043      7046      7047      7045      7043      7046      7048
      7046      7048      7050      7051      7046      7048      7050      7052
      7046      7048      7050      7053      7047      7046      7048      7049
      7047      7046      7048      7050      7048      7050      7053      7054
      7048      7050      7053      7055      7048      7050      7053      7056
      7049      7048      7050      7051      7049      7048      7050      7052
      7049      7048      7050      7053      7050      7053      7056      7057
      7050      7053      7056      7058      7050      7053      7056      7059
      7051      7050      7053      7054      7051      7050      7053      7055
      7051      7050      7053      7056      7052      7050      7053      7054
      7052      7050      7053      7055      7052      7050      7053      7056
      7053      7056      7059      7060      7053      7056      7059      7061
      7053      7056      7059      7062      7054      7053      7056      7057
      7054      7053      7056      7058      7054      7053      7056      7059
      7055      7053      7056      7057      7055      7053      7056      7058
      7055      7053      7056      7059      7056      7059      7062      7063
      7056      7059      7062      7064      7056      7059      7062      7065
      7057      7056      7059      7060      7057      7056      7059      7061
      7057      7056      7059      7062      7058      7056      7059      7060
      7058      7056      7059      7061      7058      7056      7059      7062
      7059      7062      7065      7066      7059      7062      7065      7067
      7059      7062      7065      7068      7060      7059      7062      7063
      7060      7059      7062      7064      7060      7059      7062      7065
      7061      7059      7062      7063      7061      7059      7062      7064
      7061      7059      7062      7065      7062      7065      7068      7069
      7062      7065      7068      7070      7062      7065      7068      7071
      7063      7062      7065      7066      7063      7062      7065      7067
      7063      7062      7065      7068      7064      7062      7065      7066
      7064      7062      7065      7067      7064      7062      7065      7068
      7065      7068      7071      7072      7065      7068      7071      7073
      7065      7068      7071      7074      7066      7065      7068      7069
      7066      7065      7068      7070      7066      7065      7068      7071
      7067      7065      7068      7069      7067      7065      7068      7070
      7067      7065      7068      7071      7069      7068      7071      7072
      7069      7068      7071      7073      7069      7068      7071      7074
      7070      7068      7071      7072      7070      7068      7071      7073
      7070      7068      7071      7074      7075      7078      7081      7082
      7075      7078      7081      7083      7075      7078      7081      7084
      7076      7075      7078      7079      7076      7075      7078      7080
      7076      7075      7078      7081      7077      7075      7078      7079
      7077      7075      7078      7080      7077      7075      7078      7081
      7078      7081      7084      7085      7078      7081      7084      7086
      7078      7081      7084      7087      7079      7078      7081      7082
      7079      7078      7081      7083      7079      7078      7081      7084
      7080      7078      7081      7082      7080      7078      7081      7083
      7080      7078      7081      7084      7081      7084      7087      7088
      7081      7084      7087      7089      7081      7084      7087      7090
      7082      7081      7084      7085      7082      7081      7084      7086
      7082      7081      7084      7087      7083      7081      7084      7085
      7083      7081      7084      7086      7083      7081      7084      7087
      7084      7087      7090      7091      7084      7087      7090      7092
      7084      7087      7090      7093      7085      7084      7087      7088
      7085      7084      7087      7089      7085      7084      7087      7090
      7086      7084      7087      7088      7086      7084      7087      7089
      7086      7084      7087      7090      7087      7090      7093      7094
      7087      7090      7093      7095      7087      7090      7093      7096
      7088      7087      7090      7091      7088      7087      7090      7092
      7088      7087      7090      7093      7089      7087      7090      7091
      7089      7087      7090      7092      7089      7087      7090      7093
      7090      7093      7096      7097      7090      7093      7096      7098
      7090      7093      7096      7099      7091      7090      7093      7094
      7091      7090      7093      7095      7091      7090      7093      7096
      7092      7090      7093      7094      7092      7090      7093      7095
      7092      7090      7093      7096      7093      7096      7099      7100
      7093      7096      7099      7101      7093      7096      7099      7102
      7094      7093      7096      7097      7094      7093      7096      7098
      7094      7093      7096      7099      7095      7093      7096      7097
      7095      7093      7096      7098      7095      7093      7096      7099
      7096      7099      7102      7103      7096      7099      7102      7104
      7096      7099      7102      7105      7097      7096      7099      7100
      7097      7096      7099      7101      7097      7096      7099      7102
      7098      7096      7099      7100      7098      7096      7099      7101
      7098      7096      7099      7102      7099      7102      7105      7106
      7099      7102      7105      7107      7099      7102      7105      7108
      7100      7099      7102      7103      7100      7099      7102      7104
      7100      7099      7102      7105      7101      7099      7102      7103
      7101      7099      7102      7104      7101      7099      7102      7105
      7102      7105      7108      7109      7102      7105      7108      7110
      7102      7105      7108      7111      7103      7102      7105      7106
      7103      7102      7105      7107      7103      7102      7105      7108
      7104      7102      7105      7106      7104      7102      7105      7107
      7104      7102      7105      7108      7105      7108      7111      7112
      7105      7108      7111      7113      7105      7108      7111      7114
      7106      7105      7108      7109      7106      7105      7108      7110
      7106      7105      7108      7111      7107      7105      7108      7109
      7107      7105      7108      7110      7107      7105      7108      7111
      7108      7111      7114      7115      7108      7111      7114      7116
      7108      7111      7114      7117      7109      7108      7111      7112
      7109      7108      7111      7113      7109      7108      7111      7114
      7110      7108      7111      7112      7110      7108      7111      7113
      7110      7108      7111      7114      7112      7111      7114      7115
      7112      7111      7114      7116      7112      7111      7114      7117
      7113      7111      7114      7115      7113      7111      7114      7116
      7113      7111      7114      7117      7118      7122      7125      7126
      7118      7122      7125      7127      7118      7122      7125      7132
      7119      7118      7122      7123      7119      7118      7122      7124
      7119      7118      7122      7125      7120      7118      7122      7123
      7120      7118      7122      7124      7120      7118      7122      7125
      7121      7118      7122      7123      7121      7118      7122      7124
      7121      7118      7122      7125      7122      7125      7132      7128
      7123      7122      7125      7126      7123      7122      7125      7127
      7123      7122      7125      7132      7124      7122      7125      7126
      7124      7122      7125      7127      7124      7122      7125      7132
      7125      7132      7128      7129      7125      7132      7128      7130
      7125      7132      7128      7131      7126      7125      7132      7128
      7127      7125      7132      7128      7128      7131      7133      7134
      7128      7131      7133      7135      7128      7131      7133      7136
      7129      7128      7131      7133      7130      7128      7131      7133
      7131      7133      7136      7137      7131      7133      7136      7138
      7131      7133      7136      7144      7132      7128      7131      7133
      7133      7136      7138      7139      7133      7136      7144      7145
      7133      7136      7144      7146      7133      7136      7144      7147
      7134      7133      7136      7137      7134      7133      7136      7138
      7134      7133      7136      7144      7135      7133      7136      7137
      7135      7133      7136      7138      7135      7133      7136      7144
      7136      7138      7139      7140      7136      7138      7139      7141
      7136      7144      7147      7148      7137      7136      7138      7139
      7137      7136      7144      7145      7137      7136      7144      7146
      7137      7136      7144      7147      7138      7136      7144      7145
      7138      7136      7144      7146      7138      7136      7144      7147
      7138      7139      7141      7142      7138      7139      7141      7143
      7138      7139      7141      7153      7139      7138      7136      7144
      7139      7141      7153      7154      7139      7141      7153      7155
      7139      7141      7153      7156      7140      7139      7141      7142
      7140      7139      7141      7143      7140      7139      7141      7153
      7141      7153      7156      7157      7141      7153      7156      7158
      7141      7153      7156      7159      7142      7141      7153      7154
      7142      7141      7153      7155      7142      7141      7153      7156
      7143      7141      7153      7154      7143      7141      7153      7155
      7143      7141      7153      7156      7144      7147      7148      7149
      7144      7147      7148      7150      7145      7144      7147      7148
      7146      7144      7147      7148      7147      7148      7150      7151
      7147      7148      7150      7152      7147      7148      7150      7200
      7148      7150      7200      7201      7148      7150      7200      7202
      7148      7150      7200      7203      7149      7148      7150      7151
      7149      7148      7150      7152      7149      7148      7150      7200
      7150      7200      7203      7204      7150      7200      7203      7205
      7150      7200      7203      7206      7151      7150      7200      7201
      7151      7150      7200      7202      7151      7150      7200      7203
      7152      7150      7200      7201      7152      7150      7200      7202
      7152      7150      7200      7203      7153      7156      7159      7160
      7153      7156      7159      7161      7153      7156      7159      7162
      7154      7153      7156      7157      7154      7153      7156      7158
      7154      7153      7156      7159      7155      7153      7156      7157
      7155      7153      7156      7158      7155      7153      7156      7159
      7156      7159      7162      7163      7156      7159      7162      7164
      7156      7159      7162      7165      7157      7156      7159      7160
      7157      7156      7159      7161      7157      7156      7159      7162
      7158      7156      7159      7160      7158      7156      7159      7161
      7158      7156      7159      7162      7159      7162      7165      7166
      7159      7162      7165      7167      7159      7162      7165      7168
      7160      7159      7162      7163      7160      7159      7162      7164
      7160      7159      7162      7165      7161      7159      7162      7163
      7161      7159      7162      7164      7161      7159      7162      7165
      7162      7165      7168      7169      7162      7165      7168      7170
      7162      7165      7168      7171      7163      7162      7165      7166
      7163      7162      7165      7167      7163      7162      7165      7168
      7164      7162      7165      7166      7164      7162      7165      7167
      7164      7162      7165      7168      7165      7168      7171      7172
      7165      7168      7171      7173      7166      7165      7168      7169
      7166      7165      7168      7170      7166      7165      7168      7171
      7167      7165      7168      7169      7167      7165      7168      7170
      7167      7165      7168      7171      7168      7171      7173      7174
      7168      7171      7173      7175      7169      7168      7171      7172
      7169      7168      7171      7173      7170      7168      7171      7172
      7170      7168      7171      7173      7171      7173      7175      7176
      7171      7173      7175      7177      7171      7173      7175      7178
      7172      7171      7173      7174      7172      7171      7173      7175
      7173      7175      7178      7179      7173      7175      7178      7180
      7173      7175      7178      7181      7174      7173      7175      7176
      7174      7173      7175      7177      7174      7173      7175      7178
      7175      7178      7181      7182      7175      7178      7181      7183
      7175      7178      7181      7184      7176      7175      7178      7179
      7176      7175      7178      7180      7176      7175      7178      7181
      7177      7175      7178      7179      7177      7175      7178      7180
      7177      7175      7178      7181      7178      7181      7184      7185
      7178      7181      7184      7186      7178      7181      7184      7187
      7179      7178      7181      7182      7179      7178      7181      7183
      7179      7178      7181      7184      7180      7178      7181      7182
      7180      7178      7181      7183      7180      7178      7181      7184
      7181      7184      7187      7188      7181      7184      7187      7189
      7181      7184      7187      7190      7182      7181      7184      7185
      7182      7181      7184      7186      7182      7181      7184      7187
      7183      7181      7184      7185      7183      7181      7184      7186
      7183      7181      7184      7187      7184      7187      7190      7191
      7184      7187      7190      7192      7184      7187      7190      7193
      7185      7184      7187      7188      7185      7184      7187      7189
      7185      7184      7187      7190      7186      7184      7187      7188
      7186      7184      7187      7189      7186      7184      7187      7190
      7187      7190      7193      7194      7187      7190      7193      7195
      7187      7190      7193      7196      7188      7187      7190      7191
      7188      7187      7190      7192      7188      7187      7190      7193
      7189      7187      7190      7191      7189      7187      7190      7192
      7189      7187      7190      7193      7190      7193      7196      7197
      7190      7193      7196      7198      7190      7193      7196      7199
      7191      7190      7193      7194      7191      7190      7193      7195
      7191      7190      7193      7196      7192      7190      7193      7194
      7192      7190      7193      7195      7192      7190      7193      7196
      7194      7193      7196      7197      7194      7193      7196      7198
      7194      7193      7196      7199      7195      7193      7196      7197
      7195      7193      7196      7198      7195      7193      7196      7199
      7200      7203      7206      7207      7200      7203      7206      7208
      7200      7203      7206      7209      7201      7200      7203      7204
      7201      7200      7203      7205      7201      7200      7203      7206
      7202      7200      7203      7204      7202      7200      7203      7205
      7202      7200      7203      7206      7203      7206      7209      7210
      7203      7206      7209      7211      7203      7206      7209      7212
      7204      7203      7206      7207      7204      7203      7206      7208
      7204      7203      7206      7209      7205      7203      7206      7207
      7205      7203      7206      7208      7205      7203      7206      7209
      7206      7209      7212      7213      7206      7209      7212      7214
      7206      7209      7212      7215      7207      7206      7209      7210
      7207      7206      7209      7211      7207      7206      7209      7212
      7208      7206      7209      7210      7208      7206      7209      7211
      7208      7206      7209      7212      7209      7212      7215      7216
      7209      7212      7215      7217      7209      7212      7215      7218
      7210      7209      7212      7213      7210      7209      7212      7214
      7210      7209      7212      7215      7211      7209      7212      7213
      7211      7209      7212      7214      7211      7209      7212      7215
      7212      7215      7218      7219      7212      7215      7218      7220
      7212      7215      7218      7221      7213      7212      7215      7216
      7213      7212      7215      7217      7213      7212      7215      7218
      7214      7212      7215      7216      7214      7212      7215      7217
      7214      7212      7215      7218      7215      7218      7221      7222
      7215      7218      7221      7223      7215      7218      7221      7224
      7216      7215      7218      7219      7216      7215      7218      7220
      7216      7215      7218      7221      7217      7215      7218      7219
      7217      7215      7218      7220      7217      7215      7218      7221
      7218      7221      7224      7225      7218      7221      7224      7226
      7218      7221      7224      7227      7219      7218      7221      7222
      7219      7218      7221      7223      7219      7218      7221      7224
      7220      7218      7221      7222      7220      7218      7221      7223
      7220      7218      7221      7224      7221      7224      7227      7228
      7221      7224      7227      7229      7221      7224      7227      7230
      7222      7221      7224      7225      7222      7221      7224      7226
      7222      7221      7224      7227      7223      7221      7224      7225
      7223      7221      7224      7226      7223      7221      7224      7227
      7224      7227      7230      7231      7224      7227      7230      7232
      7224      7227      7230      7233      7225      7224      7227      7228
      7225      7224      7227      7229      7225      7224      7227      7230
      7226      7224      7227      7228      7226      7224      7227      7229
      7226      7224      7227      7230      7227      7230      7233      7234
      7227      7230      7233      7235      7227      7230      7233      7236
      7228      7227      7230      7231      7228      7227      7230      7232
      7228      7227      7230      7233      7229      7227      7230      7231
      7229      7227      7230      7232      7229      7227      7230      7233
      7230      7233      7236      7237      7230      7233      7236      7238
      7230      7233      7236      7239      7231      7230      7233      7234
      7231      7230      7233      7235      7231      7230      7233      7236
      7232      7230      7233      7234      7232      7230      7233      7235
      7232      7230      7233      7236      7233      7236      7239      7240
      7233      7236      7239      7241      7233      7236      7239      7242
      7234      7233      7236      7237      7234      7233      7236      7238
      7234      7233      7236      7239      7235      7233      7236      7237
      7235      7233      7236      7238      7235      7233      7236      7239
      7237      7236      7239      7240      7237      7236      7239      7241
      7237      7236      7239      7242      7238      7236      7239      7240
      7238      7236      7239      7241      7238      7236      7239      7242
      7243      7244      7259      7260      7243      7244      7259      7261
      7243      7244      7259      7265      7244      7243      7247      7248
      7244      7243      7247      7249      7244      7243      7247      7250
      7244      7243      7251      7252      7244      7243      7251      7253
      7244      7243      7251      7254      7244      7243      7255      7256
      7244      7243      7255      7257      7244      7243      7255      7258
      7244      7259      7265      7262      7245      7244      7243      7247
      7245      7244      7243      7251      7245      7244      7243      7255
      7245      7244      7259      7260      7245      7244      7259      7261
      7245      7244      7259      7265      7246      7244      7243      7247
      7246      7244      7243      7251      7246      7244      7243      7255
      7246      7244      7259      7260      7246      7244      7259      7261
      7246      7244      7259      7265      7247      7243      7244      7259
      7247      7243      7251      7252      7247      7243      7251      7253
      7247      7243      7251      7254      7247      7243      7255      7256
      7247      7243      7255      7257      7247      7243      7255      7258
      7248      7247      7243      7251      7248      7247      7243      7255
      7249      7247      7243      7251      7249      7247      7243      7255
      7250      7247      7243      7251      7250      7247      7243      7255
      7251      7243      7244      7259      7251      7243      7255      7256
      7251      7243      7255      7257      7251      7243      7255      7258
      7252      7251      7243      7255      7253      7251      7243      7255
      7254      7251      7243      7255      7255      7243      7244      7259
      7259      7265      7262      7263      7259      7265      7262      7264
      7259      7265      7262      7266      7260      7259      7265      7262
      7261      7259      7265      7262      7262      7266      7267      7268
      7262      7266      7267      7269      7262      7266      7267      7270
      7263      7262      7266      7267      7264      7262      7266      7267
      7265      7262      7266      7267      7266      7267      7270      7271
      7266      7267      7270      7272      7266      7267      7270      7278
      7267      7270      7272      7273      7267      7270      7278      7279
      7267      7270      7278      7280      7267      7270      7278      7281
      7268      7267      7270      7271      7268      7267      7270      7272
      7268      7267      7270      7278      7269      7267      7270      7271
      7269      7267      7270      7272      7269      7267      7270      7278
      7270      7272      7273      7274      7270      7272      7273      7275
      7270      7278      7281      7282      7271      7270      7272      7273
      7271      7270      7278      7279      7271      7270      7278      7280
      7271      7270      7278      7281      7272      7270      7278      7279
      7272      7270      7278      7280      7272      7270      7278      7281
      7272      7273      7275      7276      7272      7273      7275      7277
      7272      7273      7275      7287      7273      7272      7270      7278
      7273      7275      7287      7288      7273      7275      7287      7289
      7273      7275      7287      7290      7274      7273      7275      7276
      7274      7273      7275      7277      7274      7273      7275      7287
      7275      7287      7290      7291      7275      7287      7290      7292
      7275      7287      7290      7293      7276      7275      7287      7288
      7276      7275      7287      7289      7276      7275      7287      7290
      7277      7275      7287      7288      7277      7275      7287      7289
      7277      7275      7287      7290      7278      7281      7282      7283
      7278      7281      7282      7284      7279      7278      7281      7282
      7280      7278      7281      7282      7281      7282      7284      7285
      7281      7282      7284      7286      7281      7282      7284      7334
      7282      7284      7334      7335      7282      7284      7334      7336
      7282      7284      7334      7337      7283      7282      7284      7285
      7283      7282      7284      7286      7283      7282      7284      7334
      7284      7334      7337      7338      7284      7334      7337      7339
      7284      7334      7337      7340      7285      7284      7334      7335
      7285      7284      7334      7336      7285      7284      7334      7337
      7286      7284      7334      7335      7286      7284      7334      7336
      7286      7284      7334      7337      7287      7290      7293      7294
      7287      7290      7293      7295      7287      7290      7293      7296
      7288      7287      7290      7291      7288      7287      7290      7292
      7288      7287      7290      7293      7289      7287      7290      7291
      7289      7287      7290      7292      7289      7287      7290      7293
      7290      7293      7296      7297      7290      7293      7296      7298
      7290      7293      7296      7299      7291      7290      7293      7294
      7291      7290      7293      7295      7291      7290      7293      7296
      7292      7290      7293      7294      7292      7290      7293      7295
      7292      7290      7293      7296      7293      7296      7299      7300
      7293      7296      7299      7301      7293      7296      7299      7302
      7294      7293      7296      7297      7294      7293      7296      7298
      7294      7293      7296      7299      7295      7293      7296      7297
      7295      7293      7296      7298      7295      7293      7296      7299
      7296      7299      7302      7303      7296      7299      7302      7304
      7296      7299      7302      7305      7297      7296      7299      7300
      7297      7296      7299      7301      7297      7296      7299      7302
      7298      7296      7299      7300      7298      7296      7299      7301
      7298      7296      7299      7302      7299      7302      7305      7306
      7299      7302      7305      7307      7300      7299      7302      7303
      7300      7299      7302      7304      7300      7299      7302      7305
      7301      7299      7302      7303      7301      7299      7302      7304
      7301      7299      7302      7305      7302      7305      7307      7308
      7302      7305      7307      7309      7303      7302      7305      7306
      7303      7302      7305      7307      7304      7302      7305      7306
      7304      7302      7305      7307      7305      7307      7309      7310
      7305      7307      7309      7311      7305      7307      7309      7312
      7306      7305      7307      7308      7306      7305      7307      7309
      7307      7309      7312      7313      7307      7309      7312      7314
      7307      7309      7312      7315      7308      7307      7309      7310
      7308      7307      7309      7311      7308      7307      7309      7312
      7309      7312      7315      7316      7309      7312      7315      7317
      7309      7312      7315      7318      7310      7309      7312      7313
      7310      7309      7312      7314      7310      7309      7312      7315
      7311      7309      7312      7313      7311      7309      7312      7314
      7311      7309      7312      7315      7312      7315      7318      7319
      7312      7315      7318      7320      7312      7315      7318      7321
      7313      7312      7315      7316      7313      7312      7315      7317
      7313      7312      7315      7318      7314      7312      7315      7316
      7314      7312      7315      7317      7314      7312      7315      7318
      7315      7318      7321      7322      7315      7318      7321      7323
      7315      7318      7321      7324      7316      7315      7318      7319
      7316      7315      7318      7320      7316      7315      7318      7321
      7317      7315      7318      7319      7317      7315      7318      7320
      7317      7315      7318      7321      7318      7321      7324      7325
      7318      7321      7324      7326      7318      7321      7324      7327
      7319      7318      7321      7322      7319      7318      7321      7323
      7319      7318      7321      7324      7320      7318      7321      7322
      7320      7318      7321      7323      7320      7318      7321      7324
      7321      7324      7327      7328      7321      7324      7327      7329
      7321      7324      7327      7330      7322      7321      7324      7325
      7322      7321      7324      7326      7322      7321      7324      7327
      7323      7321      7324      7325      7323      7321      7324      7326
      7323      7321      7324      7327      7324      7327      7330      7331
      7324      7327      7330      7332      7324      7327      7330      7333
      7325      7324      7327      7328      7325      7324      7327      7329
      7325      7324      7327      7330      7326      7324      7327      7328
      7326      7324      7327      7329      7326      7324      7327      7330
      7328      7327      7330      7331      7328      7327      7330      7332
      7328      7327      7330      7333      7329      7327      7330      7331
      7329      7327      7330      7332      7329      7327      7330      7333
      7334      7337      7340      7341      7334      7337      7340      7342
      7334      7337      7340      7343      7335      7334      7337      7338
      7335      7334      7337      7339      7335      7334      7337      7340
      7336      7334      7337      7338      7336      7334      7337      7339
      7336      7334      7337      7340      7337      7340      7343      7344
      7337      7340      7343      7345      7337      7340      7343      7346
      7338      7337      7340      7341      7338      7337      7340      7342
      7338      7337      7340      7343      7339      7337      7340      7341
      7339      7337      7340      7342      7339      7337      7340      7343
      7340      7343      7346      7347      7340      7343      7346      7348
      7340      7343      7346      7349      7341      7340      7343      7344
      7341      7340      7343      7345      7341      7340      7343      7346
      7342      7340      7343      7344      7342      7340      7343      7345
      7342      7340      7343      7346      7343      7346      7349      7350
      7343      7346      7349      7351      7343      7346      7349      7352
      7344      7343      7346      7347      7344      7343      7346      7348
      7344      7343      7346      7349      7345      7343      7346      7347
      7345      7343      7346      7348      7345      7343      7346      7349
      7346      7349      7352      7353      7346      7349      7352      7354
      7346      7349      7352      7355      7347      7346      7349      7350
      7347      7346      7349      7351      7347      7346      7349      7352
      7348      7346      7349      7350      7348      7346      7349      7351
      7348      7346      7349      7352      7349      7352      7355      7356
      7349      7352      7355      7357      7349      7352      7355      7358
      7350      7349      7352      7353      7350      7349      7352      7354
      7350      7349      7352      7355      7351      7349      7352      7353
      7351      7349      7352      7354      7351      7349      7352      7355
      7352      7355      7358      7359      7352      7355      7358      7360
      7352      7355      7358      7361      7353      7352      7355      7356
      7353      7352      7355      7357      7353      7352      7355      7358
      7354      7352      7355      7356      7354      7352      7355      7357
      7354      7352      7355      7358      7355      7358      7361      7362
      7355      7358      7361      7363      7355      7358      7361      7364
      7356      7355      7358      7359      7356      7355      7358      7360
      7356      7355      7358      7361      7357      7355      7358      7359
      7357      7355      7358      7360      7357      7355      7358      7361
      7358      7361      7364      7365      7358      7361      7364      7366
      7358      7361      7364      7367      7359      7358      7361      7362
      7359      7358      7361      7363      7359      7358      7361      7364
      7360      7358      7361      7362      7360      7358      7361      7363
      7360      7358      7361      7364      7361      7364      7367      7368
      7361      7364      7367      7369      7361      7364      7367      7370
      7362      7361      7364      7365      7362      7361      7364      7366
      7362      7361      7364      7367      7363      7361      7364      7365
      7363      7361      7364      7366      7363      7361      7364      7367
      7364      7367      7370      7371      7364      7367      7370      7372
      7364      7367      7370      7373      7365      7364      7367      7368
      7365      7364      7367      7369      7365      7364      7367      7370
      7366      7364      7367      7368      7366      7364      7367      7369
      7366      7364      7367      7370      7367      7370      7373      7374
      7367      7370      7373      7375      7367      7370      7373      7376
      7368      7367      7370      7371      7368      7367      7370      7372
      7368      7367      7370      7373      7369      7367      7370      7371
      7369      7367      7370      7372      7369      7367      7370      7373
      7371      7370      7373      7374      7371      7370      7373      7375
      7371      7370      7373      7376      7372      7370      7373      7374
      7372      7370      7373      7375      7372      7370      7373      7376
      7377      7378      7393      7394      7377      7378      7393      7395
      7377      7378      7393      7399      7378      7377      7381      7382
      7378      7377      7381      7383      7378      7377      7381      7384
      7378      7377      7385      7386      7378      7377      7385      7387
      7378      7377      7385      7388      7378      7377      7389      7390
      7378      7377      7389      7391      7378      7377      7389      7392
      7378      7393      7399      7396      7379      7378      7377      7381
      7379      7378      7377      7385      7379      7378      7377      7389
      7379      7378      7393      7394      7379      7378      7393      7395
      7379      7378      7393      7399      7380      7378      7377      7381
      7380      7378      7377      7385      7380      7378      7377      7389
      7380      7378      7393      7394      7380      7378      7393      7395
      7380      7378      7393      7399      7381      7377      7378      7393
      7381      7377      7385      7386      7381      7377      7385      7387
      7381      7377      7385      7388      7381      7377      7389      7390
      7381      7377      7389      7391      7381      7377      7389      7392
      7382      7381      7377      7385      7382      7381      7377      7389
      7383      7381      7377      7385      7383      7381      7377      7389
      7384      7381      7377      7385      7384      7381      7377      7389
      7385      7377      7378      7393      7385      7377      7389      7390
      7385      7377      7389      7391      7385      7377      7389      7392
      7386      7385      7377      7389      7387      7385      7377      7389
      7388      7385      7377      7389      7389      7377      7378      7393
      7393      7399      7396      7397      7393      7399      7396      7398
      7393      7399      7396      7400      7394      7393      7399      7396
      7395      7393      7399      7396      7396      7400      7401      7402
      7396      7400      7401      7403      7396      7400      7401      7404
      7397      7396      7400      7401      7398      7396      7400      7401
      7399      7396      7400      7401      7400      7401      7404      7405
      7400      7401      7404      7406      7400      7401      7404      7412
      7401      7404      7406      7407      7401      7404      7412      7413
      7401      7404      7412      7414      7401      7404      7412      7415
      7402      7401      7404      7405      7402      7401      7404      7406
      7402      7401      7404      7412      7403      7401      7404      7405
      7403      7401      7404      7406      7403      7401      7404      7412
      7404      7406      7407      7408      7404      7406      7407      7409
      7404      7412      7415      7416      7405      7404      7406      7407
      7405      7404      7412      7413      7405      7404      7412      7414
      7405      7404      7412      7415      7406      7404      7412      7413
      7406      7404      7412      7414      7406      7404      7412      7415
      7406      7407      7409      7410      7406      7407      7409      7411
      7406      7407      7409      7421      7407      7406      7404      7412
      7407      7409      7421      7422      7407      7409      7421      7423
      7407      7409      7421      7424      7408      7407      7409      7410
      7408      7407      7409      7411      7408      7407      7409      7421
      7409      7421      7424      7425      7409      7421      7424      7426
      7409      7421      7424      7427      7410      7409      7421      7422
      7410      7409      7421      7423      7410      7409      7421      7424
      7411      7409      7421      7422      7411      7409      7421      7423
      7411      7409      7421      7424      7412      7415      7416      7417
      7412      7415      7416      7418      7413      7412      7415      7416
      7414      7412      7415      7416      7415      7416      7418      7419
      7415      7416      7418      7420      7415      7416      7418      7468
      7416      7418      7468      7469      7416      7418      7468      7470
      7416      7418      7468      7471      7417      7416      7418      7419
      7417      7416      7418      7420      7417      7416      7418      7468
      7418      7468      7471      7472      7418      7468      7471      7473
      7418      7468      7471      7474      7419      7418      7468      7469
      7419      7418      7468      7470      7419      7418      7468      7471
      7420      7418      7468      7469      7420      7418      7468      7470
      7420      7418      7468      7471      7421      7424      7427      7428
      7421      7424      7427      7429      7421      7424      7427      7430
      7422      7421      7424      7425      7422      7421      7424      7426
      7422      7421      7424      7427      7423      7421      7424      7425
      7423      7421      7424      7426      7423      7421      7424      7427
      7424      7427      7430      7431      7424      7427      7430      7432
      7424      7427      7430      7433      7425      7424      7427      7428
      7425      7424      7427      7429      7425      7424      7427      7430
      7426      7424      7427      7428      7426      7424      7427      7429
      7426      7424      7427      7430      7427      7430      7433      7434
      7427      7430      7433      7435      7427      7430      7433      7436
      7428      7427      7430      7431      7428      7427      7430      7432
      7428      7427      7430      7433      7429      7427      7430      7431
      7429      7427      7430      7432      7429      7427      7430      7433
      7430      7433      7436      7437      7430      7433      7436      7438
      7430      7433      7436      7439      7431      7430      7433      7434
      7431      7430      7433      7435      7431      7430      7433      7436
      7432      7430      7433      7434      7432      7430      7433      7435
      7432      7430      7433      7436      7433      7436      7439      7440
      7433      7436      7439      7441      7434      7433      7436      7437
      7434      7433      7436      7438      7434      7433      7436      7439
      7435      7433      7436      7437      7435      7433      7436      7438
      7435      7433      7436      7439      7436      7439      7441      7442
      7436      7439      7441      7443      7437      7436      7439      7440
      7437      7436      7439      7441      7438      7436      7439      7440
      7438      7436      7439      7441      7439      7441      7443      7444
      7439      7441      7443      7445      7439      7441      7443      7446
      7440      7439      7441      7442      7440      7439      7441      7443
      7441      7443      7446      7447      7441      7443      7446      7448
      7441      7443      7446      7449      7442      7441      7443      7444
      7442      7441      7443      7445      7442      7441      7443      7446
      7443      7446      7449      7450      7443      7446      7449      7451
      7443      7446      7449      7452      7444      7443      7446      7447
      7444      7443      7446      7448      7444      7443      7446      7449
      7445      7443      7446      7447      7445      7443      7446      7448
      7445      7443      7446      7449      7446      7449      7452      7453
      7446      7449      7452      7454      7446      7449      7452      7455
      7447      7446      7449      7450      7447      7446      7449      7451
      7447      7446      7449      7452      7448      7446      7449      7450
      7448      7446      7449      7451      7448      7446      7449      7452
      7449      7452      7455      7456      7449      7452      7455      7457
      7449      7452      7455      7458      7450      7449      7452      7453
      7450      7449      7452      7454      7450      7449      7452      7455
      7451      7449      7452      7453      7451      7449      7452      7454
      7451      7449      7452      7455      7452      7455      7458      7459
      7452      7455      7458      7460      7452      7455      7458      7461
      7453      7452      7455      7456      7453      7452      7455      7457
      7453      7452      7455      7458      7454      7452      7455      7456
      7454      7452      7455      7457      7454      7452      7455      7458
      7455      7458      7461      7462      7455      7458      7461      7463
      7455      7458      7461      7464      7456      7455      7458      7459
      7456      7455      7458      7460      7456      7455      7458      7461
      7457      7455      7458      7459      7457      7455      7458      7460
      7457      7455      7458      7461      7458      7461      7464      7465
      7458      7461      7464      7466      7458      7461      7464      7467
      7459      7458      7461      7462      7459      7458      7461      7463
      7459      7458      7461      7464      7460      7458      7461      7462
      7460      7458      7461      7463      7460      7458      7461      7464
      7462      7461      7464      7465      7462      7461      7464      7466
      7462      7461      7464      7467      7463      7461      7464      7465
      7463      7461      7464      7466      7463      7461      7464      7467
      7468      7471      7474      7475      7468      7471      7474      7476
      7468      7471      7474      7477      7469      7468      7471      7472
      7469      7468      7471      7473      7469      7468      7471      7474
      7470      7468      7471      7472      7470      7468      7471      7473
      7470      7468      7471      7474      7471      7474      7477      7478
      7471      7474      7477      7479      7471      7474      7477      7480
      7472      7471      7474      7475      7472      7471      7474      7476
      7472      7471      7474      7477      7473      7471      7474      7475
      7473      7471      7474      7476      7473      7471      7474      7477
      7474      7477      7480      7481      7474      7477      7480      7482
      7474      7477      7480      7483      7475      7474      7477      7478
      7475      7474      7477      7479      7475      7474      7477      7480
      7476      7474      7477      7478      7476      7474      7477      7479
      7476      7474      7477      7480      7477      7480      7483      7484
      7477      7480      7483      7485      7477      7480      7483      7486
      7478      7477      7480      7481      7478      7477      7480      7482
      7478      7477      7480      7483      7479      7477      7480      7481
      7479      7477      7480      7482      7479      7477      7480      7483
      7480      7483      7486      7487      7480      7483      7486      7488
      7480      7483      7486      7489      7481      7480      7483      7484
      7481      7480      7483      7485      7481      7480      7483      7486
      7482      7480      7483      7484      7482      7480      7483      7485
      7482      7480      7483      7486      7483      7486      7489      7490
      7483      7486      7489      7491      7483      7486      7489      7492
      7484      7483      7486      7487      7484      7483      7486      7488
      7484      7483      7486      7489      7485      7483      7486      7487
      7485      7483      7486      7488      7485      7483      7486      7489
      7486      7489      7492      7493      7486      7489      7492      7494
      7486      7489      7492      7495      7487      7486      7489      7490
      7487      7486      7489      7491      7487      7486      7489      7492
      7488      7486      7489      7490      7488      7486      7489      7491
      7488      7486      7489      7492      7489      7492      7495      7496
      7489      7492      7495      7497      7489      7492      7495      7498
      7490      7489      7492      7493      7490      7489      7492      7494
      7490      7489      7492      7495      7491      7489      7492      7493
      7491      7489      7492      7494      7491      7489      7492      7495
      7492      7495      7498      7499      7492      7495      7498      7500
      7492      7495      7498      7501      7493      7492      7495      7496
      7493      7492      7495      7497      7493      7492      7495      7498
      7494      7492      7495      7496      7494      7492      7495      7497
      7494      7492      7495      7498      7495      7498      7501      7502
      7495      7498      7501      7503      7495      7498      7501      7504
      7496      7495      7498      7499      7496      7495      7498      7500
      7496      7495      7498      7501      7497      7495      7498      7499
      7497      7495      7498      7500      7497      7495      7498      7501
      7498      7501      7504      7505      7498      7501      7504      7506
      7498      7501      7504      7507      7499      7498      7501      7502
      7499      7498      7501      7503      7499      7498      7501      7504
      7500      7498      7501      7502      7500      7498      7501      7503
      7500      7498      7501      7504      7501      7504      7507      7508
      7501      7504      7507      7509      7501      7504      7507      7510
      7502      7501      7504      7505      7502      7501      7504      7506
      7502      7501      7504      7507      7503      7501      7504      7505
      7503      7501      7504      7506      7503      7501      7504      7507
      7505      7504      7507      7508      7505      7504      7507      7509
      7505      7504      7507      7510      7506      7504      7507      7508
      7506      7504      7507      7509      7506      7504      7507      7510
      7511      7512      7527      7528      7511      7512      7527      7529
      7511      7512      7527      7533      7512      7511      7515      7516
      7512      7511      7515      7517      7512      7511      7515      7518
      7512      7511      7519      7520      7512      7511      7519      7521
      7512      7511      7519      7522      7512      7511      7523      7524
      7512      7511      7523      7525      7512      7511      7523      7526
      7512      7527      7533      7530      7513      7512      7511      7515
      7513      7512      7511      7519      7513      7512      7511      7523
      7513      7512      7527      7528      7513      7512      7527      7529
      7513      7512      7527      7533      7514      7512      7511      7515
      7514      7512      7511      7519      7514      7512      7511      7523
      7514      7512      7527      7528      7514      7512      7527      7529
      7514      7512      7527      7533      7515      7511      7512      7527
      7515      7511      7519      7520      7515      7511      7519      7521
      7515      7511      7519      7522      7515      7511      7523      7524
      7515      7511      7523      7525      7515      7511      7523      7526
      7516      7515      7511      7519      7516      7515      7511      7523
      7517      7515      7511      7519      7517      7515      7511      7523
      7518      7515      7511      7519      7518      7515      7511      7523
      7519      7511      7512      7527      7519      7511      7523      7524
      7519      7511      7523      7525      7519      7511      7523      7526
      7520      7519      7511      7523      7521      7519      7511      7523
      7522      7519      7511      7523      7523      7511      7512      7527
      7527      7533      7530      7531      7527      7533      7530      7532
      7527      7533      7530      7534      7528      7527      7533      7530
      7529      7527      7533      7530      7530      7534      7535      7536
      7530      7534      7535      7537      7530      7534      7535      7538
      7531      7530      7534      7535      7532      7530      7534      7535
      7533      7530      7534      7535      7534      7535      7538      7539
      7534      7535      7538      7540      7534      7535      7538      7546
      7535      7538      7540      7541      7535      7538      7546      7547
      7535      7538      7546      7548      7535      7538      7546      7549
      7536      7535      7538      7539      7536      7535      7538      7540
      7536      7535      7538      7546      7537      7535      7538      7539
      7537      7535      7538      7540      7537      7535      7538      7546
      7538      7540      7541      7542      7538      7540      7541      7543
      7538      7546      7549      7550      7539      7538      7540      7541
      7539      7538      7546      7547      7539      7538      7546      7548
      7539      7538      7546      7549      7540      7538      7546      7547
      7540      7538      7546      7548      7540      7538      7546      7549
      7540      7541      7543      7544      7540      7541      7543      7545
      7540      7541      7543      7555      7541      7540      7538      7546
      7541      7543      7555      7556      7541      7543      7555      7557
      7541      7543      7555      7558      7542      7541      7543      7544
      7542      7541      7543      7545      7542      7541      7543      7555
      7543      7555      7558      7559      7543      7555      7558      7560
      7543      7555      7558      7561      7544      7543      7555      7556
      7544      7543      7555      7557      7544      7543      7555      7558
      7545      7543      7555      7556      7545      7543      7555      7557
      7545      7543      7555      7558      7546      7549      7550      7551
      7546      7549      7550      7552      7547      7546      7549      7550
      7548      7546      7549      7550      7549      7550      7552      7553
      7549      7550      7552      7554      7549      7550      7552      7602
      7550      7552      7602      7603      7550      7552      7602      7604
      7550      7552      7602      7605      7551      7550      7552      7553
      7551      7550      7552      7554      7551      7550      7552      7602
      7552      7602      7605      7606      7552      7602      7605      7607
      7552      7602      7605      7608      7553      7552      7602      7603
      7553      7552      7602      7604      7553      7552      7602      7605
      7554      7552      7602      7603      7554      7552      7602      7604
      7554      7552      7602      7605      7555      7558      7561      7562
      7555      7558      7561      7563      7555      7558      7561      7564
      7556      7555      7558      7559      7556      7555      7558      7560
      7556      7555      7558      7561      7557      7555      7558      7559
      7557      7555      7558      7560      7557      7555      7558      7561
      7558      7561      7564      7565      7558      7561      7564      7566
      7558      7561      7564      7567      7559      7558      7561      7562
      7559      7558      7561      7563      7559      7558      7561      7564
      7560      7558      7561      7562      7560      7558      7561      7563
      7560      7558      7561      7564      7561      7564      7567      7568
      7561      7564      7567      7569      7561      7564      7567      7570
      7562      7561      7564      7565      7562      7561      7564      7566
      7562      7561      7564      7567      7563      7561      7564      7565
      7563      7561      7564      7566      7563      7561      7564      7567
      7564      7567      7570      7571      7564      7567      7570      7572
      7564      7567      7570      7573      7565      7564      7567      7568
      7565      7564      7567      7569      7565      7564      7567      7570
      7566      7564      7567      7568      7566      7564      7567      7569
      7566      7564      7567      7570      7567      7570      7573      7574
      7567      7570      7573      7575      7568      7567      7570      7571
      7568      7567      7570      7572      7568      7567      7570      7573
      7569      7567      7570      7571      7569      7567      7570      7572
      7569      7567      7570      7573      7570      7573      7575      7576
      7570      7573      7575      7577      7571      7570      7573      7574
      7571      7570      7573      7575      7572      7570      7573      7574
      7572      7570      7573      7575      7573      7575      7577      7578
      7573      7575      7577      7579      7573      7575      7577      7580
      7574      7573      7575      7576      7574      7573      7575      7577
      7575      7577      7580      7581      7575      7577      7580      7582
      7575      7577      7580      7583      7576      7575      7577      7578
      7576      7575      7577      7579      7576      7575      7577      7580
      7577      7580      7583      7584      7577      7580      7583      7585
      7577      7580      7583      7586      7578      7577      7580      7581
      7578      7577      7580      7582      7578      7577      7580      7583
      7579      7577      7580      7581      7579      7577      7580      7582
      7579      7577      7580      7583      7580      7583      7586      7587
      7580      7583      7586      7588      7580      7583      7586      7589
      7581      7580      7583      7584      7581      7580      7583      7585
      7581      7580      7583      7586      7582      7580      7583      7584
      7582      7580      7583      7585      7582      7580      7583      7586
      7583      7586      7589      7590      7583      7586      7589      7591
      7583      7586      7589      7592      7584      7583      7586      7587
      7584      7583      7586      7588      7584      7583      7586      7589
      7585      7583      7586      7587      7585      7583      7586      7588
      7585      7583      7586      7589      7586      7589      7592      7593
      7586      7589      7592      7594      7586      7589      7592      7595
      7587      7586      7589      7590      7587      7586      7589      7591
      7587      7586      7589      7592      7588      7586      7589      7590
      7588      7586      7589      7591      7588      7586      7589      7592
      7589      7592      7595      7596      7589      7592      7595      7597
      7589      7592      7595      7598      7590      7589      7592      7593
      7590      7589      7592      7594      7590      7589      7592      7595
      7591      7589      7592      7593      7591      7589      7592      7594
      7591      7589      7592      7595      7592      7595      7598      7599
      7592      7595      7598      7600      7592      7595      7598      7601
      7593      7592      7595      7596      7593      7592      7595      7597
      7593      7592      7595      7598      7594      7592      7595      7596
      7594      7592      7595      7597      7594      7592      7595      7598
      7596      7595      7598      7599      7596      7595      7598      7600
      7596      7595      7598      7601      7597      7595      7598      7599
      7597      7595      7598      7600      7597      7595      7598      7601
      7602      7605      7608      7609      7602      7605      7608      7610
      7602      7605      7608      7611      7603      7602      7605      7606
      7603      7602      7605      7607      7603      7602      7605      7608
      7604      7602      7605      7606      7604      7602      7605      7607
      7604      7602      7605      7608      7605      7608      7611      7612
      7605      7608      7611      7613      7605      7608      7611      7614
      7606      7605      7608      7609      7606      7605      7608      7610
      7606      7605      7608      7611      7607      7605      7608      7609
      7607      7605      7608      7610      7607      7605      7608      7611
      7608      7611      7614      7615      7608      7611      7614      7616
      7608      7611      7614      7617      7609      7608      7611      7612
      7609      7608      7611      7613      7609      7608      7611      7614
      7610      7608      7611      7612      7610      7608      7611      7613
      7610      7608      7611      7614      7611      7614      7617      7618
      7611      7614      7617      7619      7611      7614      7617      7620
      7612      7611      7614      7615      7612      7611      7614      7616
      7612      7611      7614      7617      7613      7611      7614      7615
      7613      7611      7614      7616      7613      7611      7614      7617
      7614      7617      7620      7621      7614      7617      7620      7622
      7614      7617      7620      7623      7615      7614      7617      7618
      7615      7614      7617      7619      7615      7614      7617      7620
      7616      7614      7617      7618      7616      7614      7617      7619
      7616      7614      7617      7620      7617      7620      7623      7624
      7617      7620      7623      7625      7617      7620      7623      7626
      7618      7617      7620      7621      7618      7617      7620      7622
      7618      7617      7620      7623      7619      7617      7620      7621
      7619      7617      7620      7622      7619      7617      7620      7623
      7620      7623      7626      7627      7620      7623      7626      7628
      7620      7623      7626      7629      7621      7620      7623      7624
      7621      7620      7623      7625      7621      7620      7623      7626
      7622      7620      7623      7624      7622      7620      7623      7625
      7622      7620      7623      7626      7623      7626      7629      7630
      7623      7626      7629      7631      7623      7626      7629      7632
      7624      7623      7626      7627      7624      7623      7626      7628
      7624      7623      7626      7629      7625      7623      7626      7627
      7625      7623      7626      7628      7625      7623      7626      7629
      7626      7629      7632      7633      7626      7629      7632      7634
      7626      7629      7632      7635      7627      7626      7629      7630
      7627      7626      7629      7631      7627      7626      7629      7632
      7628      7626      7629      7630      7628      7626      7629      7631
      7628      7626      7629      7632      7629      7632      7635      7636
      7629      7632      7635      7637      7629      7632      7635      7638
      7630      7629      7632      7633      7630      7629      7632      7634
      7630      7629      7632      7635      7631      7629      7632      7633
      7631      7629      7632      7634      7631      7629      7632      7635
      7632      7635      7638      7639      7632      7635      7638      7640
      7632      7635      7638      7641      7633      7632      7635      7636
      7633      7632      7635      7637      7633      7632      7635      7638
      7634      7632      7635      7636      7634      7632      7635      7637
      7634      7632      7635      7638      7635      7638      7641      7642
      7635      7638      7641      7643      7635      7638      7641      7644
      7636      7635      7638      7639      7636      7635      7638      7640
      7636      7635      7638      7641      7637      7635      7638      7639
      7637      7635      7638      7640      7637      7635      7638      7641
      7639      7638      7641      7642      7639      7638      7641      7643
      7639      7638      7641      7644      7640      7638      7641      7642
      7640      7638      7641      7643      7640      7638      7641      7644
      7645      7646      7661      7662      7645      7646      7661      7663
      7645      7646      7661      7667      7646      7645      7649      7650
      7646      7645      7649      7651      7646      7645      7649      7652
      7646      7645      7653      7654      7646      7645      7653      7655
      7646      7645      7653      7656      7646      7645      7657      7658
      7646      7645      7657      7659      7646      7645      7657      7660
      7646      7661      7667      7664      7647      7646      7645      7649
      7647      7646      7645      7653      7647      7646      7645      7657
      7647      7646      7661      7662      7647      7646      7661      7663
      7647      7646      7661      7667      7648      7646      7645      7649
      7648      7646      7645      7653      7648      7646      7645      7657
      7648      7646      7661      7662      7648      7646      7661      7663
      7648      7646      7661      7667      7649      7645      7646      7661
      7649      7645      7653      7654      7649      7645      7653      7655
      7649      7645      7653      7656      7649      7645      7657      7658
      7649      7645      7657      7659      7649      7645      7657      7660
      7650      7649      7645      7653      7650      7649      7645      7657
      7651      7649      7645      7653      7651      7649      7645      7657
      7652      7649      7645      7653      7652      7649      7645      7657
      7653      7645      7646      7661      7653      7645      7657      7658
      7653      7645      7657      7659      7653      7645      7657      7660
      7654      7653      7645      7657      7655      7653      7645      7657
      7656      7653      7645      7657      7657      7645      7646      7661
      7661      7667      7664      7665      7661      7667      7664      7666
      7661      7667      7664      7668      7662      7661      7667      7664
      7663      7661      7667      7664      7664      7668      7669      7670
      7664      7668      7669      7671      7664      7668      7669      7672
      7665      7664      7668      7669      7666      7664      7668      7669
      7667      7664      7668      7669      7668      7669      7672      7673
      7668      7669      7672      7674      7668      7669      7672      7680
      7669      7672      7674      7675      7669      7672      7680      7681
      7669      7672      7680      7682      7669      7672      7680      7683
      7670      7669      7672      7673      7670      7669      7672      7674
      7670      7669      7672      7680      7671      7669      7672      7673
      7671      7669      7672      7674      7671      7669      7672      7680
      7672      7674      7675      7676      7672      7674      7675      7677
      7672      7680      7683      7684      7673      7672      7674      7675
      7673      7672      7680      7681      7673      7672      7680      7682
      7673      7672      7680      7683      7674      7672      7680      7681
      7674      7672      7680      7682      7674      7672      7680      7683
      7674      7675      7677      7678      7674      7675      7677      7679
      7674      7675      7677      7689      7675      7674      7672      7680
      7675      7677      7689      7690      7675      7677      7689      7691
      7675      7677      7689      7692      7676      7675      7677      7678
      7676      7675      7677      7679      7676      7675      7677      7689
      7677      7689      7692      7693      7677      7689      7692      7694
      7677      7689      7692      7695      7678      7677      7689      7690
      7678      7677      7689      7691      7678      7677      7689      7692
      7679      7677      7689      7690      7679      7677      7689      7691
      7679      7677      7689      7692      7680      7683      7684      7685
      7680      7683      7684      7686      7681      7680      7683      7684
      7682      7680      7683      7684      7683      7684      7686      7687
      7683      7684      7686      7688      7683      7684      7686      7736
      7684      7686      7736      7737      7684      7686      7736      7738
      7684      7686      7736      7739      7685      7684      7686      7687
      7685      7684      7686      7688      7685      7684      7686      7736
      7686      7736      7739      7740      7686      7736      7739      7741
      7686      7736      7739      7742      7687      7686      7736      7737
      7687      7686      7736      7738      7687      7686      7736      7739
      7688      7686      7736      7737      7688      7686      7736      7738
      7688      7686      7736      7739      7689      7692      7695      7696
      7689      7692      7695      7697      7689      7692      7695      7698
      7690      7689      7692      7693      7690      7689      7692      7694
      7690      7689      7692      7695      7691      7689      7692      7693
      7691      7689      7692      7694      7691      7689      7692      7695
      7692      7695      7698      7699      7692      7695      7698      7700
      7692      7695      7698      7701      7693      7692      7695      7696
      7693      7692      7695      7697      7693      7692      7695      7698
      7694      7692      7695      7696      7694      7692      7695      7697
      7694      7692      7695      7698      7695      7698      7701      7702
      7695      7698      7701      7703      7695      7698      7701      7704
      7696      7695      7698      7699      7696      7695      7698      7700
      7696      7695      7698      7701      7697      7695      7698      7699
      7697      7695      7698      7700      7697      7695      7698      7701
      7698      7701      7704      7705      7698      7701      7704      7706
      7698      7701      7704      7707      7699      7698      7701      7702
      7699      7698      7701      7703      7699      7698      7701      7704
      7700      7698      7701      7702      7700      7698      7701      7703
      7700      7698      7701      7704      7701      7704      7707      7708
      7701      7704      7707      7709      7702      7701      7704      7705
      7702      7701      7704      7706      7702      7701      7704      7707
      7703      7701      7704      7705      7703      7701      7704      7706
      7703      7701      7704      7707      7704      7707      7709      7710
      7704      7707      7709      7711      7705      7704      7707      7708
      7705      7704      7707      7709      7706      7704      7707      7708
      7706      7704      7707      7709      7707      7709      7711      7712
      7707      7709      7711      7713      7707      7709      7711      7714
      7708      7707      7709      7710      7708      7707      7709      7711
      7709      7711      7714      7715      7709      7711      7714      7716
      7709      7711      7714      7717      7710      7709      7711      7712
      7710      7709      7711      7713      7710      7709      7711      7714
      7711      7714      7717      7718      7711      7714      7717      7719
      7711      7714      7717      7720      7712      7711      7714      7715
      7712      7711      7714      7716      7712      7711      7714      7717
      7713      7711      7714      7715      7713      7711      7714      7716
      7713      7711      7714      7717      7714      7717      7720      7721
      7714      7717      7720      7722      7714      7717      7720      7723
      7715      7714      7717      7718      7715      7714      7717      7719
      7715      7714      7717      7720      7716      7714      7717      7718
      7716      7714      7717      7719      7716      7714      7717      7720
      7717      7720      7723      7724      7717      7720      7723      7725
      7717      7720      7723      7726      7718      7717      7720      7721
      7718      7717      7720      7722      7718      7717      7720      7723
      7719      7717      7720      7721      7719      7717      7720      7722
      7719      7717      7720      7723      7720      7723      7726      7727
      7720      7723      7726      7728      7720      7723      7726      7729
      7721      7720      7723      7724      7721      7720      7723      7725
      7721      7720      7723      7726      7722      7720      7723      7724
      7722      7720      7723      7725      7722      7720      7723      7726
      7723      7726      7729      7730      7723      7726      7729      7731
      7723      7726      7729      7732      7724      7723      7726      7727
      7724      7723      7726      7728      7724      7723      7726      7729
      7725      7723      7726      7727      7725      7723      7726      7728
      7725      7723      7726      7729      7726      7729      7732      7733
      7726      7729      7732      7734      7726      7729      7732      7735
      7727      7726      7729      7730      7727      7726      7729      7731
      7727      7726      7729      7732      7728      7726      7729      7730
      7728      7726      7729      7731      7728      7726      7729      7732
      7730      7729      7732      7733      7730      7729      7732      7734
      7730      7729      7732      7735      7731      7729      7732      7733
      7731      7729      7732      7734      7731      7729      7732      7735
      7736      7739      7742      7743      7736      7739      7742      7744
      7736      7739      7742      7745      7737      7736      7739      7740
      7737      7736      7739      7741      7737      7736      7739      7742
      7738      7736      7739      7740      7738      7736      7739      7741
      7738      7736      7739      7742      7739      7742      7745      7746
      7739      7742      7745      7747      7739      7742      7745      7748
      7740      7739      7742      7743      7740      7739      7742      7744
      7740      7739      7742      7745      7741      7739      7742      7743
      7741      7739      7742      7744      7741      7739      7742      7745
      7742      7745      7748      7749      7742      7745      7748      7750
      7742      7745      7748      7751      7743      7742      7745      7746
      7743      7742      7745      7747      7743      7742      7745      7748
      7744      7742      7745      7746      7744      7742      7745      7747
      7744      7742      7745      7748      7745      7748      7751      7752
      7745      7748      7751      7753      7745      7748      7751      7754
      7746      7745      7748      7749      7746      7745      7748      7750
      7746      7745      7748      7751      7747      7745      7748      7749
      7747      7745      7748      7750      7747      7745      7748      7751
      7748      7751      7754      7755      7748      7751      7754      7756
      7748      7751      7754      7757      7749      7748      7751      7752
      7749      7748      7751      7753      7749      7748      7751      7754
      7750      7748      7751      7752      7750      7748      7751      7753
      7750      7748      7751      7754      7751      7754      7757      7758
      7751      7754      7757      7759      7751      7754      7757      7760
      7752      7751      7754      7755      7752      7751      7754      7756
      7752      7751      7754      7757      7753      7751      7754      7755
      7753      7751      7754      7756      7753      7751      7754      7757
      7754      7757      7760      7761      7754      7757      7760      7762
      7754      7757      7760      7763      7755      7754      7757      7758
      7755      7754      7757      7759      7755      7754      7757      7760
      7756      7754      7757      7758      7756      7754      7757      7759
      7756      7754      7757      7760      7757      7760      7763      7764
      7757      7760      7763      7765      7757      7760      7763      7766
      7758      7757      7760      7761      7758      7757      7760      7762
      7758      7757      7760      7763      7759      7757      7760      7761
      7759      7757      7760      7762      7759      7757      7760      7763
      7760      7763      7766      7767      7760      7763      7766      7768
      7760      7763      7766      7769      7761      7760      7763      7764
      7761      7760      7763      7765      7761      7760      7763      7766
      7762      7760      7763      7764      7762      7760      7763      7765
      7762      7760      7763      7766      7763      7766      7769      7770
      7763      7766      7769      7771      7763      7766      7769      7772
      7764      7763      7766      7767      7764      7763      7766      7768
      7764      7763      7766      7769      7765      7763      7766      7767
      7765      7763      7766      7768      7765      7763      7766      7769
      7766      7769      7772      7773      7766      7769      7772      7774
      7766      7769      7772      7775      7767      7766      7769      7770
      7767      7766      7769      7771      7767      7766      7769      7772
      7768      7766      7769      7770      7768      7766      7769      7771
      7768      7766      7769      7772      7769      7772      7775      7776
      7769      7772      7775      7777      7769      7772      7775      7778
      7770      7769      7772      7773      7770      7769      7772      7774
      7770      7769      7772      7775      7771      7769      7772      7773
      7771      7769      7772      7774      7771      7769      7772      7775
      7773      7772      7775      7776      7773      7772      7775      7777
      7773      7772      7775      7778      7774      7772      7775      7776
      7774      7772      7775      7777      7774      7772      7775      7778
      7779      7780      7795      7796      7779      7780      7795      7797
      7779      7780      7795      7801      7780      7779      7783      7784
      7780      7779      7783      7785      7780      7779      7783      7786
      7780      7779      7787      7788      7780      7779      7787      7789
      7780      7779      7787      7790      7780      7779      7791      7792
      7780      7779      7791      7793      7780      7779      7791      7794
      7780      7795      7801      7798      7781      7780      7779      7783
      7781      7780      7779      7787      7781      7780      7779      7791
      7781      7780      7795      7796      7781      7780      7795      7797
      7781      7780      7795      7801      7782      7780      7779      7783
      7782      7780      7779      7787      7782      7780      7779      7791
      7782      7780      7795      7796      7782      7780      7795      7797
      7782      7780      7795      7801      7783      7779      7780      7795
      7783      7779      7787      7788      7783      7779      7787      7789
      7783      7779      7787      7790      7783      7779      7791      7792
      7783      7779      7791      7793      7783      7779      7791      7794
      7784      7783      7779      7787      7784      7783      7779      7791
      7785      7783      7779      7787      7785      7783      7779      7791
      7786      7783      7779      7787      7786      7783      7779      7791
      7787      7779      7780      7795      7787      7779      7791      7792
      7787      7779      7791      7793      7787      7779      7791      7794
      7788      7787      7779      7791      7789      7787      7779      7791
      7790      7787      7779      7791      7791      7779      7780      7795
      7795      7801      7798      7799      7795      7801      7798      7800
      7795      7801      7798      7802      7796      7795      7801      7798
      7797      7795      7801      7798      7798      7802      7803      7804
      7798      7802      7803      7805      7798      7802      7803      7806
      7799      7798      7802      7803      7800      7798      7802      7803
      7801      7798      7802      7803      7802      7803      7806      7807
      7802      7803      7806      7808      7802      7803      7806      7814
      7803      7806      7808      7809      7803      7806      7814      7815
      7803      7806      7814      7816      7803      7806      7814      7817
      7804      7803      7806      7807      7804      7803      7806      7808
      7804      7803      7806      7814      7805      7803      7806      7807
      7805      7803      7806      7808      7805      7803      7806      7814
      7806      7808      7809      7810      7806      7808      7809      7811
      7806      7814      7817      7818      7807      7806      7808      7809
      7807      7806      7814      7815      7807      7806      7814      7816
      7807      7806      7814      7817      7808      7806      7814      7815
      7808      7806      7814      7816      7808      7806      7814      7817
      7808      7809      7811      7812      7808      7809      7811      7813
      7808      7809      7811      7823      7809      7808      7806      7814
      7809      7811      7823      7824      7809      7811      7823      7825
      7809      7811      7823      7826      7810      7809      7811      7812
      7810      7809      7811      7813      7810      7809      7811      7823
      7811      7823      7826      7827      7811      7823      7826      7828
      7811      7823      7826      7829      7812      7811      7823      7824
      7812      7811      7823      7825      7812      7811      7823      7826
      7813      7811      7823      7824      7813      7811      7823      7825
      7813      7811      7823      7826      7814      7817      7818      7819
      7814      7817      7818      7820      7815      7814      7817      7818
      7816      7814      7817      7818      7817      7818      7820      7821
      7817      7818      7820      7822      7817      7818      7820      7870
      7818      7820      7870      7871      7818      7820      7870      7872
      7818      7820      7870      7873      7819      7818      7820      7821
      7819      7818      7820      7822      7819      7818      7820      7870
      7820      7870      7873      7874      7820      7870      7873      7875
      7820      7870      7873      7876      7821      7820      7870      7871
      7821      7820      7870      7872      7821      7820      7870      7873
      7822      7820      7870      7871      7822      7820      7870      7872
      7822      7820      7870      7873      7823      7826      7829      7830
      7823      7826      7829      7831      7823      7826      7829      7832
      7824      7823      7826      7827      7824      7823      7826      7828
      7824      7823      7826      7829      7825      7823      7826      7827
      7825      7823      7826      7828      7825      7823      7826      7829
      7826      7829      7832      7833      7826      7829      7832      7834
      7826      7829      7832      7835      7827      7826      7829      7830
      7827      7826      7829      7831      7827      7826      7829      7832
      7828      7826      7829      7830      7828      7826      7829      7831
      7828      7826      7829      7832      7829      7832      7835      7836
      7829      7832      7835      7837      7829      7832      7835      7838
      7830      7829      7832      7833      7830      7829      7832      7834
      7830      7829      7832      7835      7831      7829      7832      7833
      7831      7829      7832      7834      7831      7829      7832      7835
      7832      7835      7838      7839      7832      7835      7838      7840
      7832      7835      7838      7841      7833      7832      7835      7836
      7833      7832      7835      7837      7833      7832      7835      7838
      7834      7832      7835      7836      7834      7832      7835      7837
      7834      7832      7835      7838      7835      7838      7841      7842
      7835      7838      7841      7843      7836      7835      7838      7839
      7836      7835      7838      7840      7836      7835      7838      7841
      7837      7835      7838      7839      7837      7835      7838      7840
      7837      7835      7838      7841      7838      7841      7843      7844
      7838      7841      7843      7845      7839      7838      7841      7842
      7839      7838      7841      7843      7840      7838      7841      7842
      7840      7838      7841      7843      7841      7843      7845      7846
      7841      7843      7845      7847      7841      7843      7845      7848
      7842      7841      7843      7844      7842      7841      7843      7845
      7843      7845      7848      7849      7843      7845      7848      7850
      7843      7845      7848      7851      7844      7843      7845      7846
      7844      7843      7845      7847      7844      7843      7845      7848
      7845      7848      7851      7852      7845      7848      7851      7853
      7845      7848      7851      7854      7846      7845      7848      7849
      7846      7845      7848      7850      7846      7845      7848      7851
      7847      7845      7848      7849      7847      7845      7848      7850
      7847      7845      7848      7851      7848      7851      7854      7855
      7848      7851      7854      7856      7848      7851      7854      7857
      7849      7848      7851      7852      7849      7848      7851      7853
      7849      7848      7851      7854      7850      7848      7851      7852
      7850      7848      7851      7853      7850      7848      7851      7854
      7851      7854      7857      7858      7851      7854      7857      7859
      7851      7854      7857      7860      7852      7851      7854      7855
      7852      7851      7854      7856      7852      7851      7854      7857
      7853      7851      7854      7855      7853      7851      7854      7856
      7853      7851      7854      7857      7854      7857      7860      7861
      7854      7857      7860      7862      7854      7857      7860      7863
      7855      7854      7857      7858      7855      7854      7857      7859
      7855      7854      7857      7860      7856      7854      7857      7858
      7856      7854      7857      7859      7856      7854      7857      7860
      7857      7860      7863      7864      7857      7860      7863      7865
      7857      7860      7863      7866      7858      7857      7860      7861
      7858      7857      7860      7862      7858      7857      7860      7863
      7859      7857      7860      7861      7859      7857      7860      7862
      7859      7857      7860      7863      7860      7863      7866      7867
      7860      7863      7866      7868      7860      7863      7866      7869
      7861      7860      7863      7864      7861      7860      7863      7865
      7861      7860      7863      7866      7862      7860      7863      7864
      7862      7860      7863      7865      7862      7860      7863      7866
      7864      7863      7866      7867      7864      7863      7866      7868
      7864      7863      7866      7869      7865      7863      7866      7867
      7865      7863      7866      7868      7865      7863      7866      7869
      7870      7873      7876      7877      7870      7873      7876      7878
      7870      7873      7876      7879      7871      7870      7873      7874
      7871      7870      7873      7875      7871      7870      7873      7876
      7872      7870      7873      7874      7872      7870      7873      7875
      7872      7870      7873      7876      7873      7876      7879      7880
      7873      7876      7879      7881      7873      7876      7879      7882
      7874      7873      7876      7877      7874      7873      7876      7878
      7874      7873      7876      7879      7875      7873      7876      7877
      7875      7873      7876      7878      7875      7873      7876      7879
      7876      7879      7882      7883      7876      7879      7882      7884
      7876      7879      7882      7885      7877      7876      7879      7880
      7877      7876      7879      7881      7877      7876      7879      7882
      7878      7876      7879      7880      7878      7876      7879      7881
      7878      7876      7879      7882      7879      7882      7885      7886
      7879      7882      7885      7887      7879      7882      7885      7888
      7880      7879      7882      7883      7880      7879      7882      7884
      7880      7879      7882      7885      7881      7879      7882      7883
      7881      7879      7882      7884      7881      7879      7882      7885
      7882      7885      7888      7889      7882      7885      7888      7890
      7882      7885      7888      7891      7883      7882      7885      7886
      7883      7882      7885      7887      7883      7882      7885      7888
      7884      7882      7885      7886      7884      7882      7885      7887
      7884      7882      7885      7888      7885      7888      7891      7892
      7885      7888      7891      7893      7885      7888      7891      7894
      7886      7885      7888      7889      7886      7885      7888      7890
      7886      7885      7888      7891      7887      7885      7888      7889
      7887      7885      7888      7890      7887      7885      7888      7891
      7888      7891      7894      7895      7888      7891      7894      7896
      7888      7891      7894      7897      7889      7888      7891      7892
      7889      7888      7891      7893      7889      7888      7891      7894
      7890      7888      7891      7892      7890      7888      7891      7893
      7890      7888      7891      7894      7891      7894      7897      7898
      7891      7894      7897      7899      7891      7894      7897      7900
      7892      7891      7894      7895      7892      7891      7894      7896
      7892      7891      7894      7897      7893      7891      7894      7895
      7893      7891      7894      7896      7893      7891      7894      7897
      7894      7897      7900      7901      7894      7897      7900      7902
      7894      7897      7900      7903      7895      7894      7897      7898
      7895      7894      7897      7899      7895      7894      7897      7900
      7896      7894      7897      7898      7896      7894      7897      7899
      7896      7894      7897      7900      7897      7900      7903      7904
      7897      7900      7903      7905      7897      7900      7903      7906
      7898      7897      7900      7901      7898      7897      7900      7902
      7898      7897      7900      7903      7899      7897      7900      7901
      7899      7897      7900      7902      7899      7897      7900      7903
      7900      7903      7906      7907      7900      7903      7906      7908
      7900      7903      7906      7909      7901      7900      7903      7904
      7901      7900      7903      7905      7901      7900      7903      7906
      7902      7900      7903      7904      7902      7900      7903      7905
      7902      7900      7903      7906      7903      7906      7909      7910
      7903      7906      7909      7911      7903      7906      7909      7912
      7904      7903      7906      7907      7904      7903      7906      7908
      7904      7903      7906      7909      7905      7903      7906      7907
      7905      7903      7906      7908      7905      7903      7906      7909
      7907      7906      7909      7910      7907      7906      7909      7911
      7907      7906      7909      7912      7908      7906      7909      7910
      7908      7906      7909      7911      7908      7906      7909      7912
      7913      7914      7929      7930      7913      7914      7929      7931
      7913      7914      7929      7935      7914      7913      7917      7918
      7914      7913      7917      7919      7914      7913      7917      7920
      7914      7913      7921      7922      7914      7913      7921      7923
      7914      7913      7921      7924      7914      7913      7925      7926
      7914      7913      7925      7927      7914      7913      7925      7928
      7914      7929      7935      7932      7915      7914      7913      7917
      7915      7914      7913      7921      7915      7914      7913      7925
      7915      7914      7929      7930      7915      7914      7929      7931
      7915      7914      7929      7935      7916      7914      7913      7917
      7916      7914      7913      7921      7916      7914      7913      7925
      7916      7914      7929      7930      7916      7914      7929      7931
      7916      7914      7929      7935      7917      7913      7914      7929
      7917      7913      7921      7922      7917      7913      7921      7923
      7917      7913      7921      7924      7917      7913      7925      7926
      7917      7913      7925      7927      7917      7913      7925      7928
      7918      7917      7913      7921      7918      7917      7913      7925
      7919      7917      7913      7921      7919      7917      7913      7925
      7920      7917      7913      7921      7920      7917      7913      7925
      7921      7913      7914      7929      7921      7913      7925      7926
      7921      7913      7925      7927      7921      7913      7925      7928
      7922      7921      7913      7925      7923      7921      7913      7925
      7924      7921      7913      7925      7925      7913      7914      7929
      7929      7935      7932      7933      7929      7935      7932      7934
      7929      7935      7932      7936      7930      7929      7935      7932
      7931      7929      7935      7932      7932      7936      7937      7938
      7932      7936      7937      7939      7932      7936      7937      7940
      7933      7932      7936      7937      7934      7932      7936      7937
      7935      7932      7936      7937      7936      7937      7940      7941
      7936      7937      7940      7942      7936      7937      7940      7948
      7937      7940      7942      7943      7937      7940      7948      7949
      7937      7940      7948      7950      7937      7940      7948      7951
      7938      7937      7940      7941      7938      7937      7940      7942
      7938      7937      7940      7948      7939      7937      7940      7941
      7939      7937      7940      7942      7939      7937      7940      7948
      7940      7942      7943      7944      7940      7942      7943      7945
      7940      7948      7951      7952      7941      7940      7942      7943
      7941      7940      7948      7949      7941      7940      7948      7950
      7941      7940      7948      7951      7942      7940      7948      7949
      7942      7940      7948      7950      7942      7940      7948      7951
      7942      7943      7945      7946      7942      7943      7945      7947
      7942      7943      7945      7957      7943      7942      7940      7948
      7943      7945      7957      7958      7943      7945      7957      7959
      7943      7945      7957      7960      7944      7943      7945      7946
      7944      7943      7945      7947      7944      7943      7945      7957
      7945      7957      7960      7961      7945      7957      7960      7962
      7945      7957      7960      7963      7946      7945      7957      7958
      7946      7945      7957      7959      7946      7945      7957      7960
      7947      7945      7957      7958      7947      7945      7957      7959
      7947      7945      7957      7960      7948      7951      7952      7953
      7948      7951      7952      7954      7949      7948      7951      7952
      7950      7948      7951      7952      7951      7952      7954      7955
      7951      7952      7954      7956      7951      7952      7954      8004
      7952      7954      8004      8005      7952      7954      8004      8006
      7952      7954      8004      8007      7953      7952      7954      7955
      7953      7952      7954      7956      7953      7952      7954      8004
      7954      8004      8007      8008      7954      8004      8007      8009
      7954      8004      8007      8010      7955      7954      8004      8005
      7955      7954      8004      8006      7955      7954      8004      8007
      7956      7954      8004      8005      7956      7954      8004      8006
      7956      7954      8004      8007      7957      7960      7963      7964
      7957      7960      7963      7965      7957      7960      7963      7966
      7958      7957      7960      7961      7958      7957      7960      7962
      7958      7957      7960      7963      7959      7957      7960      7961
      7959      7957      7960      7962      7959      7957      7960      7963
      7960      7963      7966      7967      7960      7963      7966      7968
      7960      7963      7966      7969      7961      7960      7963      7964
      7961      7960      7963      7965      7961      7960      7963      7966
      7962      7960      7963      7964      7962      7960      7963      7965
      7962      7960      7963      7966      7963      7966      7969      7970
      7963      7966      7969      7971      7963      7966      7969      7972
      7964      7963      7966      7967      7964      7963      7966      7968
      7964      7963      7966      7969      7965      7963      7966      7967
      7965      7963      7966      7968      7965      7963      7966      7969
      7966      7969      7972      7973      7966      7969      7972      7974
      7966      7969      7972      7975      7967      7966      7969      7970
      7967      7966      7969      7971      7967      7966      7969      7972
      7968      7966      7969      7970      7968      7966      7969      7971
      7968      7966      7969      7972      7969      7972      7975      7976
      7969      7972      7975      7977      7970      7969      7972      7973
      7970      7969      7972      7974      7970      7969      7972      7975
      7971      7969      7972      7973      7971      7969      7972      7974
      7971      7969      7972      7975      7972      7975      7977      7978
      7972      7975      7977      7979      7973      7972      7975      7976
      7973      7972      7975      7977      7974      7972      7975      7976
      7974      7972      7975      7977      7975      7977      7979      7980
      7975      7977      7979      7981      7975      7977      7979      7982
      7976      7975      7977      7978      7976      7975      7977      7979
      7977      7979      7982      7983      7977      7979      7982      7984
      7977      7979      7982      7985      7978      7977      7979      7980
      7978      7977      7979      7981      7978      7977      7979      7982
      7979      7982      7985      7986      7979      7982      7985      7987
      7979      7982      7985      7988      7980      7979      7982      7983
      7980      7979      7982      7984      7980      7979      7982      7985
      7981      7979      7982      7983      7981      7979      7982      7984
      7981      7979      7982      7985      7982      7985      7988      7989
      7982      7985      7988      7990      7982      7985      7988      7991
      7983      7982      7985      7986      7983      7982      7985      7987
      7983      7982      7985      7988      7984      7982      7985      7986
      7984      7982      7985      7987      7984      7982      7985      7988
      7985      7988      7991      7992      7985      7988      7991      7993
      7985      7988      7991      7994      7986      7985      7988      7989
      7986      7985      7988      7990      7986      7985      7988      7991
      7987      7985      7988      7989      7987      7985      7988      7990
      7987      7985      7988      7991      7988      7991      7994      7995
      7988      7991      7994      7996      7988      7991      7994      7997
      7989      7988      7991      7992      7989      7988      7991      7993
      7989      7988      7991      7994      7990      7988      7991      7992
      7990      7988      7991      7993      7990      7988      7991      7994
      7991      7994      7997      7998      7991      7994      7997      7999
      7991      7994      7997      8000      7992      7991      7994      7995
      7992      7991      7994      7996      7992      7991      7994      7997
      7993      7991      7994      7995      7993      7991      7994      7996
      7993      7991      7994      7997      7994      7997      8000      8001
      7994      7997      8000      8002      7994      7997      8000      8003
      7995      7994      7997      7998      7995      7994      7997      7999
      7995      7994      7997      8000      7996      7994      7997      7998
      7996      7994      7997      7999      7996      7994      7997      8000
      7998      7997      8000      8001      7998      7997      8000      8002
      7998      7997      8000      8003      7999      7997      8000      8001
      7999      7997      8000      8002      7999      7997      8000      8003
      8004      8007      8010      8011      8004      8007      8010      8012
      8004      8007      8010      8013      8005      8004      8007      8008
      8005      8004      8007      8009      8005      8004      8007      8010
      8006      8004      8007      8008      8006      8004      8007      8009
      8006      8004      8007      8010      8007      8010      8013      8014
      8007      8010      8013      8015      8007      8010      8013      8016
      8008      8007      8010      8011      8008      8007      8010      8012
      8008      8007      8010      8013      8009      8007      8010      8011
      8009      8007      8010      8012      8009      8007      8010      8013
      8010      8013      8016      8017      8010      8013      8016      8018
      8010      8013      8016      8019      8011      8010      8013      8014
      8011      8010      8013      8015      8011      8010      8013      8016
      8012      8010      8013      8014      8012      8010      8013      8015
      8012      8010      8013      8016      8013      8016      8019      8020
      8013      8016      8019      8021      8013      8016      8019      8022
      8014      8013      8016      8017      8014      8013      8016      8018
      8014      8013      8016      8019      8015      8013      8016      8017
      8015      8013      8016      8018      8015      8013      8016      8019
      8016      8019      8022      8023      8016      8019      8022      8024
      8016      8019      8022      8025      8017      8016      8019      8020
      8017      8016      8019      8021      8017      8016      8019      8022
      8018      8016      8019      8020      8018      8016      8019      8021
      8018      8016      8019      8022      8019      8022      8025      8026
      8019      8022      8025      8027      8019      8022      8025      8028
      8020      8019      8022      8023      8020      8019      8022      8024
      8020      8019      8022      8025      8021      8019      8022      8023
      8021      8019      8022      8024      8021      8019      8022      8025
      8022      8025      8028      8029      8022      8025      8028      8030
      8022      8025      8028      8031      8023      8022      8025      8026
      8023      8022      8025      8027      8023      8022      8025      8028
      8024      8022      8025      8026      8024      8022      8025      8027
      8024      8022      8025      8028      8025      8028      8031      8032
      8025      8028      8031      8033      8025      8028      8031      8034
      8026      8025      8028      8029      8026      8025      8028      8030
      8026      8025      8028      8031      8027      8025      8028      8029
      8027      8025      8028      8030      8027      8025      8028      8031
      8028      8031      8034      8035      8028      8031      8034      8036
      8028      8031      8034      8037      8029      8028      8031      8032
      8029      8028      8031      8033      8029      8028      8031      8034
      8030      8028      8031      8032      8030      8028      8031      8033
      8030      8028      8031      8034      8031      8034      8037      8038
      8031      8034      8037      8039      8031      8034      8037      8040
      8032      8031      8034      8035      8032      8031      8034      8036
      8032      8031      8034      8037      8033      8031      8034      8035
      8033      8031      8034      8036      8033      8031      8034      8037
      8034      8037      8040      8041      8034      8037      8040      8042
      8034      8037      8040      8043      8035      8034      8037      8038
      8035      8034      8037      8039      8035      8034      8037      8040
      8036      8034      8037      8038      8036      8034      8037      8039
      8036      8034      8037      8040      8037      8040      8043      8044
      8037      8040      8043      8045      8037      8040      8043      8046
      8038      8037      8040      8041      8038      8037      8040      8042
      8038      8037      8040      8043      8039      8037      8040      8041
      8039      8037      8040      8042      8039      8037      8040      8043
      8041      8040      8043      8044      8041      8040      8043      8045
      8041      8040      8043      8046      8042      8040      8043      8044
      8042      8040      8043      8045      8042      8040      8043      8046
      8047      8051      8054      8055      8047      8051      8054      8056
      8047      8051      8054      8061      8048      8047      8051      8052
      8048      8047      8051      8053      8048      8047      8051      8054
      8049      8047      8051      8052      8049      8047      8051      8053
      8049      8047      8051      8054      8050      8047      8051      8052
      8050      8047      8051      8053      8050      8047      8051      8054
      8051      8054      8061      8057      8052      8051      8054      8055
      8052      8051      8054      8056      8052      8051      8054      8061
      8053      8051      8054      8055      8053      8051      8054      8056
      8053      8051      8054      8061      8054      8061      8057      8058
      8054      8061      8057      8059      8054      8061      8057      8060
      8055      8054      8061      8057      8056      8054      8061      8057
      8057      8060      8062      8063      8057      8060      8062      8064
      8057      8060      8062      8065      8058      8057      8060      8062
      8059      8057      8060      8062      8060      8062      8065      8066
      8060      8062      8065      8067      8060      8062      8065      8073
      8061      8057      8060      8062      8062      8065      8067      8068
      8062      8065      8073      8074      8062      8065      8073      8075
      8062      8065      8073      8076      8063      8062      8065      8066
      8063      8062      8065      8067      8063      8062      8065      8073
      8064      8062      8065      8066      8064      8062      8065      8067
      8064      8062      8065      8073      8065      8067      8068      8069
      8065      8067      8068      8070      8065      8073      8076      8077
      8066      8065      8067      8068      8066      8065      8073      8074
      8066      8065      8073      8075      8066      8065      8073      8076
      8067      8065      8073      8074      8067      8065      8073      8075
      8067      8065      8073      8076      8067      8068      8070      8071
      8067      8068      8070      8072      8067      8068      8070      8082
      8068      8067      8065      8073      8068      8070      8082      8083
      8068      8070      8082      8084      8068      8070      8082      8085
      8069      8068      8070      8071      8069      8068      8070      8072
      8069      8068      8070      8082      8070      8082      8085      8086
      8070      8082      8085      8087      8070      8082      8085      8088
      8071      8070      8082      8083      8071      8070      8082      8084
      8071      8070      8082      8085      8072      8070      8082      8083
      8072      8070      8082      8084      8072      8070      8082      8085
      8073      8076      8077      8078      8073      8076      8077      8079
      8074      8073      8076      8077      8075      8073      8076      8077
      8076      8077      8079      8080      8076      8077      8079      8081
      8076      8077      8079      8129      8077      8079      8129      8130
      8077      8079      8129      8131      8077      8079      8129      8132
      8078      8077      8079      8080      8078      8077      8079      8081
      8078      8077      8079      8129      8079      8129      8132      8133
      8079      8129      8132      8134      8079      8129      8132      8135
      8080      8079      8129      8130      8080      8079      8129      8131
      8080      8079      8129      8132      8081      8079      8129      8130
      8081      8079      8129      8131      8081      8079      8129      8132
      8082      8085      8088      8089      8082      8085      8088      8090
      8082      8085      8088      8091      8083      8082      8085      8086
      8083      8082      8085      8087      8083      8082      8085      8088
      8084      8082      8085      8086      8084      8082      8085      8087
      8084      8082      8085      8088      8085      8088      8091      8092
      8085      8088      8091      8093      8085      8088      8091      8094
      8086      8085      8088      8089      8086      8085      8088      8090
      8086      8085      8088      8091      8087      8085      8088      8089
      8087      8085      8088      8090      8087      8085      8088      8091
      8088      8091      8094      8095      8088      8091      8094      8096
      8088      8091      8094      8097      8089      8088      8091      8092
      8089      8088      8091      8093      8089      8088      8091      8094
      8090      8088      8091      8092      8090      8088      8091      8093
      8090      8088      8091      8094      8091      8094      8097      8098
      8091      8094      8097      8099      8091      8094      8097      8100
      8092      8091      8094      8095      8092      8091      8094      8096
      8092      8091      8094      8097      8093      8091      8094      8095
      8093      8091      8094      8096      8093      8091      8094      8097
      8094      8097      8100      8101      8094      8097      8100      8102
      8095      8094      8097      8098      8095      8094      8097      8099
      8095      8094      8097      8100      8096      8094      8097      8098
      8096      8094      8097      8099      8096      8094      8097      8100
      8097      8100      8102      8103      8097      8100      8102      8104
      8098      8097      8100      8101      8098      8097      8100      8102
      8099      8097      8100      8101      8099      8097      8100      8102
      8100      8102      8104      8105      8100      8102      8104      8106
      8100      8102      8104      8107      8101      8100      8102      8103
      8101      8100      8102      8104      8102      8104      8107      8108
      8102      8104      8107      8109      8102      8104      8107      8110
      8103      8102      8104      8105      8103      8102      8104      8106
      8103      8102      8104      8107      8104      8107      8110      8111
      8104      8107      8110      8112      8104      8107      8110      8113
      8105      8104      8107      8108      8105      8104      8107      8109
      8105      8104      8107      8110      8106      8104      8107      8108
      8106      8104      8107      8109      8106      8104      8107      8110
      8107      8110      8113      8114      8107      8110      8113      8115
      8107      8110      8113      8116      8108      8107      8110      8111
      8108      8107      8110      8112      8108      8107      8110      8113
      8109      8107      8110      8111      8109      8107      8110      8112
      8109      8107      8110      8113      8110      8113      8116      8117
      8110      8113      8116      8118      8110      8113      8116      8119
      8111      8110      8113      8114      8111      8110      8113      8115
      8111      8110      8113      8116      8112      8110      8113      8114
      8112      8110      8113      8115      8112      8110      8113      8116
      8113      8116      8119      8120      8113      8116      8119      8121
      8113      8116      8119      8122      8114      8113      8116      8117
      8114      8113      8116      8118      8114      8113      8116      8119
      8115      8113      8116      8117      8115      8113      8116      8118
      8115      8113      8116      8119      8116      8119      8122      8123
      8116      8119      8122      8124      8116      8119      8122      8125
      8117      8116      8119      8120      8117      8116      8119      8121
      8117      8116      8119      8122      8118      8116      8119      8120
      8118      8116      8119      8121      8118      8116      8119      8122
      8119      8122      8125      8126      8119      8122      8125      8127
      8119      8122      8125      8128      8120      8119      8122      8123
      8120      8119      8122      8124      8120      8119      8122      8125
      8121      8119      8122      8123      8121      8119      8122      8124
      8121      8119      8122      8125      8123      8122      8125      8126
      8123      8122      8125      8127      8123      8122      8125      8128
      8124      8122      8125      8126      8124      8122      8125      8127
      8124      8122      8125      8128      8129      8132      8135      8136
      8129      8132      8135      8137      8129      8132      8135      8138
      8130      8129      8132      8133      8130      8129      8132      8134
      8130      8129      8132      8135      8131      8129      8132      8133
      8131      8129      8132      8134      8131      8129      8132      8135
      8132      8135      8138      8139      8132      8135      8138      8140
      8132      8135      8138      8141      8133      8132      8135      8136
      8133      8132      8135      8137      8133      8132      8135      8138
      8134      8132      8135      8136      8134      8132      8135      8137
      8134      8132      8135      8138      8135      8138      8141      8142
      8135      8138      8141      8143      8135      8138      8141      8144
      8136      8135      8138      8139      8136      8135      8138      8140
      8136      8135      8138      8141      8137      8135      8138      8139
      8137      8135      8138      8140      8137      8135      8138      8141
      8138      8141      8144      8145      8138      8141      8144      8146
      8138      8141      8144      8147      8139      8138      8141      8142
      8139      8138      8141      8143      8139      8138      8141      8144
      8140      8138      8141      8142      8140      8138      8141      8143
      8140      8138      8141      8144      8141      8144      8147      8148
      8141      8144      8147      8149      8141      8144      8147      8150
      8142      8141      8144      8145      8142      8141      8144      8146
      8142      8141      8144      8147      8143      8141      8144      8145
      8143      8141      8144      8146      8143      8141      8144      8147
      8144      8147      8150      8151      8144      8147      8150      8152
      8144      8147      8150      8153      8145      8144      8147      8148
      8145      8144      8147      8149      8145      8144      8147      8150
      8146      8144      8147      8148      8146      8144      8147      8149
      8146      8144      8147      8150      8147      8150      8153      8154
      8147      8150      8153      8155      8147      8150      8153      8156
      8148      8147      8150      8151      8148      8147      8150      8152
      8148      8147      8150      8153      8149      8147      8150      8151
      8149      8147      8150      8152      8149      8147      8150      8153
      8150      8153      8156      8157      8150      8153      8156      8158
      8150      8153      8156      8159      8151      8150      8153      8154
      8151      8150      8153      8155      8151      8150      8153      8156
      8152      8150      8153      8154      8152      8150      8153      8155
      8152      8150      8153      8156      8153      8156      8159      8160
      8153      8156      8159      8161      8153      8156      8159      8162
      8154      8153      8156      8157      8154      8153      8156      8158
      8154      8153      8156      8159      8155      8153      8156      8157
      8155      8153      8156      8158      8155      8153      8156      8159
      8156      8159      8162      8163      8156      8159      8162      8164
      8156      8159      8162      8165      8157      8156      8159      8160
      8157      8156      8159      8161      8157      8156      8159      8162
      8158      8156      8159      8160      8158      8156      8159      8161
      8158      8156      8159      8162      8159      8162      8165      8166
      8159      8162      8165      8167      8159      8162      8165      8168
      8160      8159      8162      8163      8160      8159      8162      8164
      8160      8159      8162      8165      8161      8159      8162      8163
      8161      8159      8162      8164      8161      8159      8162      8165
      8162      8165      8168      8169      8162      8165      8168      8170
      8162      8165      8168      8171      8163      8162      8165      8166
      8163      8162      8165      8167      8163      8162      8165      8168
      8164      8162      8165      8166      8164      8162      8165      8167
      8164      8162      8165      8168      8166      8165      8168      8169
      8166      8165      8168      8170      8166      8165      8168      8171
      8167      8165      8168      8169      8167      8165      8168      8170
      8167      8165      8168      8171      8172      8176      8179      8180
      8172      8176      8179      8181      8172      8176      8179      8186
      8173      8172      8176      8177      8173      8172      8176      8178
      8173      8172      8176      8179      8174      8172      8176      8177
      8174      8172      8176      8178      8174      8172      8176      8179
      8175      8172      8176      8177      8175      8172      8176      8178
      8175      8172      8176      8179      8176      8179      8186      8182
      8177      8176      8179      8180      8177      8176      8179      8181
      8177      8176      8179      8186      8178      8176      8179      8180
      8178      8176      8179      8181      8178      8176      8179      8186
      8179      8186      8182      8183      8179      8186      8182      8184
      8179      8186      8182      8185      8180      8179      8186      8182
      8181      8179      8186      8182      8182      8185      8187      8188
      8182      8185      8187      8189      8182      8185      8187      8190
      8183      8182      8185      8187      8184      8182      8185      8187
      8185      8187      8190      8191      8185      8187      8190      8192
      8185      8187      8190      8198      8186      8182      8185      8187
      8187      8190      8192      8193      8187      8190      8198      8199
      8187      8190      8198      8200      8187      8190      8198      8201
      8188      8187      8190      8191      8188      8187      8190      8192
      8188      8187      8190      8198      8189      8187      8190      8191
      8189      8187      8190      8192      8189      8187      8190      8198
      8190      8192      8193      8194      8190      8192      8193      8195
      8190      8198      8201      8202      8191      8190      8192      8193
      8191      8190      8198      8199      8191      8190      8198      8200
      8191      8190      8198      8201      8192      8190      8198      8199
      8192      8190      8198      8200      8192      8190      8198      8201
      8192      8193      8195      8196      8192      8193      8195      8197
      8192      8193      8195      8207      8193      8192      8190      8198
      8193      8195      8207      8208      8193      8195      8207      8209
      8193      8195      8207      8210      8194      8193      8195      8196
      8194      8193      8195      8197      8194      8193      8195      8207
      8195      8207      8210      8211      8195      8207      8210      8212
      8195      8207      8210      8213      8196      8195      8207      8208
      8196      8195      8207      8209      8196      8195      8207      8210
      8197      8195      8207      8208      8197      8195      8207      8209
      8197      8195      8207      8210      8198      8201      8202      8203
      8198      8201      8202      8204      8199      8198      8201      8202
      8200      8198      8201      8202      8201      8202      8204      8205
      8201      8202      8204      8206      8201      8202      8204      8254
      8202      8204      8254      8255      8202      8204      8254      8256
      8202      8204      8254      8257      8203      8202      8204      8205
      8203      8202      8204      8206      8203      8202      8204      8254
      8204      8254      8257      8258      8204      8254      8257      8259
      8204      8254      8257      8260      8205      8204      8254      8255
      8205      8204      8254      8256      8205      8204      8254      8257
      8206      8204      8254      8255      8206      8204      8254      8256
      8206      8204      8254      8257      8207      8210      8213      8214
      8207      8210      8213      8215      8207      8210      8213      8216
      8208      8207      8210      8211      8208      8207      8210      8212
      8208      8207      8210      8213      8209      8207      8210      8211
      8209      8207      8210      8212      8209      8207      8210      8213
      8210      8213      8216      8217      8210      8213      8216      8218
      8210      8213      8216      8219      8211      8210      8213      8214
      8211      8210      8213      8215      8211      8210      8213      8216
      8212      8210      8213      8214      8212      8210      8213      8215
      8212      8210      8213      8216      8213      8216      8219      8220
      8213      8216      8219      8221      8213      8216      8219      8222
      8214      8213      8216      8217      8214      8213      8216      8218
      8214      8213      8216      8219      8215      8213      8216      8217
      8215      8213      8216      8218      8215      8213      8216      8219
      8216      8219      8222      8223      8216      8219      8222      8224
      8216      8219      8222      8225      8217      8216      8219      8220
      8217      8216      8219      8221      8217      8216      8219      8222
      8218      8216      8219      8220      8218      8216      8219      8221
      8218      8216      8219      8222      8219      8222      8225      8226
      8219      8222      8225      8227      8220      8219      8222      8223
      8220      8219      8222      8224      8220      8219      8222      8225
      8221      8219      8222      8223      8221      8219      8222      8224
      8221      8219      8222      8225      8222      8225      8227      8228
      8222      8225      8227      8229      8223      8222      8225      8226
      8223      8222      8225      8227      8224      8222      8225      8226
      8224      8222      8225      8227      8225      8227      8229      8230
      8225      8227      8229      8231      8225      8227      8229      8232
      8226      8225      8227      8228      8226      8225      8227      8229
      8227      8229      8232      8233      8227      8229      8232      8234
      8227      8229      8232      8235      8228      8227      8229      8230
      8228      8227      8229      8231      8228      8227      8229      8232
      8229      8232      8235      8236      8229      8232      8235      8237
      8229      8232      8235      8238      8230      8229      8232      8233
      8230      8229      8232      8234      8230      8229      8232      8235
      8231      8229      8232      8233      8231      8229      8232      8234
      8231      8229      8232      8235      8232      8235      8238      8239
      8232      8235      8238      8240      8232      8235      8238      8241
      8233      8232      8235      8236      8233      8232      8235      8237
      8233      8232      8235      8238      8234      8232      8235      8236
      8234      8232      8235      8237      8234      8232      8235      8238
      8235      8238      8241      8242      8235      8238      8241      8243
      8235      8238      8241      8244      8236      8235      8238      8239
      8236      8235      8238      8240      8236      8235      8238      8241
      8237      8235      8238      8239      8237      8235      8238      8240
      8237      8235      8238      8241      8238      8241      8244      8245
      8238      8241      8244      8246      8238      8241      8244      8247
      8239      8238      8241      8242      8239      8238      8241      8243
      8239      8238      8241      8244      8240      8238      8241      8242
      8240      8238      8241      8243      8240      8238      8241      8244
      8241      8244      8247      8248      8241      8244      8247      8249
      8241      8244      8247      8250      8242      8241      8244      8245
      8242      8241      8244      8246      8242      8241      8244      8247
      8243      8241      8244      8245      8243      8241      8244      8246
      8243      8241      8244      8247      8244      8247      8250      8251
      8244      8247      8250      8252      8244      8247      8250      8253
      8245      8244      8247      8248      8245      8244      8247      8249
      8245      8244      8247      8250      8246      8244      8247      8248
      8246      8244      8247      8249      8246      8244      8247      8250
      8248      8247      8250      8251      8248      8247      8250      8252
      8248      8247      8250      8253      8249      8247      8250      8251
      8249      8247      8250      8252      8249      8247      8250      8253
      8254      8257      8260      8261      8254      8257      8260      8262
      8254      8257      8260      8263      8255      8254      8257      8258
      8255      8254      8257      8259      8255      8254      8257      8260
      8256      8254      8257      8258      8256      8254      8257      8259
      8256      8254      8257      8260      8257      8260      8263      8264
      8257      8260      8263      8265      8257      8260      8263      8266
      8258      8257      8260      8261      8258      8257      8260      8262
      8258      8257      8260      8263      8259      8257      8260      8261
      8259      8257      8260      8262      8259      8257      8260      8263
      8260      8263      8266      8267      8260      8263      8266      8268
      8260      8263      8266      8269      8261      8260      8263      8264
      8261      8260      8263      8265      8261      8260      8263      8266
      8262      8260      8263      8264      8262      8260      8263      8265
      8262      8260      8263      8266      8263      8266      8269      8270
      8263      8266      8269      8271      8263      8266      8269      8272
      8264      8263      8266      8267      8264      8263      8266      8268
      8264      8263      8266      8269      8265      8263      8266      8267
      8265      8263      8266      8268      8265      8263      8266      8269
      8266      8269      8272      8273      8266      8269      8272      8274
      8266      8269      8272      8275      8267      8266      8269      8270
      8267      8266      8269      8271      8267      8266      8269      8272
      8268      8266      8269      8270      8268      8266      8269      8271
      8268      8266      8269      8272      8269      8272      8275      8276
      8269      8272      8275      8277      8269      8272      8275      8278
      8270      8269      8272      8273      8270      8269      8272      8274
      8270      8269      8272      8275      8271      8269      8272      8273
      8271      8269      8272      8274      8271      8269      8272      8275
      8272      8275      8278      8279      8272      8275      8278      8280
      8272      8275      8278      8281      8273      8272      8275      8276
      8273      8272      8275      8277      8273      8272      8275      8278
      8274      8272      8275      8276      8274      8272      8275      8277
      8274      8272      8275      8278      8275      8278      8281      8282
      8275      8278      8281      8283      8275      8278      8281      8284
      8276      8275      8278      8279      8276      8275      8278      8280
      8276      8275      8278      8281      8277      8275      8278      8279
      8277      8275      8278      8280      8277      8275      8278      8281
      8278      8281      8284      8285      8278      8281      8284      8286
      8278      8281      8284      8287      8279      8278      8281      8282
      8279      8278      8281      8283      8279      8278      8281      8284
      8280      8278      8281      8282      8280      8278      8281      8283
      8280      8278      8281      8284      8281      8284      8287      8288
      8281      8284      8287      8289      8281      8284      8287      8290
      8282      8281      8284      8285      8282      8281      8284      8286
      8282      8281      8284      8287      8283      8281      8284      8285
      8283      8281      8284      8286      8283      8281      8284      8287
      8284      8287      8290      8291      8284      8287      8290      8292
      8284      8287      8290      8293      8285      8284      8287      8288
      8285      8284      8287      8289      8285      8284      8287      8290
      8286      8284      8287      8288      8286      8284      8287      8289
      8286      8284      8287      8290      8287      8290      8293      8294
      8287      8290      8293      8295      8287      8290      8293      8296
      8288      8287      8290      8291      8288      8287      8290      8292
      8288      8287      8290      8293      8289      8287      8290      8291
      8289      8287      8290      8292      8289      8287      8290      8293
      8291      8290      8293      8294      8291      8290      8293      8295
      8291      8290      8293      8296      8292      8290      8293      8294
      8292      8290      8293      8295      8292      8290      8293      8296
      8297      8298      8313      8314      8297      8298      8313      8315
      8297      8298      8313      8319      8298      8297      8301      8302
      8298      8297      8301      8303      8298      8297      8301      8304
      8298      8297      8305      8306      8298      8297      8305      8307
      8298      8297      8305      8308      8298      8297      8309      8310
      8298      8297      8309      8311      8298      8297      8309      8312
      8298      8313      8319      8316      8299      8298      8297      8301
      8299      8298      8297      8305      8299      8298      8297      8309
      8299      8298      8313      8314      8299      8298      8313      8315
      8299      8298      8313      8319      8300      8298      8297      8301
      8300      8298      8297      8305      8300      8298      8297      8309
      8300      8298      8313      8314      8300      8298      8313      8315
      8300      8298      8313      8319      8301      8297      8298      8313
      8301      8297      8305      8306      8301      8297      8305      8307
      8301      8297      8305      8308      8301      8297      8309      8310
      8301      8297      8309      8311      8301      8297      8309      8312
      8302      8301      8297      8305      8302      8301      8297      8309
      8303      8301      8297      8305      8303      8301      8297      8309
      8304      8301      8297      8305      8304      8301      8297      8309
      8305      8297      8298      8313      8305      8297      8309      8310
      8305      8297      8309      8311      8305      8297      8309      8312
      8306      8305      8297      8309      8307      8305      8297      8309
      8308      8305      8297      8309      8309      8297      8298      8313
      8313      8319      8316      8317      8313      8319      8316      8318
      8313      8319      8316      8320      8314      8313      8319      8316
      8315      8313      8319      8316      8316      8320      8321      8322
      8316      8320      8321      8323      8316      8320      8321      8324
      8317      8316      8320      8321      8318      8316      8320      8321
      8319      8316      8320      8321      8320      8321      8324      8325
      8320      8321      8324      8326      8320      8321      8324      8332
      8321      8324      8326      8327      8321      8324      8332      8333
      8321      8324      8332      8334      8321      8324      8332      8335
      8322      8321      8324      8325      8322      8321      8324      8326
      8322      8321      8324      8332      8323      8321      8324      8325
      8323      8321      8324      8326      8323      8321      8324      8332
      8324      8326      8327      8328      8324      8326      8327      8329
      8324      8332      8335      8336      8325      8324      8326      8327
      8325      8324      8332      8333      8325      8324      8332      8334
      8325      8324      8332      8335      8326      8324      8332      8333
      8326      8324      8332      8334      8326      8324      8332      8335
      8326      8327      8329      8330      8326      8327      8329      8331
      8326      8327      8329      8341      8327      8326      8324      8332
      8327      8329      8341      8342      8327      8329      8341      8343
      8327      8329      8341      8344      8328      8327      8329      8330
      8328      8327      8329      8331      8328      8327      8329      8341
      8329      8341      8344      8345      8329      8341      8344      8346
      8329      8341      8344      8347      8330      8329      8341      8342
      8330      8329      8341      8343      8330      8329      8341      8344
      8331      8329      8341      8342      8331      8329      8341      8343
      8331      8329      8341      8344      8332      8335      8336      8337
      8332      8335      8336      8338      8333      8332      8335      8336
      8334      8332      8335      8336      8335      8336      8338      8339
      8335      8336      8338      8340      8335      8336      8338      8388
      8336      8338      8388      8389      8336      8338      8388      8390
      8336      8338      8388      8391      8337      8336      8338      8339
      8337      8336      8338      8340      8337      8336      8338      8388
      8338      8388      8391      8392      8338      8388      8391      8393
      8338      8388      8391      8394      8339      8338      8388      8389
      8339      8338      8388      8390      8339      8338      8388      8391
      8340      8338      8388      8389      8340      8338      8388      8390
      8340      8338      8388      8391      8341      8344      8347      8348
      8341      8344      8347      8349      8341      8344      8347      8350
      8342      8341      8344      8345      8342      8341      8344      8346
      8342      8341      8344      8347      8343      8341      8344      8345
      8343      8341      8344      8346      8343      8341      8344      8347
      8344      8347      8350      8351      8344      8347      8350      8352
      8344      8347      8350      8353      8345      8344      8347      8348
      8345      8344      8347      8349      8345      8344      8347      8350
      8346      8344      8347      8348      8346      8344      8347      8349
      8346      8344      8347      8350      8347      8350      8353      8354
      8347      8350      8353      8355      8347      8350      8353      8356
      8348      8347      8350      8351      8348      8347      8350      8352
      8348      8347      8350      8353      8349      8347      8350      8351
      8349      8347      8350      8352      8349      8347      8350      8353
      8350      8353      8356      8357      8350      8353      8356      8358
      8350      8353      8356      8359      8351      8350      8353      8354
      8351      8350      8353      8355      8351      8350      8353      8356
      8352      8350      8353      8354      8352      8350      8353      8355
      8352      8350      8353      8356      8353      8356      8359      8360
      8353      8356      8359      8361      8354      8353      8356      8357
      8354      8353      8356      8358      8354      8353      8356      8359
      8355      8353      8356      8357      8355      8353      8356      8358
      8355      8353      8356      8359      8356      8359      8361      8362
      8356      8359      8361      8363      8357      8356      8359      8360
      8357      8356      8359      8361      8358      8356      8359      8360
      8358      8356      8359      8361      8359      8361      8363      8364
      8359      8361      8363      8365      8359      8361      8363      8366
      8360      8359      8361      8362      8360      8359      8361      8363
      8361      8363      8366      8367      8361      8363      8366      8368
      8361      8363      8366      8369      8362      8361      8363      8364
      8362      8361      8363      8365      8362      8361      8363      8366
      8363      8366      8369      8370      8363      8366      8369      8371
      8363      8366      8369      8372      8364      8363      8366      8367
      8364      8363      8366      8368      8364      8363      8366      8369
      8365      8363      8366      8367      8365      8363      8366      8368
      8365      8363      8366      8369      8366      8369      8372      8373
      8366      8369      8372      8374      8366      8369      8372      8375
      8367      8366      8369      8370      8367      8366      8369      8371
      8367      8366      8369      8372      8368      8366      8369      8370
      8368      8366      8369      8371      8368      8366      8369      8372
      8369      8372      8375      8376      8369      8372      8375      8377
      8369      8372      8375      8378      8370      8369      8372      8373
      8370      8369      8372      8374      8370      8369      8372      8375
      8371      8369      8372      8373      8371      8369      8372      8374
      8371      8369      8372      8375      8372      8375      8378      8379
      8372      8375      8378      8380      8372      8375      8378      8381
      8373      8372      8375      8376      8373      8372      8375      8377
      8373      8372      8375      8378      8374      8372      8375      8376
      8374      8372      8375      8377      8374      8372      8375      8378
      8375      8378      8381      8382      8375      8378      8381      8383
      8375      8378      8381      8384      8376      8375      8378      8379
      8376      8375      8378      8380      8376      8375      8378      8381
      8377      8375      8378      8379      8377      8375      8378      8380
      8377      8375      8378      8381      8378      8381      8384      8385
      8378      8381      8384      8386      8378      8381      8384      8387
      8379      8378      8381      8382      8379      8378      8381      8383
      8379      8378      8381      8384      8380      8378      8381      8382
      8380      8378      8381      8383      8380      8378      8381      8384
      8382      8381      8384      8385      8382      8381      8384      8386
      8382      8381      8384      8387      8383      8381      8384      8385
      8383      8381      8384      8386      8383      8381      8384      8387
      8388      8391      8394      8395      8388      8391      8394      8396
      8388      8391      8394      8397      8389      8388      8391      8392
      8389      8388      8391      8393      8389      8388      8391      8394
      8390      8388      8391      8392      8390      8388      8391      8393
      8390      8388      8391      8394      8391      8394      8397      8398
      8391      8394      8397      8399      8391      8394      8397      8400
      8392      8391      8394      8395      8392      8391      8394      8396
      8392      8391      8394      8397      8393      8391      8394      8395
      8393      8391      8394      8396      8393      8391      8394      8397
      8394      8397      8400      8401      8394      8397      8400      8402
      8394      8397      8400      8403      8395      8394      8397      8398
      8395      8394      8397      8399      8395      8394      8397      8400
      8396      8394      8397      8398      8396      8394      8397      8399
      8396      8394      8397      8400      8397      8400      8403      8404
      8397      8400      8403      8405      8397      8400      8403      8406
      8398      8397      8400      8401      8398      8397      8400      8402
      8398      8397      8400      8403      8399      8397      8400      8401
      8399      8397      8400      8402      8399      8397      8400      8403
      8400      8403      8406      8407      8400      8403      8406      8408
      8400      8403      8406      8409      8401      8400      8403      8404
      8401      8400      8403      8405      8401      8400      8403      8406
      8402      8400      8403      8404      8402      8400      8403      8405
      8402      8400      8403      8406      8403      8406      8409      8410
      8403      8406      8409      8411      8403      8406      8409      8412
      8404      8403      8406      8407      8404      8403      8406      8408
      8404      8403      8406      8409      8405      8403      8406      8407
      8405      8403      8406      8408      8405      8403      8406      8409
      8406      8409      8412      8413      8406      8409      8412      8414
      8406      8409      8412      8415      8407      8406      8409      8410
      8407      8406      8409      8411      8407      8406      8409      8412
      8408      8406      8409      8410      8408      8406      8409      8411
      8408      8406      8409      8412      8409      8412      8415      8416
      8409      8412      8415      8417      8409      8412      8415      8418
      8410      8409      8412      8413      8410      8409      8412      8414
      8410      8409      8412      8415      8411      8409      8412      8413
      8411      8409      8412      8414      8411      8409      8412      8415
      8412      8415      8418      8419      8412      8415      8418      8420
      8412      8415      8418      8421      8413      8412      8415      8416
      8413      8412      8415      8417      8413      8412      8415      8418
      8414      8412      8415      8416      8414      8412      8415      8417
      8414      8412      8415      8418      8415      8418      8421      8422
      8415      8418      8421      8423      8415      8418      8421      8424
      8416      8415      8418      8419      8416      8415      8418      8420
      8416      8415      8418      8421      8417      8415      8418      8419
      8417      8415      8418      8420      8417      8415      8418      8421
      8418      8421      8424      8425      8418      8421      8424      8426
      8418      8421      8424      8427      8419      8418      8421      8422
      8419      8418      8421      8423      8419      8418      8421      8424
      8420      8418      8421      8422      8420      8418      8421      8423
      8420      8418      8421      8424      8421      8424      8427      8428
      8421      8424      8427      8429      8421      8424      8427      8430
      8422      8421      8424      8425      8422      8421      8424      8426
      8422      8421      8424      8427      8423      8421      8424      8425
      8423      8421      8424      8426      8423      8421      8424      8427
      8425      8424      8427      8428      8425      8424      8427      8429
      8425      8424      8427      8430      8426      8424      8427      8428
      8426      8424      8427      8429      8426      8424      8427      8430
      8431      8435      8438      8439      8431      8435      8438      8440
      8431      8435      8438      8445      8432      8431      8435      8436
      8432      8431      8435      8437      8432      8431      8435      8438
      8433      8431      8435      8436      8433      8431      8435      8437
      8433      8431      8435      8438      8434      8431      8435      8436
      8434      8431      8435      8437      8434      8431      8435      8438
      8435      8438      8445      8441      8436      8435      8438      8439
      8436      8435      8438      8440      8436      8435      8438      8445
      8437      8435      8438      8439      8437      8435      8438      8440
      8437      8435      8438      8445      8438      8445      8441      8442
      8438      8445      8441      8443      8438      8445      8441      8444
      8439      8438      8445      8441      8440      8438      8445      8441
      8441      8444      8446      8447      8441      8444      8446      8448
      8441      8444      8446      8449      8442      8441      8444      8446
      8443      8441      8444      8446      8444      8446      8449      8450
      8444      8446      8449      8451      8444      8446      8449      8457
      8445      8441      8444      8446      8446      8449      8451      8452
      8446      8449      8457      8458      8446      8449      8457      8459
      8446      8449      8457      8460      8447      8446      8449      8450
      8447      8446      8449      8451      8447      8446      8449      8457
      8448      8446      8449      8450      8448      8446      8449      8451
      8448      8446      8449      8457      8449      8451      8452      8453
      8449      8451      8452      8454      8449      8457      8460      8461
      8450      8449      8451      8452      8450      8449      8457      8458
      8450      8449      8457      8459      8450      8449      8457      8460
      8451      8449      8457      8458      8451      8449      8457      8459
      8451      8449      8457      8460      8451      8452      8454      8455
      8451      8452      8454      8456      8451      8452      8454      8466
      8452      8451      8449      8457      8452      8454      8466      8467
      8452      8454      8466      8468      8452      8454      8466      8469
      8453      8452      8454      8455      8453      8452      8454      8456
      8453      8452      8454      8466      8454      8466      8469      8470
      8454      8466      8469      8471      8454      8466      8469      8472
      8455      8454      8466      8467      8455      8454      8466      8468
      8455      8454      8466      8469      8456      8454      8466      8467
      8456      8454      8466      8468      8456      8454      8466      8469
      8457      8460      8461      8462      8457      8460      8461      8463
      8458      8457      8460      8461      8459      8457      8460      8461
      8460      8461      8463      8464      8460      8461      8463      8465
      8460      8461      8463      8513      8461      8463      8513      8514
      8461      8463      8513      8515      8461      8463      8513      8516
      8462      8461      8463      8464      8462      8461      8463      8465
      8462      8461      8463      8513      8463      8513      8516      8517
      8463      8513      8516      8518      8463      8513      8516      8519
      8464      8463      8513      8514      8464      8463      8513      8515
      8464      8463      8513      8516      8465      8463      8513      8514
      8465      8463      8513      8515      8465      8463      8513      8516
      8466      8469      8472      8473      8466      8469      8472      8474
      8466      8469      8472      8475      8467      8466      8469      8470
      8467      8466      8469      8471      8467      8466      8469      8472
      8468      8466      8469      8470      8468      8466      8469      8471
      8468      8466      8469      8472      8469      8472      8475      8476
      8469      8472      8475      8477      8469      8472      8475      8478
      8470      8469      8472      8473      8470      8469      8472      8474
      8470      8469      8472      8475      8471      8469      8472      8473
      8471      8469      8472      8474      8471      8469      8472      8475
      8472      8475      8478      8479      8472      8475      8478      8480
      8472      8475      8478      8481      8473      8472      8475      8476
      8473      8472      8475      8477      8473      8472      8475      8478
      8474      8472      8475      8476      8474      8472      8475      8477
      8474      8472      8475      8478      8475      8478      8481      8482
      8475      8478      8481      8483      8475      8478      8481      8484
      8476      8475      8478      8479      8476      8475      8478      8480
      8476      8475      8478      8481      8477      8475      8478      8479
      8477      8475      8478      8480      8477      8475      8478      8481
      8478      8481      8484      8485      8478      8481      8484      8486
      8479      8478      8481      8482      8479      8478      8481      8483
      8479      8478      8481      8484      8480      8478      8481      8482
      8480      8478      8481      8483      8480      8478      8481      8484
      8481      8484      8486      8487      8481      8484      8486      8488
      8482      8481      8484      8485      8482      8481      8484      8486
      8483      8481      8484      8485      8483      8481      8484      8486
      8484      8486      8488      8489      8484      8486      8488      8490
      8484      8486      8488      8491      8485      8484      8486      8487
      8485      8484      8486      8488      8486      8488      8491      8492
      8486      8488      8491      8493      8486      8488      8491      8494
      8487      8486      8488      8489      8487      8486      8488      8490
      8487      8486      8488      8491      8488      8491      8494      8495
      8488      8491      8494      8496      8488      8491      8494      8497
      8489      8488      8491      8492      8489      8488      8491      8493
      8489      8488      8491      8494      8490      8488      8491      8492
      8490      8488      8491      8493      8490      8488      8491      8494
      8491      8494      8497      8498      8491      8494      8497      8499
      8491      8494      8497      8500      8492      8491      8494      8495
      8492      8491      8494      8496      8492      8491      8494      8497
      8493      8491      8494      8495      8493      8491      8494      8496
      8493      8491      8494      8497      8494      8497      8500      8501
      8494      8497      8500      8502      8494      8497      8500      8503
      8495      8494      8497      8498      8495      8494      8497      8499
      8495      8494      8497      8500      8496      8494      8497      8498
      8496      8494      8497      8499      8496      8494      8497      8500
      8497      8500      8503      8504      8497      8500      8503      8505
      8497      8500      8503      8506      8498      8497      8500      8501
      8498      8497      8500      8502      8498      8497      8500      8503
      8499      8497      8500      8501      8499      8497      8500      8502
      8499      8497      8500      8503      8500      8503      8506      8507
      8500      8503      8506      8508      8500      8503      8506      8509
      8501      8500      8503      8504      8501      8500      8503      8505
      8501      8500      8503      8506      8502      8500      8503      8504
      8502      8500      8503      8505      8502      8500      8503      8506
      8503      8506      8509      8510      8503      8506      8509      8511
      8503      8506      8509      8512      8504      8503      8506      8507
      8504      8503      8506      8508      8504      8503      8506      8509
      8505      8503      8506      8507      8505      8503      8506      8508
      8505      8503      8506      8509      8507      8506      8509      8510
      8507      8506      8509      8511      8507      8506      8509      8512
      8508      8506      8509      8510      8508      8506      8509      8511
      8508      8506      8509      8512      8513      8516      8519      8520
      8513      8516      8519      8521      8513      8516      8519      8522
      8514      8513      8516      8517      8514      8513      8516      8518
      8514      8513      8516      8519      8515      8513      8516      8517
      8515      8513      8516      8518      8515      8513      8516      8519
      8516      8519      8522      8523      8516      8519      8522      8524
      8516      8519      8522      8525      8517      8516      8519      8520
      8517      8516      8519      8521      8517      8516      8519      8522
      8518      8516      8519      8520      8518      8516      8519      8521
      8518      8516      8519      8522      8519      8522      8525      8526
      8519      8522      8525      8527      8519      8522      8525      8528
      8520      8519      8522      8523      8520      8519      8522      8524
      8520      8519      8522      8525      8521      8519      8522      8523
      8521      8519      8522      8524      8521      8519      8522      8525
      8522      8525      8528      8529      8522      8525      8528      8530
      8522      8525      8528      8531      8523      8522      8525      8526
      8523      8522      8525      8527      8523      8522      8525      8528
      8524      8522      8525      8526      8524      8522      8525      8527
      8524      8522      8525      8528      8525      8528      8531      8532
      8525      8528      8531      8533      8525      8528      8531      8534
      8526      8525      8528      8529      8526      8525      8528      8530
      8526      8525      8528      8531      8527      8525      8528      8529
      8527      8525      8528      8530      8527      8525      8528      8531
      8528      8531      8534      8535      8528      8531      8534      8536
      8528      8531      8534      8537      8529      8528      8531      8532
      8529      8528      8531      8533      8529      8528      8531      8534
      8530      8528      8531      8532      8530      8528      8531      8533
      8530      8528      8531      8534      8531      8534      8537      8538
      8531      8534      8537      8539      8531      8534      8537      8540
      8532      8531      8534      8535      8532      8531      8534      8536
      8532      8531      8534      8537      8533      8531      8534      8535
      8533      8531      8534      8536      8533      8531      8534      8537
      8534      8537      8540      8541      8534      8537      8540      8542
      8534      8537      8540      8543      8535      8534      8537      8538
      8535      8534      8537      8539      8535      8534      8537      8540
      8536      8534      8537      8538      8536      8534      8537      8539
      8536      8534      8537      8540      8537      8540      8543      8544
      8537      8540      8543      8545      8537      8540      8543      8546
      8538      8537      8540      8541      8538      8537      8540      8542
      8538      8537      8540      8543      8539      8537      8540      8541
      8539      8537      8540      8542      8539      8537      8540      8543
      8540      8543      8546      8547      8540      8543      8546      8548
      8540      8543      8546      8549      8541      8540      8543      8544
      8541      8540      8543      8545      8541      8540      8543      8546
      8542      8540      8543      8544      8542      8540      8543      8545
      8542      8540      8543      8546      8543      8546      8549      8550
      8543      8546      8549      8551      8543      8546      8549      8552
      8544      8543      8546      8547      8544      8543      8546      8548
      8544      8543      8546      8549      8545      8543      8546      8547
      8545      8543      8546      8548      8545      8543      8546      8549
      8546      8549      8552      8553      8546      8549      8552      8554
      8546      8549      8552      8555      8547      8546      8549      8550
      8547      8546      8549      8551      8547      8546      8549      8552
      8548      8546      8549      8550      8548      8546      8549      8551
      8548      8546      8549      8552      8550      8549      8552      8553
      8550      8549      8552      8554      8550      8549      8552      8555
      8551      8549      8552      8553      8551      8549      8552      8554
      8551      8549      8552      8555      8556      8560      8563      8564
      8556      8560      8563      8565      8556      8560      8563      8570
      8557      8556      8560      8561      8557      8556      8560      8562
      8557      8556      8560      8563      8558      8556      8560      8561
      8558      8556      8560      8562      8558      8556      8560      8563
      8559      8556      8560      8561      8559      8556      8560      8562
      8559      8556      8560      8563      8560      8563      8570      8566
      8561      8560      8563      8564      8561      8560      8563      8565
      8561      8560      8563      8570      8562      8560      8563      8564
      8562      8560      8563      8565      8562      8560      8563      8570
      8563      8570      8566      8567      8563      8570      8566      8568
      8563      8570      8566      8569      8564      8563      8570      8566
      8565      8563      8570      8566      8566      8569      8571      8572
      8566      8569      8571      8573      8566      8569      8571      8574
      8567      8566      8569      8571      8568      8566      8569      8571
      8569      8571      8574      8575      8569      8571      8574      8576
      8569      8571      8574      8582      8570      8566      8569      8571
      8571      8574      8576      8577      8571      8574      8582      8583
      8571      8574      8582      8584      8571      8574      8582      8585
      8572      8571      8574      8575      8572      8571      8574      8576
      8572      8571      8574      8582      8573      8571      8574      8575
      8573      8571      8574      8576      8573      8571      8574      8582
      8574      8576      8577      8578      8574      8576      8577      8579
      8574      8582      8585      8586      8575      8574      8576      8577
      8575      8574      8582      8583      8575      8574      8582      8584
      8575      8574      8582      8585      8576      8574      8582      8583
      8576      8574      8582      8584      8576      8574      8582      8585
      8576      8577      8579      8580      8576      8577      8579      8581
      8576      8577      8579      8591      8577      8576      8574      8582
      8577      8579      8591      8592      8577      8579      8591      8593
      8577      8579      8591      8594      8578      8577      8579      8580
      8578      8577      8579      8581      8578      8577      8579      8591
      8579      8591      8594      8595      8579      8591      8594      8596
      8579      8591      8594      8597      8580      8579      8591      8592
      8580      8579      8591      8593      8580      8579      8591      8594
      8581      8579      8591      8592      8581      8579      8591      8593
      8581      8579      8591      8594      8582      8585      8586      8587
      8582      8585      8586      8588      8583      8582      8585      8586
      8584      8582      8585      8586      8585      8586      8588      8589
      8585      8586      8588      8590      8585      8586      8588      8638
      8586      8588      8638      8639      8586      8588      8638      8640
      8586      8588      8638      8641      8587      8586      8588      8589
      8587      8586      8588      8590      8587      8586      8588      8638
      8588      8638      8641      8642      8588      8638      8641      8643
      8588      8638      8641      8644      8589      8588      8638      8639
      8589      8588      8638      8640      8589      8588      8638      8641
      8590      8588      8638      8639      8590      8588      8638      8640
      8590      8588      8638      8641      8591      8594      8597      8598
      8591      8594      8597      8599      8591      8594      8597      8600
      8592      8591      8594      8595      8592      8591      8594      8596
      8592      8591      8594      8597      8593      8591      8594      8595
      8593      8591      8594      8596      8593      8591      8594      8597
      8594      8597      8600      8601      8594      8597      8600      8602
      8594      8597      8600      8603      8595      8594      8597      8598
      8595      8594      8597      8599      8595      8594      8597      8600
      8596      8594      8597      8598      8596      8594      8597      8599
      8596      8594      8597      8600      8597      8600      8603      8604
      8597      8600      8603      8605      8597      8600      8603      8606
      8598      8597      8600      8601      8598      8597      8600      8602
      8598      8597      8600      8603      8599      8597      8600      8601
      8599      8597      8600      8602      8599      8597      8600      8603
      8600      8603      8606      8607      8600      8603      8606      8608
      8600      8603      8606      8609      8601      8600      8603      8604
      8601      8600      8603      8605      8601      8600      8603      8606
      8602      8600      8603      8604      8602      8600      8603      8605
      8602      8600      8603      8606      8603      8606      8609      8610
      8603      8606      8609      8611      8604      8603      8606      8607
      8604      8603      8606      8608      8604      8603      8606      8609
      8605      8603      8606      8607      8605      8603      8606      8608
      8605      8603      8606      8609      8606      8609      8611      8612
      8606      8609      8611      8613      8607      8606      8609      8610
      8607      8606      8609      8611      8608      8606      8609      8610
      8608      8606      8609      8611      8609      8611      8613      8614
      8609      8611      8613      8615      8609      8611      8613      8616
      8610      8609      8611      8612      8610      8609      8611      8613
      8611      8613      8616      8617      8611      8613      8616      8618
      8611      8613      8616      8619      8612      8611      8613      8614
      8612      8611      8613      8615      8612      8611      8613      8616
      8613      8616      8619      8620      8613      8616      8619      8621
      8613      8616      8619      8622      8614      8613      8616      8617
      8614      8613      8616      8618      8614      8613      8616      8619
      8615      8613      8616      8617      8615      8613      8616      8618
      8615      8613      8616      8619      8616      8619      8622      8623
      8616      8619      8622      8624      8616      8619      8622      8625
      8617      8616      8619      8620      8617      8616      8619      8621
      8617      8616      8619      8622      8618      8616      8619      8620
      8618      8616      8619      8621      8618      8616      8619      8622
      8619      8622      8625      8626      8619      8622      8625      8627
      8619      8622      8625      8628      8620      8619      8622      8623
      8620      8619      8622      8624      8620      8619      8622      8625
      8621      8619      8622      8623      8621      8619      8622      8624
      8621      8619      8622      8625      8622      8625      8628      8629
      8622      8625      8628      8630      8622      8625      8628      8631
      8623      8622      8625      8626      8623      8622      8625      8627
      8623      8622      8625      8628      8624      8622      8625      8626
      8624      8622      8625      8627      8624      8622      8625      8628
      8625      8628      8631      8632      8625      8628      8631      8633
      8625      8628      8631      8634      8626      8625      8628      8629
      8626      8625      8628      8630      8626      8625      8628      8631
      8627      8625      8628      8629      8627      8625      8628      8630
      8627      8625      8628      8631      8628      8631      8634      8635
      8628      8631      8634      8636      8628      8631      8634      8637
      8629      8628      8631      8632      8629      8628      8631      8633
      8629      8628      8631      8634      8630      8628      8631      8632
      8630      8628      8631      8633      8630      8628      8631      8634
      8632      8631      8634      8635      8632      8631      8634      8636
      8632      8631      8634      8637      8633      8631      8634      8635
      8633      8631      8634      8636      8633      8631      8634      8637
      8638      8641      8644      8645      8638      8641      8644      8646
      8638      8641      8644      8647      8639      8638      8641      8642
      8639      8638      8641      8643      8639      8638      8641      8644
      8640      8638      8641      8642      8640      8638      8641      8643
      8640      8638      8641      8644      8641      8644      8647      8648
      8641      8644      8647      8649      8641      8644      8647      8650
      8642      8641      8644      8645      8642      8641      8644      8646
      8642      8641      8644      8647      8643      8641      8644      8645
      8643      8641      8644      8646      8643      8641      8644      8647
      8644      8647      8650      8651      8644      8647      8650      8652
      8644      8647      8650      8653      8645      8644      8647      8648
      8645      8644      8647      8649      8645      8644      8647      8650
      8646      8644      8647      8648      8646      8644      8647      8649
      8646      8644      8647      8650      8647      8650      8653      8654
      8647      8650      8653      8655      8647      8650      8653      8656
      8648      8647      8650      8651      8648      8647      8650      8652
      8648      8647      8650      8653      8649      8647      8650      8651
      8649      8647      8650      8652      8649      8647      8650      8653
      8650      8653      8656      8657      8650      8653      8656      8658
      8650      8653      8656      8659      8651      8650      8653      8654
      8651      8650      8653      8655      8651      8650      8653      8656
      8652      8650      8653      8654      8652      8650      8653      8655
      8652      8650      8653      8656      8653      8656      8659      8660
      8653      8656      8659      8661      8653      8656      8659      8662
      8654      8653      8656      8657      8654      8653      8656      8658
      8654      8653      8656      8659      8655      8653      8656      8657
      8655      8653      8656      8658      8655      8653      8656      8659
      8656      8659      8662      8663      8656      8659      8662      8664
      8656      8659      8662      8665      8657      8656      8659      8660
      8657      8656      8659      8661      8657      8656      8659      8662
      8658      8656      8659      8660      8658      8656      8659      8661
      8658      8656      8659      8662      8659      8662      8665      8666
      8659      8662      8665      8667      8659      8662      8665      8668
      8660      8659      8662      8663      8660      8659      8662      8664
      8660      8659      8662      8665      8661      8659      8662      8663
      8661      8659      8662      8664      8661      8659      8662      8665
      8662      8665      8668      8669      8662      8665      8668      8670
      8662      8665      8668      8671      8663      8662      8665      8666
      8663      8662      8665      8667      8663      8662      8665      8668
      8664      8662      8665      8666      8664      8662      8665      8667
      8664      8662      8665      8668      8665      8668      8671      8672
      8665      8668      8671      8673      8665      8668      8671      8674
      8666      8665      8668      8669      8666      8665      8668      8670
      8666      8665      8668      8671      8667      8665      8668      8669
      8667      8665      8668      8670      8667      8665      8668      8671
      8668      8671      8674      8675      8668      8671      8674      8676
      8668      8671      8674      8677      8669      8668      8671      8672
      8669      8668      8671      8673      8669      8668      8671      8674
      8670      8668      8671      8672      8670      8668      8671      8673
      8670      8668      8671      8674      8671      8674      8677      8678
      8671      8674      8677      8679      8671      8674      8677      8680
      8672      8671      8674      8675      8672      8671      8674      8676
      8672      8671      8674      8677      8673      8671      8674      8675
      8673      8671      8674      8676      8673      8671      8674      8677
      8675      8674      8677      8678      8675      8674      8677      8679
      8675      8674      8677      8680      8676      8674      8677      8678
      8676      8674      8677      8679      8676      8674      8677      8680
      8681      8685      8688      8689      8681      8685      8688      8690
      8681      8685      8688      8695      8682      8681      8685      8686
      8682      8681      8685      8687      8682      8681      8685      8688
      8683      8681      8685      8686      8683      8681      8685      8687
      8683      8681      8685      8688      8684      8681      8685      8686
      8684      8681      8685      8687      8684      8681      8685      8688
      8685      8688      8695      8691      8686      8685      8688      8689
      8686      8685      8688      8690      8686      8685      8688      8695
      8687      8685      8688      8689      8687      8685      8688      8690
      8687      8685      8688      8695      8688      8695      8691      8692
      8688      8695      8691      8693      8688      8695      8691      8694
      8689      8688      8695      8691      8690      8688      8695      8691
      8691      8694      8696      8697      8691      8694      8696      8698
      8691      8694      8696      8699      8692      8691      8694      8696
      8693      8691      8694      8696      8694      8696      8699      8700
      8694      8696      8699      8701      8694      8696      8699      8707
      8695      8691      8694      8696      8696      8699      8701      8702
      8696      8699      8707      8708      8696      8699      8707      8709
      8696      8699      8707      8710      8697      8696      8699      8700
      8697      8696      8699      8701      8697      8696      8699      8707
      8698      8696      8699      8700      8698      8696      8699      8701
      8698      8696      8699      8707      8699      8701      8702      8703
      8699      8701      8702      8704      8699      8707      8710      8711
      8700      8699      8701      8702      8700      8699      8707      8708
      8700      8699      8707      8709      8700      8699      8707      8710
      8701      8699      8707      8708      8701      8699      8707      8709
      8701      8699      8707      8710      8701      8702      8704      8705
      8701      8702      8704      8706      8701      8702      8704      8716
      8702      8701      8699      8707      8702      8704      8716      8717
      8702      8704      8716      8718      8702      8704      8716      8719
      8703      8702      8704      8705      8703      8702      8704      8706
      8703      8702      8704      8716      8704      8716      8719      8720
      8704      8716      8719      8721      8704      8716      8719      8722
      8705      8704      8716      8717      8705      8704      8716      8718
      8705      8704      8716      8719      8706      8704      8716      8717
      8706      8704      8716      8718      8706      8704      8716      8719
      8707      8710      8711      8712      8707      8710      8711      8713
      8708      8707      8710      8711      8709      8707      8710      8711
      8710      8711      8713      8714      8710      8711      8713      8715
      8710      8711      8713      8763      8711      8713      8763      8764
      8711      8713      8763      8765      8711      8713      8763      8766
      8712      8711      8713      8714      8712      8711      8713      8715
      8712      8711      8713      8763      8713      8763      8766      8767
      8713      8763      8766      8768      8713      8763      8766      8769
      8714      8713      8763      8764      8714      8713      8763      8765
      8714      8713      8763      8766      8715      8713      8763      8764
      8715      8713      8763      8765      8715      8713      8763      8766
      8716      8719      8722      8723      8716      8719      8722      8724
      8716      8719      8722      8725      8717      8716      8719      8720
      8717      8716      8719      8721      8717      8716      8719      8722
      8718      8716      8719      8720      8718      8716      8719      8721
      8718      8716      8719      8722      8719      8722      8725      8726
      8719      8722      8725      8727      8719      8722      8725      8728
      8720      8719      8722      8723      8720      8719      8722      8724
      8720      8719      8722      8725      8721      8719      8722      8723
      8721      8719      8722      8724      8721      8719      8722      8725
      8722      8725      8728      8729      8722      8725      8728      8730
      8722      8725      8728      8731      8723      8722      8725      8726
      8723      8722      8725      8727      8723      8722      8725      8728
      8724      8722      8725      8726      8724      8722      8725      8727
      8724      8722      8725      8728      8725      8728      8731      8732
      8725      8728      8731      8733      8725      8728      8731      8734
      8726      8725      8728      8729      8726      8725      8728      8730
      8726      8725      8728      8731      8727      8725      8728      8729
      8727      8725      8728      8730      8727      8725      8728      8731
      8728      8731      8734      8735      8728      8731      8734      8736
      8729      8728      8731      8732      8729      8728      8731      8733
      8729      8728      8731      8734      8730      8728      8731      8732
      8730      8728      8731      8733      8730      8728      8731      8734
      8731      8734      8736      8737      8731      8734      8736      8738
      8732      8731      8734      8735      8732      8731      8734      8736
      8733      8731      8734      8735      8733      8731      8734      8736
      8734      8736      8738      8739      8734      8736      8738      8740
      8734      8736      8738      8741      8735      8734      8736      8737
      8735      8734      8736      8738      8736      8738      8741      8742
      8736      8738      8741      8743      8736      8738      8741      8744
      8737      8736      8738      8739      8737      8736      8738      8740
      8737      8736      8738      8741      8738      8741      8744      8745
      8738      8741      8744      8746      8738      8741      8744      8747
      8739      8738      8741      8742      8739      8738      8741      8743
      8739      8738      8741      8744      8740      8738      8741      8742
      8740      8738      8741      8743      8740      8738      8741      8744
      8741      8744      8747      8748      8741      8744      8747      8749
      8741      8744      8747      8750      8742      8741      8744      8745
      8742      8741      8744      8746      8742      8741      8744      8747
      8743      8741      8744      8745      8743      8741      8744      8746
      8743      8741      8744      8747      8744      8747      8750      8751
      8744      8747      8750      8752      8744      8747      8750      8753
      8745      8744      8747      8748      8745      8744      8747      8749
      8745      8744      8747      8750      8746      8744      8747      8748
      8746      8744      8747      8749      8746      8744      8747      8750
      8747      8750      8753      8754      8747      8750      8753      8755
      8747      8750      8753      8756      8748      8747      8750      8751
      8748      8747      8750      8752      8748      8747      8750      8753
      8749      8747      8750      8751      8749      8747      8750      8752
      8749      8747      8750      8753      8750      8753      8756      8757
      8750      8753      8756      8758      8750      8753      8756      8759
      8751      8750      8753      8754      8751      8750      8753      8755
      8751      8750      8753      8756      8752      8750      8753      8754
      8752      8750      8753      8755      8752      8750      8753      8756
      8753      8756      8759      8760      8753      8756      8759      8761
      8753      8756      8759      8762      8754      8753      8756      8757
      8754      8753      8756      8758      8754      8753      8756      8759
      8755      8753      8756      8757      8755      8753      8756      8758
      8755      8753      8756      8759      8757      8756      8759      8760
      8757      8756      8759      8761      8757      8756      8759      8762
      8758      8756      8759      8760      8758      8756      8759      8761
      8758      8756      8759      8762      8763      8766      8769      8770
      8763      8766      8769      8771      8763      8766      8769      8772
      8764      8763      8766      8767      8764      8763      8766      8768
      8764      8763      8766      8769      8765      8763      8766      8767
      8765      8763      8766      8768      8765      8763      8766      8769
      8766      8769      8772      8773      8766      8769      8772      8774
      8766      8769      8772      8775      8767      8766      8769      8770
      8767      8766      8769      8771      8767      8766      8769      8772
      8768      8766      8769      8770      8768      8766      8769      8771
      8768      8766      8769      8772      8769      8772      8775      8776
      8769      8772      8775      8777      8769      8772      8775      8778
      8770      8769      8772      8773      8770      8769      8772      8774
      8770      8769      8772      8775      8771      8769      8772      8773
      8771      8769      8772      8774      8771      8769      8772      8775
      8772      8775      8778      8779      8772      8775      8778      8780
      8772      8775      8778      8781      8773      8772      8775      8776
      8773      8772      8775      8777      8773      8772      8775      8778
      8774      8772      8775      8776      8774      8772      8775      8777
      8774      8772      8775      8778      8775      8778      8781      8782
      8775      8778      8781      8783      8775      8778      8781      8784
      8776      8775      8778      8779      8776      8775      8778      8780
      8776      8775      8778      8781      8777      8775      8778      8779
      8777      8775      8778      8780      8777      8775      8778      8781
      8778      8781      8784      8785      8778      8781      8784      8786
      8778      8781      8784      8787      8779      8778      8781      8782
      8779      8778      8781      8783      8779      8778      8781      8784
      8780      8778      8781      8782      8780      8778      8781      8783
      8780      8778      8781      8784      8781      8784      8787      8788
      8781      8784      8787      8789      8781      8784      8787      8790
      8782      8781      8784      8785      8782      8781      8784      8786
      8782      8781      8784      8787      8783      8781      8784      8785
      8783      8781      8784      8786      8783      8781      8784      8787
      8784      8787      8790      8791      8784      8787      8790      8792
      8784      8787      8790      8793      8785      8784      8787      8788
      8785      8784      8787      8789      8785      8784      8787      8790
      8786      8784      8787      8788      8786      8784      8787      8789
      8786      8784      8787      8790      8787      8790      8793      8794
      8787      8790      8793      8795      8787      8790      8793      8796
      8788      8787      8790      8791      8788      8787      8790      8792
      8788      8787      8790      8793      8789      8787      8790      8791
      8789      8787      8790      8792      8789      8787      8790      8793
      8790      8793      8796      8797      8790      8793      8796      8798
      8790      8793      8796      8799      8791      8790      8793      8794
      8791      8790      8793      8795      8791      8790      8793      8796
      8792      8790      8793      8794      8792      8790      8793      8795
      8792      8790      8793      8796      8793      8796      8799      8800
      8793      8796      8799      8801      8793      8796      8799      8802
      8794      8793      8796      8797      8794      8793      8796      8798
      8794      8793      8796      8799      8795      8793      8796      8797
      8795      8793      8796      8798      8795      8793      8796      8799
      8796      8799      8802      8803      8796      8799      8802      8804
      8796      8799      8802      8805      8797      8796      8799      8800
      8797      8796      8799      8801      8797      8796      8799      8802
      8798      8796      8799      8800      8798      8796      8799      8801
      8798      8796      8799      8802      8800      8799      8802      8803
      8800      8799      8802      8804      8800      8799      8802      8805
      8801      8799      8802      8803      8801      8799      8802      8804
      8801      8799      8802      8805      8806      8807      8822      8823
      8806      8807      8822      8824      8806      8807      8822      8828
      8807      8806      8810      8811      8807      8806      8810      8812
      8807      8806      8810      8813      8807      8806      8814      8815
      8807      8806      8814      8816      8807      8806      8814      8817
      8807      8806      8818      8819      8807      8806      8818      8820
      8807      8806      8818      8821      8807      8822      8828      8825
      8808      8807      8806      8810      8808      8807      8806      8814
      8808      8807      8806      8818      8808      8807      8822      8823
      8808      8807      8822      8824      8808      8807      8822      8828
      8809      8807      8806      8810      8809      8807      8806      8814
      8809      8807      8806      8818      8809      8807      8822      8823
      8809      8807      8822      8824      8809      8807      8822      8828
      8810      8806      8807      8822      8810      8806      8814      8815
      8810      8806      8814      8816      8810      8806      8814      8817
      8810      8806      8818      8819      8810      8806      8818      8820
      8810      8806      8818      8821      8811      8810      8806      8814
      8811      8810      8806      8818      8812      8810      8806      8814
      8812      8810      8806      8818      8813      8810      8806      8814
      8813      8810      8806      8818      8814      8806      8807      8822
      8814      8806      8818      8819      8814      8806      8818      8820
      8814      8806      8818      8821      8815      8814      8806      8818
      8816      8814      8806      8818      8817      8814      8806      8818
      8818      8806      8807      8822      8822      8828      8825      8826
      8822      8828      8825      8827      8822      8828      8825      8829
      8823      8822      8828      8825      8824      8822      8828      8825
      8825      8829      8830      8831      8825      8829      8830      8832
      8825      8829      8830      8833      8826      8825      8829      8830
      8827      8825      8829      8830      8828      8825      8829      8830
      8829      8830      8833      8834      8829      8830      8833      8835
      8829      8830      8833      8841      8830      8833      8835      8836
      8830      8833      8841      8842      8830      8833      8841      8843
      8830      8833      8841      8844      8831      8830      8833      8834
      8831      8830      8833      8835      8831      8830      8833      8841
      8832      8830      8833      8834      8832      8830      8833      8835
      8832      8830      8833      8841      8833      8835      8836      8837
      8833      8835      8836      8838      8833      8841      8844      8845
      8834      8833      8835      8836      8834      8833      8841      8842
      8834      8833      8841      8843      8834      8833      8841      8844
      8835      8833      8841      8842      8835      8833      8841      8843
      8835      8833      8841      8844      8835      8836      8838      8839
      8835      8836      8838      8840      8835      8836      8838      8850
      8836      8835      8833      8841      8836      8838      8850      8851
      8836      8838      8850      8852      8836      8838      8850      8853
      8837      8836      8838      8839      8837      8836      8838      8840
      8837      8836      8838      8850      8838      8850      8853      8854
      8838      8850      8853      8855      8838      8850      8853      8856
      8839      8838      8850      8851      8839      8838      8850      8852
      8839      8838      8850      8853      8840      8838      8850      8851
      8840      8838      8850      8852      8840      8838      8850      8853
      8841      8844      8845      8846      8841      8844      8845      8847
      8842      8841      8844      8845      8843      8841      8844      8845
      8844      8845      8847      8848      8844      8845      8847      8849
      8844      8845      8847      8897      8845      8847      8897      8898
      8845      8847      8897      8899      8845      8847      8897      8900
      8846      8845      8847      8848      8846      8845      8847      8849
      8846      8845      8847      8897      8847      8897      8900      8901
      8847      8897      8900      8902      8847      8897      8900      8903
      8848      8847      8897      8898      8848      8847      8897      8899
      8848      8847      8897      8900      8849      8847      8897      8898
      8849      8847      8897      8899      8849      8847      8897      8900
      8850      8853      8856      8857      8850      8853      8856      8858
      8850      8853      8856      8859      8851      8850      8853      8854
      8851      8850      8853      8855      8851      8850      8853      8856
      8852      8850      8853      8854      8852      8850      8853      8855
      8852      8850      8853      8856      8853      8856      8859      8860
      8853      8856      8859      8861      8853      8856      8859      8862
      8854      8853      8856      8857      8854      8853      8856      8858
      8854      8853      8856      8859      8855      8853      8856      8857
      8855      8853      8856      8858      8855      8853      8856      8859
      8856      8859      8862      8863      8856      8859      8862      8864
      8856      8859      8862      8865      8857      8856      8859      8860
      8857      8856      8859      8861      8857      8856      8859      8862
      8858      8856      8859      8860      8858      8856      8859      8861
      8858      8856      8859      8862      8859      8862      8865      8866
      8859      8862      8865      8867      8859      8862      8865      8868
      8860      8859      8862      8863      8860      8859      8862      8864
      8860      8859      8862      8865      8861      8859      8862      8863
      8861      8859      8862      8864      8861      8859      8862      8865
      8862      8865      8868      8869      8862      8865      8868      8870
      8863      8862      8865      8866      8863      8862      8865      8867
      8863      8862      8865      8868      8864      8862      8865      8866
      8864      8862      8865      8867      8864      8862      8865      8868
      8865      8868      8870      8871      8865      8868      8870      8872
      8866      8865      8868      8869      8866      8865      8868      8870
      8867      8865      8868      8869      8867      8865      8868      8870
      8868      8870      8872      8873      8868      8870      8872      8874
      8868      8870      8872      8875      8869      8868      8870      8871
      8869      8868      8870      8872      8870      8872      8875      8876
      8870      8872      8875      8877      8870      8872      8875      8878
      8871      8870      8872      8873      8871      8870      8872      8874
      8871      8870      8872      8875      8872      8875      8878      8879
      8872      8875      8878      8880      8872      8875      8878      8881
      8873      8872      8875      8876      8873      8872      8875      8877
      8873      8872      8875      8878      8874      8872      8875      8876
      8874      8872      8875      8877      8874      8872      8875      8878
      8875      8878      8881      8882      8875      8878      8881      8883
      8875      8878      8881      8884      8876      8875      8878      8879
      8876      8875      8878      8880      8876      8875      8878      8881
      8877      8875      8878      8879      8877      8875      8878      8880
      8877      8875      8878      8881      8878      8881      8884      8885
      8878      8881      8884      8886      8878      8881      8884      8887
      8879      8878      8881      8882      8879      8878      8881      8883
      8879      8878      8881      8884      8880      8878      8881      8882
      8880      8878      8881      8883      8880      8878      8881      8884
      8881      8884      8887      8888      8881      8884      8887      8889
      8881      8884      8887      8890      8882      8881      8884      8885
      8882      8881      8884      8886      8882      8881      8884      8887
      8883      8881      8884      8885      8883      8881      8884      8886
      8883      8881      8884      8887      8884      8887      8890      8891
      8884      8887      8890      8892      8884      8887      8890      8893
      8885      8884      8887      8888      8885      8884      8887      8889
      8885      8884      8887      8890      8886      8884      8887      8888
      8886      8884      8887      8889      8886      8884      8887      8890
      8887      8890      8893      8894      8887      8890      8893      8895
      8887      8890      8893      8896      8888      8887      8890      8891
      8888      8887      8890      8892      8888      8887      8890      8893
      8889      8887      8890      8891      8889      8887      8890      8892
      8889      8887      8890      8893      8891      8890      8893      8894
      8891      8890      8893      8895      8891      8890      8893      8896
      8892      8890      8893      8894      8892      8890      8893      8895
      8892      8890      8893      8896      8897      8900      8903      8904
      8897      8900      8903      8905      8897      8900      8903      8906
      8898      8897      8900      8901      8898      8897      8900      8902
      8898      8897      8900      8903      8899      8897      8900      8901
      8899      8897      8900      8902      8899      8897      8900      8903
      8900      8903      8906      8907      8900      8903      8906      8908
      8900      8903      8906      8909      8901      8900      8903      8904
      8901      8900      8903      8905      8901      8900      8903      8906
      8902      8900      8903      8904      8902      8900      8903      8905
      8902      8900      8903      8906      8903      8906      8909      8910
      8903      8906      8909      8911      8903      8906      8909      8912
      8904      8903      8906      8907      8904      8903      8906      8908
      8904      8903      8906      8909      8905      8903      8906      8907
      8905      8903      8906      8908      8905      8903      8906      8909
      8906      8909      8912      8913      8906      8909      8912      8914
      8906      8909      8912      8915      8907      8906      8909      8910
      8907      8906      8909      8911      8907      8906      8909      8912
      8908      8906      8909      8910      8908      8906      8909      8911
      8908      8906      8909      8912      8909      8912      8915      8916
      8909      8912      8915      8917      8909      8912      8915      8918
      8910      8909      8912      8913      8910      8909      8912      8914
      8910      8909      8912      8915      8911      8909      8912      8913
      8911      8909      8912      8914      8911      8909      8912      8915
      8912      8915      8918      8919      8912      8915      8918      8920
      8912      8915      8918      8921      8913      8912      8915      8916
      8913      8912      8915      8917      8913      8912      8915      8918
      8914      8912      8915      8916      8914      8912      8915      8917
      8914      8912      8915      8918      8915      8918      8921      8922
      8915      8918      8921      8923      8915      8918      8921      8924
      8916      8915      8918      8919      8916      8915      8918      8920
      8916      8915      8918      8921      8917      8915      8918      8919
      8917      8915      8918      8920      8917      8915      8918      8921
      8918      8921      8924      8925      8918      8921      8924      8926
      8918      8921      8924      8927      8919      8918      8921      8922
      8919      8918      8921      8923      8919      8918      8921      8924
      8920      8918      8921      8922      8920      8918      8921      8923
      8920      8918      8921      8924      8921      8924      8927      8928
      8921      8924      8927      8929      8921      8924      8927      8930
      8922      8921      8924      8925      8922      8921      8924      8926
      8922      8921      8924      8927      8923      8921      8924      8925
      8923      8921      8924      8926      8923      8921      8924      8927
      8924      8927      8930      8931      8924      8927      8930      8932
      8924      8927      8930      8933      8925      8924      8927      8928
      8925      8924      8927      8929      8925      8924      8927      8930
      8926      8924      8927      8928      8926      8924      8927      8929
      8926      8924      8927      8930      8927      8930      8933      8934
      8927      8930      8933      8935      8927      8930      8933      8936
      8928      8927      8930      8931      8928      8927      8930      8932
      8928      8927      8930      8933      8929      8927      8930      8931
      8929      8927      8930      8932      8929      8927      8930      8933
      8930      8933      8936      8937      8930      8933      8936      8938
      8930      8933      8936      8939      8931      8930      8933      8934
      8931      8930      8933      8935      8931      8930      8933      8936
      8932      8930      8933      8934      8932      8930      8933      8935
      8932      8930      8933      8936      8934      8933      8936      8937
      8934      8933      8936      8938      8934      8933      8936      8939
      8935      8933      8936      8937      8935      8933      8936      8938
      8935      8933      8936      8939      8940      8944      8947      8948
      8940      8944      8947      8949      8940      8944      8947      8954
      8941      8940      8944      8945      8941      8940      8944      8946
      8941      8940      8944      8947      8942      8940      8944      8945
      8942      8940      8944      8946      8942      8940      8944      8947
      8943      8940      8944      8945      8943      8940      8944      8946
      8943      8940      8944      8947      8944      8947      8954      8950
      8945      8944      8947      8948      8945      8944      8947      8949
      8945      8944      8947      8954      8946      8944      8947      8948
      8946      8944      8947      8949      8946      8944      8947      8954
      8947      8954      8950      8951      8947      8954      8950      8952
      8947      8954      8950      8953      8948      8947      8954      8950
      8949      8947      8954      8950      8950      8953      8955      8956
      8950      8953      8955      8957      8950      8953      8955      8958
      8951      8950      8953      8955      8952      8950      8953      8955
      8953      8955      8958      8959      8953      8955      8958      8960
      8953      8955      8958      8966      8954      8950      8953      8955
      8955      8958      8960      8961      8955      8958      8966      8967
      8955      8958      8966      8968      8955      8958      8966      8969
      8956      8955      8958      8959      8956      8955      8958      8960
      8956      8955      8958      8966      8957      8955      8958      8959
      8957      8955      8958      8960      8957      8955      8958      8966
      8958      8960      8961      8962      8958      8960      8961      8963
      8958      8966      8969      8970      8959      8958      8960      8961
      8959      8958      8966      8967      8959      8958      8966      8968
      8959      8958      8966      8969      8960      8958      8966      8967
      8960      8958      8966      8968      8960      8958      8966      8969
      8960      8961      8963      8964      8960      8961      8963      8965
      8960      8961      8963      8975      8961      8960      8958      8966
      8961      8963      8975      8976      8961      8963      8975      8977
      8961      8963      8975      8978      8962      8961      8963      8964
      8962      8961      8963      8965      8962      8961      8963      8975
      8963      8975      8978      8979      8963      8975      8978      8980
      8963      8975      8978      8981      8964      8963      8975      8976
      8964      8963      8975      8977      8964      8963      8975      8978
      8965      8963      8975      8976      8965      8963      8975      8977
      8965      8963      8975      8978      8966      8969      8970      8971
      8966      8969      8970      8972      8967      8966      8969      8970
      8968      8966      8969      8970      8969      8970      8972      8973
      8969      8970      8972      8974      8969      8970      8972      9022
      8970      8972      9022      9023      8970      8972      9022      9024
      8970      8972      9022      9025      8971      8970      8972      8973
      8971      8970      8972      8974      8971      8970      8972      9022
      8972      9022      9025      9026      8972      9022      9025      9027
      8972      9022      9025      9028      8973      8972      9022      9023
      8973      8972      9022      9024      8973      8972      9022      9025
      8974      8972      9022      9023      8974      8972      9022      9024
      8974      8972      9022      9025      8975      8978      8981      8982
      8975      8978      8981      8983      8975      8978      8981      8984
      8976      8975      8978      8979      8976      8975      8978      8980
      8976      8975      8978      8981      8977      8975      8978      8979
      8977      8975      8978      8980      8977      8975      8978      8981
      8978      8981      8984      8985      8978      8981      8984      8986
      8978      8981      8984      8987      8979      8978      8981      8982
      8979      8978      8981      8983      8979      8978      8981      8984
      8980      8978      8981      8982      8980      8978      8981      8983
      8980      8978      8981      8984      8981      8984      8987      8988
      8981      8984      8987      8989      8981      8984      8987      8990
      8982      8981      8984      8985      8982      8981      8984      8986
      8982      8981      8984      8987      8983      8981      8984      8985
      8983      8981      8984      8986      8983      8981      8984      8987
      8984      8987      8990      8991      8984      8987      8990      8992
      8984      8987      8990      8993      8985      8984      8987      8988
      8985      8984      8987      8989      8985      8984      8987      8990
      8986      8984      8987      8988      8986      8984      8987      8989
      8986      8984      8987      8990      8987      8990      8993      8994
      8987      8990      8993      8995      8988      8987      8990      8991
      8988      8987      8990      8992      8988      8987      8990      8993
      8989      8987      8990      8991      8989      8987      8990      8992
      8989      8987      8990      8993      8990      8993      8995      8996
      8990      8993      8995      8997      8991      8990      8993      8994
      8991      8990      8993      8995      8992      8990      8993      8994
      8992      8990      8993      8995      8993      8995      8997      8998
      8993      8995      8997      8999      8993      8995      8997      9000
      8994      8993      8995      8996      8994      8993      8995      8997
      8995      8997      9000      9001      8995      8997      9000      9002
      8995      8997      9000      9003      8996      8995      8997      8998
      8996      8995      8997      8999      8996      8995      8997      9000
      8997      9000      9003      9004      8997      9000      9003      9005
      8997      9000      9003      9006      8998      8997      9000      9001
      8998      8997      9000      9002      8998      8997      9000      9003
      8999      8997      9000      9001      8999      8997      9000      9002
      8999      8997      9000      9003      9000      9003      9006      9007
      9000      9003      9006      9008      9000      9003      9006      9009
      9001      9000      9003      9004      9001      9000      9003      9005
      9001      9000      9003      9006      9002      9000      9003      9004
      9002      9000      9003      9005      9002      9000      9003      9006
      9003      9006      9009      9010      9003      9006      9009      9011
      9003      9006      9009      9012      9004      9003      9006      9007
      9004      9003      9006      9008      9004      9003      9006      9009
      9005      9003      9006      9007      9005      9003      9006      9008
      9005      9003      9006      9009      9006      9009      9012      9013
      9006      9009      9012      9014      9006      9009      9012      9015
      9007      9006      9009      9010      9007      9006      9009      9011
      9007      9006      9009      9012      9008      9006      9009      9010
      9008      9006      9009      9011      9008      9006      9009      9012
      9009      9012      9015      9016      9009      9012      9015      9017
      9009      9012      9015      9018      9010      9009      9012      9013
      9010      9009      9012      9014      9010      9009      9012      9015
      9011      9009      9012      9013      9011      9009      9012      9014
      9011      9009      9012      9015      9012      9015      9018      9019
      9012      9015      9018      9020      9012      9015      9018      9021
      9013      9012      9015      9016      9013      9012      9015      9017
      9013      9012      9015      9018      9014      9012      9015      9016
      9014      9012      9015      9017      9014      9012      9015      9018
      9016      9015      9018      9019      9016      9015      9018      9020
      9016      9015      9018      9021      9017      9015      9018      9019
      9017      9015      9018      9020      9017      9015      9018      9021
      9022      9025      9028      9029      9022      9025      9028      9030
      9022      9025      9028      9031      9023      9022      9025      9026
      9023      9022      9025      9027      9023      9022      9025      9028
      9024      9022      9025      9026      9024      9022      9025      9027
      9024      9022      9025      9028      9025      9028      9031      9032
      9025      9028      9031      9033      9025      9028      9031      9034
      9026      9025      9028      9029      9026      9025      9028      9030
      9026      9025      9028      9031      9027      9025      9028      9029
      9027      9025      9028      9030      9027      9025      9028      9031
      9028      9031      9034      9035      9028      9031      9034      9036
      9028      9031      9034      9037      9029      9028      9031      9032
      9029      9028      9031      9033      9029      9028      9031      9034
      9030      9028      9031      9032      9030      9028      9031      9033
      9030      9028      9031      9034      9031      9034      9037      9038
      9031      9034      9037      9039      9031      9034      9037      9040
      9032      9031      9034      9035      9032      9031      9034      9036
      9032      9031      9034      9037      9033      9031      9034      9035
      9033      9031      9034      9036      9033      9031      9034      9037
      9034      9037      9040      9041      9034      9037      9040      9042
      9034      9037      9040      9043      9035      9034      9037      9038
      9035      9034      9037      9039      9035      9034      9037      9040
      9036      9034      9037      9038      9036      9034      9037      9039
      9036      9034      9037      9040      9037      9040      9043      9044
      9037      9040      9043      9045      9037      9040      9043      9046
      9038      9037      9040      9041      9038      9037      9040      9042
      9038      9037      9040      9043      9039      9037      9040      9041
      9039      9037      9040      9042      9039      9037      9040      9043
      9040      9043      9046      9047      9040      9043      9046      9048
      9040      9043      9046      9049      9041      9040      9043      9044
      9041      9040      9043      9045      9041      9040      9043      9046
      9042      9040      9043      9044      9042      9040      9043      9045
      9042      9040      9043      9046      9043      9046      9049      9050
      9043      9046      9049      9051      9043      9046      9049      9052
      9044      9043      9046      9047      9044      9043      9046      9048
      9044      9043      9046      9049      9045      9043      9046      9047
      9045      9043      9046      9048      9045      9043      9046      9049
      9046      9049      9052      9053      9046      9049      9052      9054
      9046      9049      9052      9055      9047      9046      9049      9050
      9047      9046      9049      9051      9047      9046      9049      9052
      9048      9046      9049      9050      9048      9046      9049      9051
      9048      9046      9049      9052      9049      9052      9055      9056
      9049      9052      9055      9057      9049      9052      9055      9058
      9050      9049      9052      9053      9050      9049      9052      9054
      9050      9049      9052      9055      9051      9049      9052      9053
      9051      9049      9052      9054      9051      9049      9052      9055
      9052      9055      9058      9059      9052      9055      9058      9060
      9052      9055      9058      9061      9053      9052      9055      9056
      9053      9052      9055      9057      9053      9052      9055      9058
      9054      9052      9055      9056      9054      9052      9055      9057
      9054      9052      9055      9058      9055      9058      9061      9062
      9055      9058      9061      9063      9055      9058      9061      9064
      9056      9055      9058      9059      9056      9055      9058      9060
      9056      9055      9058      9061      9057      9055      9058      9059
      9057      9055      9058      9060      9057      9055      9058      9061
      9059      9058      9061      9062      9059      9058      9061      9063
      9059      9058      9061      9064      9060      9058      9061      9062
      9060      9058      9061      9063      9060      9058      9061      9064
      9065      9066      9081      9082      9065      9066      9081      9083
      9065      9066      9081      9087      9066      9065      9069      9070
      9066      9065      9069      9071      9066      9065      9069      9072
      9066      9065      9073      9074      9066      9065      9073      9075
      9066      9065      9073      9076      9066      9065      9077      9078
      9066      9065      9077      9079      9066      9065      9077      9080
      9066      9081      9087      9084      9067      9066      9065      9069
      9067      9066      9065      9073      9067      9066      9065      9077
      9067      9066      9081      9082      9067      9066      9081      9083
      9067      9066      9081      9087      9068      9066      9065      9069
      9068      9066      9065      9073      9068      9066      9065      9077
      9068      9066      9081      9082      9068      9066      9081      9083
      9068      9066      9081      9087      9069      9065      9066      9081
      9069      9065      9073      9074      9069      9065      9073      9075
      9069      9065      9073      9076      9069      9065      9077      9078
      9069      9065      9077      9079      9069      9065      9077      9080
      9070      9069      9065      9073      9070      9069      9065      9077
      9071      9069      9065      9073      9071      9069      9065      9077
      9072      9069      9065      9073      9072      9069      9065      9077
      9073      9065      9066      9081      9073      9065      9077      9078
      9073      9065      9077      9079      9073      9065      9077      9080
      9074      9073      9065      9077      9075      9073      9065      9077
      9076      9073      9065      9077      9077      9065      9066      9081
      9081      9087      9084      9085      9081      9087      9084      9086
      9081      9087      9084      9088      9082      9081      9087      9084
      9083      9081      9087      9084      9084      9088      9089      9090
      9084      9088      9089      9091      9084      9088      9089      9092
      9085      9084      9088      9089      9086      9084      9088      9089
      9087      9084      9088      9089      9088      9089      9092      9093
      9088      9089      9092      9094      9088      9089      9092      9100
      9089      9092      9094      9095      9089      9092      9100      9101
      9089      9092      9100      9102      9089      9092      9100      9103
      9090      9089      9092      9093      9090      9089      9092      9094
      9090      9089      9092      9100      9091      9089      9092      9093
      9091      9089      9092      9094      9091      9089      9092      9100
      9092      9094      9095      9096      9092      9094      9095      9097
      9092      9100      9103      9104      9093      9092      9094      9095
      9093      9092      9100      9101      9093      9092      9100      9102
      9093      9092      9100      9103      9094      9092      9100      9101
      9094      9092      9100      9102      9094      9092      9100      9103
      9094      9095      9097      9098      9094      9095      9097      9099
      9094      9095      9097      9109      9095      9094      9092      9100
      9095      9097      9109      9110      9095      9097      9109      9111
      9095      9097      9109      9112      9096      9095      9097      9098
      9096      9095      9097      9099      9096      9095      9097      9109
      9097      9109      9112      9113      9097      9109      9112      9114
      9097      9109      9112      9115      9098      9097      9109      9110
      9098      9097      9109      9111      9098      9097      9109      9112
      9099      9097      9109      9110      9099      9097      9109      9111
      9099      9097      9109      9112      9100      9103      9104      9105
      9100      9103      9104      9106      9101      9100      9103      9104
      9102      9100      9103      9104      9103      9104      9106      9107
      9103      9104      9106      9108      9103      9104      9106      9156
      9104      9106      9156      9157      9104      9106      9156      9158
      9104      9106      9156      9159      9105      9104      9106      9107
      9105      9104      9106      9108      9105      9104      9106      9156
      9106      9156      9159      9160      9106      9156      9159      9161
      9106      9156      9159      9162      9107      9106      9156      9157
      9107      9106      9156      9158      9107      9106      9156      9159
      9108      9106      9156      9157      9108      9106      9156      9158
      9108      9106      9156      9159      9109      9112      9115      9116
      9109      9112      9115      9117      9109      9112      9115      9118
      9110      9109      9112      9113      9110      9109      9112      9114
      9110      9109      9112      9115      9111      9109      9112      9113
      9111      9109      9112      9114      9111      9109      9112      9115
      9112      9115      9118      9119      9112      9115      9118      9120
      9112      9115      9118      9121      9113      9112      9115      9116
      9113      9112      9115      9117      9113      9112      9115      9118
      9114      9112      9115      9116      9114      9112      9115      9117
      9114      9112      9115      9118      9115      9118      9121      9122
      9115      9118      9121      9123      9115      9118      9121      9124
      9116      9115      9118      9119      9116      9115      9118      9120
      9116      9115      9118      9121      9117      9115      9118      9119
      9117      9115      9118      9120      9117      9115      9118      9121
      9118      9121      9124      9125      9118      9121      9124      9126
      9118      9121      9124      9127      9119      9118      9121      9122
      9119      9118      9121      9123      9119      9118      9121      9124
      9120      9118      9121      9122      9120      9118      9121      9123
      9120      9118      9121      9124      9121      9124      9127      9128
      9121      9124      9127      9129      9122      9121      9124      9125
      9122      9121      9124      9126      9122      9121      9124      9127
      9123      9121      9124      9125      9123      9121      9124      9126
      9123      9121      9124      9127      9124      9127      9129      9130
      9124      9127      9129      9131      9125      9124      9127      9128
      9125      9124      9127      9129      9126      9124      9127      9128
      9126      9124      9127      9129      9127      9129      9131      9132
      9127      9129      9131      9133      9127      9129      9131      9134
      9128      9127      9129      9130      9128      9127      9129      9131
      9129      9131      9134      9135      9129      9131      9134      9136
      9129      9131      9134      9137      9130      9129      9131      9132
      9130      9129      9131      9133      9130      9129      9131      9134
      9131      9134      9137      9138      9131      9134      9137      9139
      9131      9134      9137      9140      9132      9131      9134      9135
      9132      9131      9134      9136      9132      9131      9134      9137
      9133      9131      9134      9135      9133      9131      9134      9136
      9133      9131      9134      9137      9134      9137      9140      9141
      9134      9137      9140      9142      9134      9137      9140      9143
      9135      9134      9137      9138      9135      9134      9137      9139
      9135      9134      9137      9140      9136      9134      9137      9138
      9136      9134      9137      9139      9136      9134      9137      9140
      9137      9140      9143      9144      9137      9140      9143      9145
      9137      9140      9143      9146      9138      9137      9140      9141
      9138      9137      9140      9142      9138      9137      9140      9143
      9139      9137      9140      9141      9139      9137      9140      9142
      9139      9137      9140      9143      9140      9143      9146      9147
      9140      9143      9146      9148      9140      9143      9146      9149
      9141      9140      9143      9144      9141      9140      9143      9145
      9141      9140      9143      9146      9142      9140      9143      9144
      9142      9140      9143      9145      9142      9140      9143      9146
      9143      9146      9149      9150      9143      9146      9149      9151
      9143      9146      9149      9152      9144      9143      9146      9147
      9144      9143      9146      9148      9144      9143      9146      9149
      9145      9143      9146      9147      9145      9143      9146      9148
      9145      9143      9146      9149      9146      9149      9152      9153
      9146      9149      9152      9154      9146      9149      9152      9155
      9147      9146      9149      9150      9147      9146      9149      9151
      9147      9146      9149      9152      9148      9146      9149      9150
      9148      9146      9149      9151      9148      9146      9149      9152
      9150      9149      9152      9153      9150      9149      9152      9154
      9150      9149      9152      9155      9151      9149      9152      9153
      9151      9149      9152      9154      9151      9149      9152      9155
      9156      9159      9162      9163      9156      9159      9162      9164
      9156      9159      9162      9165      9157      9156      9159      9160
      9157      9156      9159      9161      9157      9156      9159      9162
      9158      9156      9159      9160      9158      9156      9159      9161
      9158      9156      9159      9162      9159      9162      9165      9166
      9159      9162      9165      9167      9159      9162      9165      9168
      9160      9159      9162      9163      9160      9159      9162      9164
      9160      9159      9162      9165      9161      9159      9162      9163
      9161      9159      9162      9164      9161      9159      9162      9165
      9162      9165      9168      9169      9162      9165      9168      9170
      9162      9165      9168      9171      9163      9162      9165      9166
      9163      9162      9165      9167      9163      9162      9165      9168
      9164      9162      9165      9166      9164      9162      9165      9167
      9164      9162      9165      9168      9165      9168      9171      9172
      9165      9168      9171      9173      9165      9168      9171      9174
      9166      9165      9168      9169      9166      9165      9168      9170
      9166      9165      9168      9171      9167      9165      9168      9169
      9167      9165      9168      9170      9167      9165      9168      9171
      9168      9171      9174      9175      9168      9171      9174      9176
      9168      9171      9174      9177      9169      9168      9171      9172
      9169      9168      9171      9173      9169      9168      9171      9174
      9170      9168      9171      9172      9170      9168      9171      9173
      9170      9168      9171      9174      9171      9174      9177      9178
      9171      9174      9177      9179      9171      9174      9177      9180
      9172      9171      9174      9175      9172      9171      9174      9176
      9172      9171      9174      9177      9173      9171      9174      9175
      9173      9171      9174      9176      9173      9171      9174      9177
      9174      9177      9180      9181      9174      9177      9180      9182
      9174      9177      9180      9183      9175      9174      9177      9178
      9175      9174      9177      9179      9175      9174      9177      9180
      9176      9174      9177      9178      9176      9174      9177      9179
      9176      9174      9177      9180      9177      9180      9183      9184
      9177      9180      9183      9185      9177      9180      9183      9186
      9178      9177      9180      9181      9178      9177      9180      9182
      9178      9177      9180      9183      9179      9177      9180      9181
      9179      9177      9180      9182      9179      9177      9180      9183
      9180      9183      9186      9187      9180      9183      9186      9188
      9180      9183      9186      9189      9181      9180      9183      9184
      9181      9180      9183      9185      9181      9180      9183      9186
      9182      9180      9183      9184      9182      9180      9183      9185
      9182      9180      9183      9186      9183      9186      9189      9190
      9183      9186      9189      9191      9183      9186      9189      9192
      9184      9183      9186      9187      9184      9183      9186      9188
      9184      9183      9186      9189      9185      9183      9186      9187
      9185      9183      9186      9188      9185      9183      9186      9189
      9186      9189      9192      9193      9186      9189      9192      9194
      9186      9189      9192      9195      9187      9186      9189      9190
      9187      9186      9189      9191      9187      9186      9189      9192
      9188      9186      9189      9190      9188      9186      9189      9191
      9188      9186      9189      9192      9189      9192      9195      9196
      9189      9192      9195      9197      9189      9192      9195      9198
      9190      9189      9192      9193      9190      9189      9192      9194
      9190      9189      9192      9195      9191      9189      9192      9193
      9191      9189      9192      9194      9191      9189      9192      9195
      9193      9192      9195      9196      9193      9192      9195      9197
      9193      9192      9195      9198      9194      9192      9195      9196
      9194      9192      9195      9197      9194      9192      9195      9198
      9199      9203      9206      9207      9199      9203      9206      9208
      9199      9203      9206      9213      9200      9199      9203      9204
      9200      9199      9203      9205      9200      9199      9203      9206
      9201      9199      9203      9204      9201      9199      9203      9205
      9201      9199      9203      9206      9202      9199      9203      9204
      9202      9199      9203      9205      9202      9199      9203      9206
      9203      9206      9213      9209      9204      9203      9206      9207
      9204      9203      9206      9208      9204      9203      9206      9213
      9205      9203      9206      9207      9205      9203      9206      9208
      9205      9203      9206      9213      9206      9213      9209      9210
      9206      9213      9209      9211      9206      9213      9209      9212
      9207      9206      9213      9209      9208      9206      9213      9209
      9209      9212      9214      9215      9209      9212      9214      9216
      9209      9212      9214      9217      9210      9209      9212      9214
      9211      9209      9212      9214      9212      9214      9217      9218
      9212      9214      9217      9219      9212      9214      9217      9225
      9213      9209      9212      9214      9214      9217      9219      9220
      9214      9217      9225      9226      9214      9217      9225      9227
      9214      9217      9225      9228      9215      9214      9217      9218
      9215      9214      9217      9219      9215      9214      9217      9225
      9216      9214      9217      9218      9216      9214      9217      9219
      9216      9214      9217      9225      9217      9219      9220      9221
      9217      9219      9220      9222      9217      9225      9228      9229
      9218      9217      9219      9220      9218      9217      9225      9226
      9218      9217      9225      9227      9218      9217      9225      9228
      9219      9217      9225      9226      9219      9217      9225      9227
      9219      9217      9225      9228      9219      9220      9222      9223
      9219      9220      9222      9224      9219      9220      9222      9234
      9220      9219      9217      9225      9220      9222      9234      9235
      9220      9222      9234      9236      9220      9222      9234      9237
      9221      9220      9222      9223      9221      9220      9222      9224
      9221      9220      9222      9234      9222      9234      9237      9238
      9222      9234      9237      9239      9222      9234      9237      9240
      9223      9222      9234      9235      9223      9222      9234      9236
      9223      9222      9234      9237      9224      9222      9234      9235
      9224      9222      9234      9236      9224      9222      9234      9237
      9225      9228      9229      9230      9225      9228      9229      9231
      9226      9225      9228      9229      9227      9225      9228      9229
      9228      9229      9231      9232      9228      9229      9231      9233
      9228      9229      9231      9281      9229      9231      9281      9282
      9229      9231      9281      9283      9229      9231      9281      9284
      9230      9229      9231      9232      9230      9229      9231      9233
      9230      9229      9231      9281      9231      9281      9284      9285
      9231      9281      9284      9286      9231      9281      9284      9287
      9232      9231      9281      9282      9232      9231      9281      9283
      9232      9231      9281      9284      9233      9231      9281      9282
      9233      9231      9281      9283      9233      9231      9281      9284
      9234      9237      9240      9241      9234      9237      9240      9242
      9234      9237      9240      9243      9235      9234      9237      9238
      9235      9234      9237      9239      9235      9234      9237      9240
      9236      9234      9237      9238      9236      9234      9237      9239
      9236      9234      9237      9240      9237      9240      9243      9244
      9237      9240      9243      9245      9237      9240      9243      9246
      9238      9237      9240      9241      9238      9237      9240      9242
      9238      9237      9240      9243      9239      9237      9240      9241
      9239      9237      9240      9242      9239      9237      9240      9243
      9240      9243      9246      9247      9240      9243      9246      9248
      9240      9243      9246      9249      9241      9240      9243      9244
      9241      9240      9243      9245      9241      9240      9243      9246
      9242      9240      9243      9244      9242      9240      9243      9245
      9242      9240      9243      9246      9243      9246      9249      9250
      9243      9246      9249      9251      9243      9246      9249      9252
      9244      9243      9246      9247      9244      9243      9246      9248
      9244      9243      9246      9249      9245      9243      9246      9247
      9245      9243      9246      9248      9245      9243      9246      9249
      9246      9249      9252      9253      9246      9249      9252      9254
      9247      9246      9249      9250      9247      9246      9249      9251
      9247      9246      9249      9252      9248      9246      9249      9250
      9248      9246      9249      9251      9248      9246      9249      9252
      9249      9252      9254      9255      9249      9252      9254      9256
      9250      9249      9252      9253      9250      9249      9252      9254
      9251      9249      9252      9253      9251      9249      9252      9254
      9252      9254      9256      9257      9252      9254      9256      9258
      9252      9254      9256      9259      9253      9252      9254      9255
      9253      9252      9254      9256      9254      9256      9259      9260
      9254      9256      9259      9261      9254      9256      9259      9262
      9255      9254      9256      9257      9255      9254      9256      9258
      9255      9254      9256      9259      9256      9259      9262      9263
      9256      9259      9262      9264      9256      9259      9262      9265
      9257      9256      9259      9260      9257      9256      9259      9261
      9257      9256      9259      9262      9258      9256      9259      9260
      9258      9256      9259      9261      9258      9256      9259      9262
      9259      9262      9265      9266      9259      9262      9265      9267
      9259      9262      9265      9268      9260      9259      9262      9263
      9260      9259      9262      9264      9260      9259      9262      9265
      9261      9259      9262      9263      9261      9259      9262      9264
      9261      9259      9262      9265      9262      9265      9268      9269
      9262      9265      9268      9270      9262      9265      9268      9271
      9263      9262      9265      9266      9263      9262      9265      9267
      9263      9262      9265      9268      9264      9262      9265      9266
      9264      9262      9265      9267      9264      9262      9265      9268
      9265      9268      9271      9272      9265      9268      9271      9273
      9265      9268      9271      9274      9266      9265      9268      9269
      9266      9265      9268      9270      9266      9265      9268      9271
      9267      9265      9268      9269      9267      9265      9268      9270
      9267      9265      9268      9271      9268      9271      9274      9275
      9268      9271      9274      9276      9268      9271      9274      9277
      9269      9268      9271      9272      9269      9268      9271      9273
      9269      9268      9271      9274      9270      9268      9271      9272
      9270      9268      9271      9273      9270      9268      9271      9274
      9271      9274      9277      9278      9271      9274      9277      9279
      9271      9274      9277      9280      9272      9271      9274      9275
      9272      9271      9274      9276      9272      9271      9274      9277
      9273      9271      9274      9275      9273      9271      9274      9276
      9273      9271      9274      9277      9275      9274      9277      9278
      9275      9274      9277      9279      9275      9274      9277      9280
      9276      9274      9277      9278      9276      9274      9277      9279
      9276      9274      9277      9280      9281      9284      9287      9288
      9281      9284      9287      9289      9281      9284      9287      9290
      9282      9281      9284      9285      9282      9281      9284      9286
      9282      9281      9284      9287      9283      9281      9284      9285
      9283      9281      9284      9286      9283      9281      9284      9287
      9284      9287      9290      9291      9284      9287      9290      9292
      9284      9287      9290      9293      9285      9284      9287      9288
      9285      9284      9287      9289      9285      9284      9287      9290
      9286      9284      9287      9288      9286      9284      9287      9289
      9286      9284      9287      9290      9287      9290      9293      9294
      9287      9290      9293      9295      9287      9290      9293      9296
      9288      9287      9290      9291      9288      9287      9290      9292
      9288      9287      9290      9293      9289      9287      9290      9291
      9289      9287      9290      9292      9289      9287      9290      9293
      9290      9293      9296      9297      9290      9293      9296      9298
      9290      9293      9296      9299      9291      9290      9293      9294
      9291      9290      9293      9295      9291      9290      9293      9296
      9292      9290      9293      9294      9292      9290      9293      9295
      9292      9290      9293      9296      9293      9296      9299      9300
      9293      9296      9299      9301      9293      9296      9299      9302
      9294      9293      9296      9297      9294      9293      9296      9298
      9294      9293      9296      9299      9295      9293      9296      9297
      9295      9293      9296      9298      9295      9293      9296      9299
      9296      9299      9302      9303      9296      9299      9302      9304
      9296      9299      9302      9305      9297      9296      9299      9300
      9297      9296      9299      9301      9297      9296      9299      9302
      9298      9296      9299      9300      9298      9296      9299      9301
      9298      9296      9299      9302      9299      9302      9305      9306
      9299      9302      9305      9307      9299      9302      9305      9308
      9300      9299      9302      9303      9300      9299      9302      9304
      9300      9299      9302      9305      9301      9299      9302      9303
      9301      9299      9302      9304      9301      9299      9302      9305
      9302      9305      9308      9309      9302      9305      9308      9310
      9302      9305      9308      9311      9303      9302      9305      9306
      9303      9302      9305      9307      9303      9302      9305      9308
      9304      9302      9305      9306      9304      9302      9305      9307
      9304      9302      9305      9308      9305      9308      9311      9312
      9305      9308      9311      9313      9305      9308      9311      9314
      9306      9305      9308      9309      9306      9305      9308      9310
      9306      9305      9308      9311      9307      9305      9308      9309
      9307      9305      9308      9310      9307      9305      9308      9311
      9308      9311      9314      9315      9308      9311      9314      9316
      9308      9311      9314      9317      9309      9308      9311      9312
      9309      9308      9311      9313      9309      9308      9311      9314
      9310      9308      9311      9312      9310      9308      9311      9313
      9310      9308      9311      9314      9311      9314      9317      9318
      9311      9314      9317      9319      9311      9314      9317      9320
      9312      9311      9314      9315      9312      9311      9314      9316
      9312      9311      9314      9317      9313      9311      9314      9315
      9313      9311      9314      9316      9313      9311      9314      9317
      9314      9317      9320      9321      9314      9317      9320      9322
      9314      9317      9320      9323      9315      9314      9317      9318
      9315      9314      9317      9319      9315      9314      9317      9320
      9316      9314      9317      9318      9316      9314      9317      9319
      9316      9314      9317      9320      9318      9317      9320      9321
      9318      9317      9320      9322      9318      9317      9320      9323
      9319      9317      9320      9321      9319      9317      9320      9322
      9319      9317      9320      9323      9324      9328      9331      9332
      9324      9328      9331      9333      9324      9328      9331      9338
      9325      9324      9328      9329      9325      9324      9328      9330
      9325      9324      9328      9331      9326      9324      9328      9329
      9326      9324      9328      9330      9326      9324      9328      9331
      9327      9324      9328      9329      9327      9324      9328      9330
      9327      9324      9328      9331      9328      9331      9338      9334
      9329      9328      9331      9332      9329      9328      9331      9333
      9329      9328      9331      9338      9330      9328      9331      9332
      9330      9328      9331      9333      9330      9328      9331      9338
      9331      9338      9334      9335      9331      9338      9334      9336
      9331      9338      9334      9337      9332      9331      9338      9334
      9333      9331      9338      9334      9334      9337      9339      9340
      9334      9337      9339      9341      9334      9337      9339      9342
      9335      9334      9337      9339      9336      9334      9337      9339
      9337      9339      9342      9343      9337      9339      9342      9344
      9337      9339      9342      9350      9338      9334      9337      9339
      9339      9342      9344      9345      9339      9342      9350      9351
      9339      9342      9350      9352      9339      9342      9350      9353
      9340      9339      9342      9343      9340      9339      9342      9344
      9340      9339      9342      9350      9341      9339      9342      9343
      9341      9339      9342      9344      9341      9339      9342      9350
      9342      9344      9345      9346      9342      9344      9345      9347
      9342      9350      9353      9354      9343      9342      9344      9345
      9343      9342      9350      9351      9343      9342      9350      9352
      9343      9342      9350      9353      9344      9342      9350      9351
      9344      9342      9350      9352      9344      9342      9350      9353
      9344      9345      9347      9348      9344      9345      9347      9349
      9344      9345      9347      9359      9345      9344      9342      9350
      9345      9347      9359      9360      9345      9347      9359      9361
      9345      9347      9359      9362      9346      9345      9347      9348
      9346      9345      9347      9349      9346      9345      9347      9359
      9347      9359      9362      9363      9347      9359      9362      9364
      9347      9359      9362      9365      9348      9347      9359      9360
      9348      9347      9359      9361      9348      9347      9359      9362
      9349      9347      9359      9360      9349      9347      9359      9361
      9349      9347      9359      9362      9350      9353      9354      9355
      9350      9353      9354      9356      9351      9350      9353      9354
      9352      9350      9353      9354      9353      9354      9356      9357
      9353      9354      9356      9358      9353      9354      9356      9406
      9354      9356      9406      9407      9354      9356      9406      9408
      9354      9356      9406      9409      9355      9354      9356      9357
      9355      9354      9356      9358      9355      9354      9356      9406
      9356      9406      9409      9410      9356      9406      9409      9411
      9356      9406      9409      9412      9357      9356      9406      9407
      9357      9356      9406      9408      9357      9356      9406      9409
      9358      9356      9406      9407      9358      9356      9406      9408
      9358      9356      9406      9409      9359      9362      9365      9366
      9359      9362      9365      9367      9359      9362      9365      9368
      9360      9359      9362      9363      9360      9359      9362      9364
      9360      9359      9362      9365      9361      9359      9362      9363
      9361      9359      9362      9364      9361      9359      9362      9365
      9362      9365      9368      9369      9362      9365      9368      9370
      9362      9365      9368      9371      9363      9362      9365      9366
      9363      9362      9365      9367      9363      9362      9365      9368
      9364      9362      9365      9366      9364      9362      9365      9367
      9364      9362      9365      9368      9365      9368      9371      9372
      9365      9368      9371      9373      9365      9368      9371      9374
      9366      9365      9368      9369      9366      9365      9368      9370
      9366      9365      9368      9371      9367      9365      9368      9369
      9367      9365      9368      9370      9367      9365      9368      9371
      9368      9371      9374      9375      9368      9371      9374      9376
      9368      9371      9374      9377      9369      9368      9371      9372
      9369      9368      9371      9373      9369      9368      9371      9374
      9370      9368      9371      9372      9370      9368      9371      9373
      9370      9368      9371      9374      9371      9374      9377      9378
      9371      9374      9377      9379      9372      9371      9374      9375
      9372      9371      9374      9376      9372      9371      9374      9377
      9373      9371      9374      9375      9373      9371      9374      9376
      9373      9371      9374      9377      9374      9377      9379      9380
      9374      9377      9379      9381      9375      9374      9377      9378
      9375      9374      9377      9379      9376      9374      9377      9378
      9376      9374      9377      9379      9377      9379      9381      9382
      9377      9379      9381      9383      9377      9379      9381      9384
      9378      9377      9379      9380      9378      9377      9379      9381
      9379      9381      9384      9385      9379      9381      9384      9386
      9379      9381      9384      9387      9380      9379      9381      9382
      9380      9379      9381      9383      9380      9379      9381      9384
      9381      9384      9387      9388      9381      9384      9387      9389
      9381      9384      9387      9390      9382      9381      9384      9385
      9382      9381      9384      9386      9382      9381      9384      9387
      9383      9381      9384      9385      9383      9381      9384      9386
      9383      9381      9384      9387      9384      9387      9390      9391
      9384      9387      9390      9392      9384      9387      9390      9393
      9385      9384      9387      9388      9385      9384      9387      9389
      9385      9384      9387      9390      9386      9384      9387      9388
      9386      9384      9387      9389      9386      9384      9387      9390
      9387      9390      9393      9394      9387      9390      9393      9395
      9387      9390      9393      9396      9388      9387      9390      9391
      9388      9387      9390      9392      9388      9387      9390      9393
      9389      9387      9390      9391      9389      9387      9390      9392
      9389      9387      9390      9393      9390      9393      9396      9397
      9390      9393      9396      9398      9390      9393      9396      9399
      9391      9390      9393      9394      9391      9390      9393      9395
      9391      9390      9393      9396      9392      9390      9393      9394
      9392      9390      9393      9395      9392      9390      9393      9396
      9393      9396      9399      9400      9393      9396      9399      9401
      9393      9396      9399      9402      9394      9393      9396      9397
      9394      9393      9396      9398      9394      9393      9396      9399
      9395      9393      9396      9397      9395      9393      9396      9398
      9395      9393      9396      9399      9396      9399      9402      9403
      9396      9399      9402      9404      9396      9399      9402      9405
      9397      9396      9399      9400      9397      9396      9399      9401
      9397      9396      9399      9402      9398      9396      9399      9400
      9398      9396      9399      9401      9398      9396      9399      9402
      9400      9399      9402      9403      9400      9399      9402      9404
      9400      9399      9402      9405      9401      9399      9402      9403
      9401      9399      9402      9404      9401      9399      9402      9405
      9406      9409      9412      9413      9406      9409      9412      9414
      9406      9409      9412      9415      9407      9406      9409      9410
      9407      9406      9409      9411      9407      9406      9409      9412
      9408      9406      9409      9410      9408      9406      9409      9411
      9408      9406      9409      9412      9409      9412      9415      9416
      9409      9412      9415      9417      9409      9412      9415      9418
      9410      9409      9412      9413      9410      9409      9412      9414
      9410      9409      9412      9415      9411      9409      9412      9413
      9411      9409      9412      9414      9411      9409      9412      9415
      9412      9415      9418      9419      9412      9415      9418      9420
      9412      9415      9418      9421      9413      9412      9415      9416
      9413      9412      9415      9417      9413      9412      9415      9418
      9414      9412      9415      9416      9414      9412      9415      9417
      9414      9412      9415      9418      9415      9418      9421      9422
      9415      9418      9421      9423      9415      9418      9421      9424
      9416      9415      9418      9419      9416      9415      9418      9420
      9416      9415      9418      9421      9417      9415      9418      9419
      9417      9415      9418      9420      9417      9415      9418      9421
      9418      9421      9424      9425      9418      9421      9424      9426
      9418      9421      9424      9427      9419      9418      9421      9422
      9419      9418      9421      9423      9419      9418      9421      9424
      9420      9418      9421      9422      9420      9418      9421      9423
      9420      9418      9421      9424      9421      9424      9427      9428
      9421      9424      9427      9429      9421      9424      9427      9430
      9422      9421      9424      9425      9422      9421      9424      9426
      9422      9421      9424      9427      9423      9421      9424      9425
      9423      9421      9424      9426      9423      9421      9424      9427
      9424      9427      9430      9431      9424      9427      9430      9432
      9424      9427      9430      9433      9425      9424      9427      9428
      9425      9424      9427      9429      9425      9424      9427      9430
      9426      9424      9427      9428      9426      9424      9427      9429
      9426      9424      9427      9430      9427      9430      9433      9434
      9427      9430      9433      9435      9427      9430      9433      9436
      9428      9427      9430      9431      9428      9427      9430      9432
      9428      9427      9430      9433      9429      9427      9430      9431
      9429      9427      9430      9432      9429      9427      9430      9433
      9430      9433      9436      9437      9430      9433      9436      9438
      9430      9433      9436      9439      9431      9430      9433      9434
      9431      9430      9433      9435      9431      9430      9433      9436
      9432      9430      9433      9434      9432      9430      9433      9435
      9432      9430      9433      9436      9433      9436      9439      9440
      9433      9436      9439      9441      9433      9436      9439      9442
      9434      9433      9436      9437      9434      9433      9436      9438
      9434      9433      9436      9439      9435      9433      9436      9437
      9435      9433      9436      9438      9435      9433      9436      9439
      9436      9439      9442      9443      9436      9439      9442      9444
      9436      9439      9442      9445      9437      9436      9439      9440
      9437      9436      9439      9441      9437      9436      9439      9442
      9438      9436      9439      9440      9438      9436      9439      9441
      9438      9436      9439      9442      9439      9442      9445      9446
      9439      9442      9445      9447      9439      9442      9445      9448
      9440      9439      9442      9443      9440      9439      9442      9444
      9440      9439      9442      9445      9441      9439      9442      9443
      9441      9439      9442      9444      9441      9439      9442      9445
      9443      9442      9445      9446      9443      9442      9445      9447
      9443      9442      9445      9448      9444      9442      9445      9446
      9444      9442      9445      9447      9444      9442      9445      9448
      9449      9450      9465      9466      9449      9450      9465      9467
      9449      9450      9465      9471      9450      9449      9453      9454
      9450      9449      9453      9455      9450      9449      9453      9456
      9450      9449      9457      9458      9450      9449      9457      9459
      9450      9449      9457      9460      9450      9449      9461      9462
      9450      9449      9461      9463      9450      9449      9461      9464
      9450      9465      9471      9468      9451      9450      9449      9453
      9451      9450      9449      9457      9451      9450      9449      9461
      9451      9450      9465      9466      9451      9450      9465      9467
      9451      9450      9465      9471      9452      9450      9449      9453
      9452      9450      9449      9457      9452      9450      9449      9461
      9452      9450      9465      9466      9452      9450      9465      9467
      9452      9450      9465      9471      9453      9449      9450      9465
      9453      9449      9457      9458      9453      9449      9457      9459
      9453      9449      9457      9460      9453      9449      9461      9462
      9453      9449      9461      9463      9453      9449      9461      9464
      9454      9453      9449      9457      9454      9453      9449      9461
      9455      9453      9449      9457      9455      9453      9449      9461
      9456      9453      9449      9457      9456      9453      9449      9461
      9457      9449      9450      9465      9457      9449      9461      9462
      9457      9449      9461      9463      9457      9449      9461      9464
      9458      9457      9449      9461      9459      9457      9449      9461
      9460      9457      9449      9461      9461      9449      9450      9465
      9465      9471      9468      9469      9465      9471      9468      9470
      9465      9471      9468      9472      9466      9465      9471      9468
      9467      9465      9471      9468      9468      9472      9473      9474
      9468      9472      9473      9475      9468      9472      9473      9476
      9469      9468      9472      9473      9470      9468      9472      9473
      9471      9468      9472      9473      9472      9473      9476      9477
      9472      9473      9476      9478      9472      9473      9476      9484
      9473      9476      9478      9479      9473      9476      9484      9485
      9473      9476      9484      9486      9473      9476      9484      9487
      9474      9473      9476      9477      9474      9473      9476      9478
      9474      9473      9476      9484      9475      9473      9476      9477
      9475      9473      9476      9478      9475      9473      9476      9484
      9476      9478      9479      9480      9476      9478      9479      9481
      9476      9484      9487      9488      9477      9476      9478      9479
      9477      9476      9484      9485      9477      9476      9484      9486
      9477      9476      9484      9487      9478      9476      9484      9485
      9478      9476      9484      9486      9478      9476      9484      9487
      9478      9479      9481      9482      9478      9479      9481      9483
      9478      9479      9481      9493      9479      9478      9476      9484
      9479      9481      9493      9494      9479      9481      9493      9495
      9479      9481      9493      9496      9480      9479      9481      9482
      9480      9479      9481      9483      9480      9479      9481      9493
      9481      9493      9496      9497      9481      9493      9496      9498
      9481      9493      9496      9499      9482      9481      9493      9494
      9482      9481      9493      9495      9482      9481      9493      9496
      9483      9481      9493      9494      9483      9481      9493      9495
      9483      9481      9493      9496      9484      9487      9488      9489
      9484      9487      9488      9490      9485      9484      9487      9488
      9486      9484      9487      9488      9487      9488      9490      9491
      9487      9488      9490      9492      9487      9488      9490      9540
      9488      9490      9540      9541      9488      9490      9540      9542
      9488      9490      9540      9543      9489      9488      9490      9491
      9489      9488      9490      9492      9489      9488      9490      9540
      9490      9540      9543      9544      9490      9540      9543      9545
      9490      9540      9543      9546      9491      9490      9540      9541
      9491      9490      9540      9542      9491      9490      9540      9543
      9492      9490      9540      9541      9492      9490      9540      9542
      9492      9490      9540      9543      9493      9496      9499      9500
      9493      9496      9499      9501      9493      9496      9499      9502
      9494      9493      9496      9497      9494      9493      9496      9498
      9494      9493      9496      9499      9495      9493      9496      9497
      9495      9493      9496      9498      9495      9493      9496      9499
      9496      9499      9502      9503      9496      9499      9502      9504
      9496      9499      9502      9505      9497      9496      9499      9500
      9497      9496      9499      9501      9497      9496      9499      9502
      9498      9496      9499      9500      9498      9496      9499      9501
      9498      9496      9499      9502      9499      9502      9505      9506
      9499      9502      9505      9507      9499      9502      9505      9508
      9500      9499      9502      9503      9500      9499      9502      9504
      9500      9499      9502      9505      9501      9499      9502      9503
      9501      9499      9502      9504      9501      9499      9502      9505
      9502      9505      9508      9509      9502      9505      9508      9510
      9502      9505      9508      9511      9503      9502      9505      9506
      9503      9502      9505      9507      9503      9502      9505      9508
      9504      9502      9505      9506      9504      9502      9505      9507
      9504      9502      9505      9508      9505      9508      9511      9512
      9505      9508      9511      9513      9506      9505      9508      9509
      9506      9505      9508      9510      9506      9505      9508      9511
      9507      9505      9508      9509      9507      9505      9508      9510
      9507      9505      9508      9511      9508      9511      9513      9514
      9508      9511      9513      9515      9509      9508      9511      9512
      9509      9508      9511      9513      9510      9508      9511      9512
      9510      9508      9511      9513      9511      9513      9515      9516
      9511      9513      9515      9517      9511      9513      9515      9518
      9512      9511      9513      9514      9512      9511      9513      9515
      9513      9515      9518      9519      9513      9515      9518      9520
      9513      9515      9518      9521      9514      9513      9515      9516
      9514      9513      9515      9517      9514      9513      9515      9518
      9515      9518      9521      9522      9515      9518      9521      9523
      9515      9518      9521      9524      9516      9515      9518      9519
      9516      9515      9518      9520      9516      9515      9518      9521
      9517      9515      9518      9519      9517      9515      9518      9520
      9517      9515      9518      9521      9518      9521      9524      9525
      9518      9521      9524      9526      9518      9521      9524      9527
      9519      9518      9521      9522      9519      9518      9521      9523
      9519      9518      9521      9524      9520      9518      9521      9522
      9520      9518      9521      9523      9520      9518      9521      9524
      9521      9524      9527      9528      9521      9524      9527      9529
      9521      9524      9527      9530      9522      9521      9524      9525
      9522      9521      9524      9526      9522      9521      9524      9527
      9523      9521      9524      9525      9523      9521      9524      9526
      9523      9521      9524      9527      9524      9527      9530      9531
      9524      9527      9530      9532      9524      9527      9530      9533
      9525      9524      9527      9528      9525      9524      9527      9529
      9525      9524      9527      9530      9526      9524      9527      9528
      9526      9524      9527      9529      9526      9524      9527      9530
      9527      9530      9533      9534      9527      9530      9533      9535
      9527      9530      9533      9536      9528      9527      9530      9531
      9528      9527      9530      9532      9528      9527      9530      9533
      9529      9527      9530      9531      9529      9527      9530      9532
      9529      9527      9530      9533      9530      9533      9536      9537
      9530      9533      9536      9538      9530      9533      9536      9539
      9531      9530      9533      9534      9531      9530      9533      9535
      9531      9530      9533      9536      9532      9530      9533      9534
      9532      9530      9533      9535      9532      9530      9533      9536
      9534      9533      9536      9537      9534      9533      9536      9538
      9534      9533      9536      9539      9535      9533      9536      9537
      9535      9533      9536      9538      9535      9533      9536      9539
      9540      9543      9546      9547      9540      9543      9546      9548
      9540      9543      9546      9549      9541      9540      9543      9544
      9541      9540      9543      9545      9541      9540      9543      9546
      9542      9540      9543      9544      9542      9540      9543      9545
      9542      9540      9543      9546      9543      9546      9549      9550
      9543      9546      9549      9551      9543      9546      9549      9552
      9544      9543      9546      9547      9544      9543      9546      9548
      9544      9543      9546      9549      9545      9543      9546      9547
      9545      9543      9546      9548      9545      9543      9546      9549
      9546      9549      9552      9553      9546      9549      9552      9554
      9546      9549      9552      9555      9547      9546      9549      9550
      9547      9546      9549      9551      9547      9546      9549      9552
      9548      9546      9549      9550      9548      9546      9549      9551
      9548      9546      9549      9552      9549      9552      9555      9556
      9549      9552      9555      9557      9549      9552      9555      9558
      9550      9549      9552      9553      9550      9549      9552      9554
      9550      9549      9552      9555      9551      9549      9552      9553
      9551      9549      9552      9554      9551      9549      9552      9555
      9552      9555      9558      9559      9552      9555      9558      9560
      9552      9555      9558      9561      9553      9552      9555      9556
      9553      9552      9555      9557      9553      9552      9555      9558
      9554      9552      9555      9556      9554      9552      9555      9557
      9554      9552      9555      9558      9555      9558      9561      9562
      9555      9558      9561      9563      9555      9558      9561      9564
      9556      9555      9558      9559      9556      9555      9558      9560
      9556      9555      9558      9561      9557      9555      9558      9559
      9557      9555      9558      9560      9557      9555      9558      9561
      9558      9561      9564      9565      9558      9561      9564      9566
      9558      9561      9564      9567      9559      9558      9561      9562
      9559      9558      9561      9563      9559      9558      9561      9564
      9560      9558      9561      9562      9560      9558      9561      9563
      9560      9558      9561      9564      9561      9564      9567      9568
      9561      9564      9567      9569      9561      9564      9567      9570
      9562      9561      9564      9565      9562      9561      9564      9566
      9562      9561      9564      9567      9563      9561      9564      9565
      9563      9561      9564      9566      9563      9561      9564      9567
      9564      9567      9570      9571      9564      9567      9570      9572
      9564      9567      9570      9573      9565      9564      9567      9568
      9565      9564      9567      9569      9565      9564      9567      9570
      9566      9564      9567      9568      9566      9564      9567      9569
      9566      9564      9567      9570      9567      9570      9573      9574
      9567      9570      9573      9575      9567      9570      9573      9576
      9568      9567      9570      9571      9568      9567      9570      9572
      9568      9567      9570      9573      9569      9567      9570      9571
      9569      9567      9570      9572      9569      9567      9570      9573
      9570      9573      9576      9577      9570      9573      9576      9578
      9570      9573      9576      9579      9571      9570      9573      9574
      9571      9570      9573      9575      9571      9570      9573      9576
      9572      9570      9573      9574      9572      9570      9573      9575
      9572      9570      9573      9576      9573      9576      9579      9580
      9573      9576      9579      9581      9573      9576      9579      9582
      9574      9573      9576      9577      9574      9573      9576      9578
      9574      9573      9576      9579      9575      9573      9576      9577
      9575      9573      9576      9578      9575      9573      9576      9579
      9577      9576      9579      9580      9577      9576      9579      9581
      9577      9576      9579      9582      9578      9576      9579      9580
      9578      9576      9579      9581      9578      9576      9579      9582
      9583      9587      9590      9591      9583      9587      9590      9592
      9583      9587      9590      9597      9584      9583      9587      9588
      9584      9583      9587      9589      9584      9583      9587      9590
      9585      9583      9587      9588      9585      9583      9587      9589
      9585      9583      9587      9590      9586      9583      9587      9588
      9586      9583      9587      9589      9586      9583      9587      9590
      9587      9590      9597      9593      9588      9587      9590      9591
      9588      9587      9590      9592      9588      9587      9590      9597
      9589      9587      9590      9591      9589      9587      9590      9592
      9589      9587      9590      9597      9590      9597      9593      9594
      9590      9597      9593      9595      9590      9597      9593      9596
      9591      9590      9597      9593      9592      9590      9597      9593
      9593      9596      9598      9599      9593      9596      9598      9600
      9593      9596      9598      9601      9594      9593      9596      9598
      9595      9593      9596      9598      9596      9598      9601      9602
      9596      9598      9601      9603      9596      9598      9601      9609
      9597      9593      9596      9598      9598      9601      9603      9604
      9598      9601      9609      9610      9598      9601      9609      9611
      9598      9601      9609      9612      9599      9598      9601      9602
      9599      9598      9601      9603      9599      9598      9601      9609
      9600      9598      9601      9602      9600      9598      9601      9603
      9600      9598      9601      9609      9601      9603      9604      9605
      9601      9603      9604      9606      9601      9609      9612      9613
      9602      9601      9603      9604      9602      9601      9609      9610
      9602      9601      9609      9611      9602      9601      9609      9612
      9603      9601      9609      9610      9603      9601      9609      9611
      9603      9601      9609      9612      9603      9604      9606      9607
      9603      9604      9606      9608      9603      9604      9606      9618
      9604      9603      9601      9609      9604      9606      9618      9619
      9604      9606      9618      9620      9604      9606      9618      9621
      9605      9604      9606      9607      9605      9604      9606      9608
      9605      9604      9606      9618      9606      9618      9621      9622
      9606      9618      9621      9623      9606      9618      9621      9624
      9607      9606      9618      9619      9607      9606      9618      9620
      9607      9606      9618      9621      9608      9606      9618      9619
      9608      9606      9618      9620      9608      9606      9618      9621
      9609      9612      9613      9614      9609      9612      9613      9615
      9610      9609      9612      9613      9611      9609      9612      9613
      9612      9613      9615      9616      9612      9613      9615      9617
      9612      9613      9615      9665      9613      9615      9665      9666
      9613      9615      9665      9667      9613      9615      9665      9668
      9614      9613      9615      9616      9614      9613      9615      9617
      9614      9613      9615      9665      9615      9665      9668      9669
      9615      9665      9668      9670      9615      9665      9668      9671
      9616      9615      9665      9666      9616      9615      9665      9667
      9616      9615      9665      9668      9617      9615      9665      9666
      9617      9615      9665      9667      9617      9615      9665      9668
      9618      9621      9624      9625      9618      9621      9624      9626
      9618      9621      9624      9627      9619      9618      9621      9622
      9619      9618      9621      9623      9619      9618      9621      9624
      9620      9618      9621      9622      9620      9618      9621      9623
      9620      9618      9621      9624      9621      9624      9627      9628
      9621      9624      9627      9629      9621      9624      9627      9630
      9622      9621      9624      9625      9622      9621      9624      9626
      9622      9621      9624      9627      9623      9621      9624      9625
      9623      9621      9624      9626      9623      9621      9624      9627
      9624      9627      9630      9631      9624      9627      9630      9632
      9624      9627      9630      9633      9625      9624      9627      9628
      9625      9624      9627      9629      9625      9624      9627      9630
      9626      9624      9627      9628      9626      9624      9627      9629
      9626      9624      9627      9630      9627      9630      9633      9634
      9627      9630      9633      9635      9627      9630      9633      9636
      9628      9627      9630      9631      9628      9627      9630      9632
      9628      9627      9630      9633      9629      9627      9630      9631
      9629      9627      9630      9632      9629      9627      9630      9633
      9630      9633      9636      9637      9630      9633      9636      9638
      9631      9630      9633      9634      9631      9630      9633      9635
      9631      9630      9633      9636      9632      9630      9633      9634
      9632      9630      9633      9635      9632      9630      9633      9636
      9633      9636      9638      9639      9633      9636      9638      9640
      9634      9633      9636      9637      9634      9633      9636      9638
      9635      9633      9636      9637      9635      9633      9636      9638
      9636      9638      9640      9641      9636      9638      9640      9642
      9636      9638      9640      9643      9637      9636      9638      9639
      9637      9636      9638      9640      9638      9640      9643      9644
      9638      9640      9643      9645      9638      9640      9643      9646
      9639      9638      9640      9641      9639      9638      9640      9642
      9639      9638      9640      9643      9640      9643      9646      9647
      9640      9643      9646      9648      9640      9643      9646      9649
      9641      9640      9643      9644      9641      9640      9643      9645
      9641      9640      9643      9646      9642      9640      9643      9644
      9642      9640      9643      9645      9642      9640      9643      9646
      9643      9646      9649      9650      9643      9646      9649      9651
      9643      9646      9649      9652      9644      9643      9646      9647
      9644      9643      9646      9648      9644      9643      9646      9649
      9645      9643      9646      9647      9645      9643      9646      9648
      9645      9643      9646      9649      9646      9649      9652      9653
      9646      9649      9652      9654      9646      9649      9652      9655
      9647      9646      9649      9650      9647      9646      9649      9651
      9647      9646      9649      9652      9648      9646      9649      9650
      9648      9646      9649      9651      9648      9646      9649      9652
      9649      9652      9655      9656      9649      9652      9655      9657
      9649      9652      9655      9658      9650      9649      9652      9653
      9650      9649      9652      9654      9650      9649      9652      9655
      9651      9649      9652      9653      9651      9649      9652      9654
      9651      9649      9652      9655      9652      9655      9658      9659
      9652      9655      9658      9660      9652      9655      9658      9661
      9653      9652      9655      9656      9653      9652      9655      9657
      9653      9652      9655      9658      9654      9652      9655      9656
      9654      9652      9655      9657      9654      9652      9655      9658
      9655      9658      9661      9662      9655      9658      9661      9663
      9655      9658      9661      9664      9656      9655      9658      9659
      9656      9655      9658      9660      9656      9655      9658      9661
      9657      9655      9658      9659      9657      9655      9658      9660
      9657      9655      9658      9661      9659      9658      9661      9662
      9659      9658      9661      9663      9659      9658      9661      9664
      9660      9658      9661      9662      9660      9658      9661      9663
      9660      9658      9661      9664      9665      9668      9671      9672
      9665      9668      9671      9673      9665      9668      9671      9674
      9666      9665      9668      9669      9666      9665      9668      9670
      9666      9665      9668      9671      9667      9665      9668      9669
      9667      9665      9668      9670      9667      9665      9668      9671
      9668      9671      9674      9675      9668      9671      9674      9676
      9668      9671      9674      9677      9669      9668      9671      9672
      9669      9668      9671      9673      9669      9668      9671      9674
      9670      9668      9671      9672      9670      9668      9671      9673
      9670      9668      9671      9674      9671      9674      9677      9678
      9671      9674      9677      9679      9671      9674      9677      9680
      9672      9671      9674      9675      9672      9671      9674      9676
      9672      9671      9674      9677      9673      9671      9674      9675
      9673      9671      9674      9676      9673      9671      9674      9677
      9674      9677      9680      9681      9674      9677      9680      9682
      9674      9677      9680      9683      9675      9674      9677      9678
      9675      9674      9677      9679      9675      9674      9677      9680
      9676      9674      9677      9678      9676      9674      9677      9679
      9676      9674      9677      9680      9677      9680      9683      9684
      9677      9680      9683      9685      9677      9680      9683      9686
      9678      9677      9680      9681      9678      9677      9680      9682
      9678      9677      9680      9683      9679      9677      9680      9681
      9679      9677      9680      9682      9679      9677      9680      9683
      9680      9683      9686      9687      9680      9683      9686      9688
      9680      9683      9686      9689      9681      9680      9683      9684
      9681      9680      9683      9685      9681      9680      9683      9686
      9682      9680      9683      9684      9682      9680      9683      9685
      9682      9680      9683      9686      9683      9686      9689      9690
      9683      9686      9689      9691      9683      9686      9689      9692
      9684      9683      9686      9687      9684      9683      9686      9688
      9684      9683      9686      9689      9685      9683      9686      9687
      9685      9683      9686      9688      9685      9683      9686      9689
      9686      9689      9692      9693      9686      9689      9692      9694
      9686      9689      9692      9695      9687      9686      9689      9690
      9687      9686      9689      9691      9687      9686      9689      9692
      9688      9686      9689      9690      9688      9686      9689      9691
      9688      9686      9689      9692      9689      9692      9695      9696
      9689      9692      9695      9697      9689      9692      9695      9698
      9690      9689      9692      9693      9690      9689      9692      9694
      9690      9689      9692      9695      9691      9689      9692      9693
      9691      9689      9692      9694      9691      9689      9692      9695
      9692      9695      9698      9699      9692      9695      9698      9700
      9692      9695      9698      9701      9693      9692      9695      9696
      9693      9692      9695      9697      9693      9692      9695      9698
      9694      9692      9695      9696      9694      9692      9695      9697
      9694      9692      9695      9698      9695      9698      9701      9702
      9695      9698      9701      9703      9695      9698      9701      9704
      9696      9695      9698      9699      9696      9695      9698      9700
      9696      9695      9698      9701      9697      9695      9698      9699
      9697      9695      9698      9700      9697      9695      9698      9701
      9698      9701      9704      9705      9698      9701      9704      9706
      9698      9701      9704      9707      9699      9698      9701      9702
      9699      9698      9701      9703      9699      9698      9701      9704
      9700      9698      9701      9702      9700      9698      9701      9703
      9700      9698      9701      9704      9702      9701      9704      9705
      9702      9701      9704      9706      9702      9701      9704      9707
      9703      9701      9704      9705      9703      9701      9704      9706
      9703      9701      9704      9707      9708      9712      9715      9716
      9708      9712      9715      9717      9708      9712      9715      9722
      9709      9708      9712      9713      9709      9708      9712      9714
      9709      9708      9712      9715      9710      9708      9712      9713
      9710      9708      9712      9714      9710      9708      9712      9715
      9711      9708      9712      9713      9711      9708      9712      9714
      9711      9708      9712      9715      9712      9715      9722      9718
      9713      9712      9715      9716      9713      9712      9715      9717
      9713      9712      9715      9722      9714      9712      9715      9716
      9714      9712      9715      9717      9714      9712      9715      9722
      9715      9722      9718      9719      9715      9722      9718      9720
      9715      9722      9718      9721      9716      9715      9722      9718
      9717      9715      9722      9718      9718      9721      9723      9724
      9718      9721      9723      9725      9718      9721      9723      9726
      9719      9718      9721      9723      9720      9718      9721      9723
      9721      9723      9726      9727      9721      9723      9726      9728
      9721      9723      9726      9734      9722      9718      9721      9723
      9723      9726      9728      9729      9723      9726      9734      9735
      9723      9726      9734      9736      9723      9726      9734      9737
      9724      9723      9726      9727      9724      9723      9726      9728
      9724      9723      9726      9734      9725      9723      9726      9727
      9725      9723      9726      9728      9725      9723      9726      9734
      9726      9728      9729      9730      9726      9728      9729      9731
      9726      9734      9737      9738      9727      9726      9728      9729
      9727      9726      9734      9735      9727      9726      9734      9736
      9727      9726      9734      9737      9728      9726      9734      9735
      9728      9726      9734      9736      9728      9726      9734      9737
      9728      9729      9731      9732      9728      9729      9731      9733
      9728      9729      9731      9743      9729      9728      9726      9734
      9729      9731      9743      9744      9729      9731      9743      9745
      9729      9731      9743      9746      9730      9729      9731      9732
      9730      9729      9731      9733      9730      9729      9731      9743
      9731      9743      9746      9747      9731      9743      9746      9748
      9731      9743      9746      9749      9732      9731      9743      9744
      9732      9731      9743      9745      9732      9731      9743      9746
      9733      9731      9743      9744      9733      9731      9743      9745
      9733      9731      9743      9746      9734      9737      9738      9739
      9734      9737      9738      9740      9735      9734      9737      9738
      9736      9734      9737      9738      9737      9738      9740      9741
      9737      9738      9740      9742      9737      9738      9740      9790
      9738      9740      9790      9791      9738      9740      9790      9792
      9738      9740      9790      9793      9739      9738      9740      9741
      9739      9738      9740      9742      9739      9738      9740      9790
      9740      9790      9793      9794      9740      9790      9793      9795
      9740      9790      9793      9796      9741      9740      9790      9791
      9741      9740      9790      9792      9741      9740      9790      9793
      9742      9740      9790      9791      9742      9740      9790      9792
      9742      9740      9790      9793      9743      9746      9749      9750
      9743      9746      9749      9751      9743      9746      9749      9752
      9744      9743      9746      9747      9744      9743      9746      9748
      9744      9743      9746      9749      9745      9743      9746      9747
      9745      9743      9746      9748      9745      9743      9746      9749
      9746      9749      9752      9753      9746      9749      9752      9754
      9746      9749      9752      9755      9747      9746      9749      9750
      9747      9746      9749      9751      9747      9746      9749      9752
      9748      9746      9749      9750      9748      9746      9749      9751
      9748      9746      9749      9752      9749      9752      9755      9756
      9749      9752      9755      9757      9749      9752      9755      9758
      9750      9749      9752      9753      9750      9749      9752      9754
      9750      9749      9752      9755      9751      9749      9752      9753
      9751      9749      9752      9754      9751      9749      9752      9755
      9752      9755      9758      9759      9752      9755      9758      9760
      9752      9755      9758      9761      9753      9752      9755      9756
      9753      9752      9755      9757      9753      9752      9755      9758
      9754      9752      9755      9756      9754      9752      9755      9757
      9754      9752      9755      9758      9755      9758      9761      9762
      9755      9758      9761      9763      9756      9755      9758      9759
      9756      9755      9758      9760      9756      9755      9758      9761
      9757      9755      9758      9759      9757      9755      9758      9760
      9757      9755      9758      9761      9758      9761      9763      9764
      9758      9761      9763      9765      9759      9758      9761      9762
      9759      9758      9761      9763      9760      9758      9761      9762
      9760      9758      9761      9763      9761      9763      9765      9766
      9761      9763      9765      9767      9761      9763      9765      9768
      9762      9761      9763      9764      9762      9761      9763      9765
      9763      9765      9768      9769      9763      9765      9768      9770
      9763      9765      9768      9771      9764      9763      9765      9766
      9764      9763      9765      9767      9764      9763      9765      9768
      9765      9768      9771      9772      9765      9768      9771      9773
      9765      9768      9771      9774      9766      9765      9768      9769
      9766      9765      9768      9770      9766      9765      9768      9771
      9767      9765      9768      9769      9767      9765      9768      9770
      9767      9765      9768      9771      9768      9771      9774      9775
      9768      9771      9774      9776      9768      9771      9774      9777
      9769      9768      9771      9772      9769      9768      9771      9773
      9769      9768      9771      9774      9770      9768      9771      9772
      9770      9768      9771      9773      9770      9768      9771      9774
      9771      9774      9777      9778      9771      9774      9777      9779
      9771      9774      9777      9780      9772      9771      9774      9775
      9772      9771      9774      9776      9772      9771      9774      9777
      9773      9771      9774      9775      9773      9771      9774      9776
      9773      9771      9774      9777      9774      9777      9780      9781
      9774      9777      9780      9782      9774      9777      9780      9783
      9775      9774      9777      9778      9775      9774      9777      9779
      9775      9774      9777      9780      9776      9774      9777      9778
      9776      9774      9777      9779      9776      9774      9777      9780
      9777      9780      9783      9784      9777      9780      9783      9785
      9777      9780      9783      9786      9778      9777      9780      9781
      9778      9777      9780      9782      9778      9777      9780      9783
      9779      9777      9780      9781      9779      9777      9780      9782
      9779      9777      9780      9783      9780      9783      9786      9787
      9780      9783      9786      9788      9780      9783      9786      9789
      9781      9780      9783      9784      9781      9780      9783      9785
      9781      9780      9783      9786      9782      9780      9783      9784
      9782      9780      9783      9785      9782      9780      9783      9786
      9784      9783      9786      9787      9784      9783      9786      9788
      9784      9783      9786      9789      9785      9783      9786      9787
      9785      9783      9786      9788      9785      9783      9786      9789
      9790      9793      9796      9797      9790      9793      9796      9798
      9790      9793      9796      9799      9791      9790      9793      9794
      9791      9790      9793      9795      9791      9790      9793      9796
      9792      9790      9793      9794      9792      9790      9793      9795
      9792      9790      9793      9796      9793      9796      9799      9800
      9793      9796      9799      9801      9793      9796      9799      9802
      9794      9793      9796      9797      9794      9793      9796      9798
      9794      9793      9796      9799      9795      9793      9796      9797
      9795      9793      9796      9798      9795      9793      9796      9799
      9796      9799      9802      9803      9796      9799      9802      9804
      9796      9799      9802      9805      9797      9796      9799      9800
      9797      9796      9799      9801      9797      9796      9799      9802
      9798      9796      9799      9800      9798      9796      9799      9801
      9798      9796      9799      9802      9799      9802      9805      9806
      9799      9802      9805      9807      9799      9802      9805      9808
      9800      9799      9802      9803      9800      9799      9802      9804
      9800      9799      9802      9805      9801      9799      9802      9803
      9801      9799      9802      9804      9801      9799      9802      9805
      9802      9805      9808      9809      9802      9805      9808      9810
      9802      9805      9808      9811      9803      9802      9805      9806
      9803      9802      9805      9807      9803      9802      9805      9808
      9804      9802      9805      9806      9804      9802      9805      9807
      9804      9802      9805      9808      9805      9808      9811      9812
      9805      9808      9811      9813      9805      9808      9811      9814
      9806      9805      9808      9809      9806      9805      9808      9810
      9806      9805      9808      9811      9807      9805      9808      9809
      9807      9805      9808      9810      9807      9805      9808      9811
      9808      9811      9814      9815      9808      9811      9814      9816
      9808      9811      9814      9817      9809      9808      9811      9812
      9809      9808      9811      9813      9809      9808      9811      9814
      9810      9808      9811      9812      9810      9808      9811      9813
      9810      9808      9811      9814      9811      9814      9817      9818
      9811      9814      9817      9819      9811      9814      9817      9820
      9812      9811      9814      9815      9812      9811      9814      9816
      9812      9811      9814      9817      9813      9811      9814      9815
      9813      9811      9814      9816      9813      9811      9814      9817
      9814      9817      9820      9821      9814      9817      9820      9822
      9814      9817      9820      9823      9815      9814      9817      9818
      9815      9814      9817      9819      9815      9814      9817      9820
      9816      9814      9817      9818      9816      9814      9817      9819
      9816      9814      9817      9820      9817      9820      9823      9824
      9817      9820      9823      9825      9817      9820      9823      9826
      9818      9817      9820      9821      9818      9817      9820      9822
      9818      9817      9820      9823      9819      9817      9820      9821
      9819      9817      9820      9822      9819      9817      9820      9823
      9820      9823      9826      9827      9820      9823      9826      9828
      9820      9823      9826      9829      9821      9820      9823      9824
      9821      9820      9823      9825      9821      9820      9823      9826
      9822      9820      9823      9824      9822      9820      9823      9825
      9822      9820      9823      9826      9823      9826      9829      9830
      9823      9826      9829      9831      9823      9826      9829      9832
      9824      9823      9826      9827      9824      9823      9826      9828
      9824      9823      9826      9829      9825      9823      9826      9827
      9825      9823      9826      9828      9825      9823      9826      9829
      9827      9826      9829      9830      9827      9826      9829      9831
      9827      9826      9829      9832      9828      9826      9829      9830
      9828      9826      9829      9831      9828      9826      9829      9832
      9833      9834      9849      9850      9833      9834      9849      9851
      9833      9834      9849      9855      9834      9833      9837      9838
      9834      9833      9837      9839      9834      9833      9837      9840
      9834      9833      9841      9842      9834      9833      9841      9843
      9834      9833      9841      9844      9834      9833      9845      9846
      9834      9833      9845      9847      9834      9833      9845      9848
      9834      9849      9855      9852      9835      9834      9833      9837
      9835      9834      9833      9841      9835      9834      9833      9845
      9835      9834      9849      9850      9835      9834      9849      9851
      9835      9834      9849      9855      9836      9834      9833      9837
      9836      9834      9833      9841      9836      9834      9833      9845
      9836      9834      9849      9850      9836      9834      9849      9851
      9836      9834      9849      9855      9837      9833      9834      9849
      9837      9833      9841      9842      9837      9833      9841      9843
      9837      9833      9841      9844      9837      9833      9845      9846
      9837      9833      9845      9847      9837      9833      9845      9848
      9838      9837      9833      9841      9838      9837      9833      9845
      9839      9837      9833      9841      9839      9837      9833      9845
      9840      9837      9833      9841      9840      9837      9833      9845
      9841      9833      9834      9849      9841      9833      9845      9846
      9841      9833      9845      9847      9841      9833      9845      9848
      9842      9841      9833      9845      9843      9841      9833      9845
      9844      9841      9833      9845      9845      9833      9834      9849
      9849      9855      9852      9853      9849      9855      9852      9854
      9849      9855      9852      9856      9850      9849      9855      9852
      9851      9849      9855      9852      9852      9856      9857      9858
      9852      9856      9857      9859      9852      9856      9857      9860
      9853      9852      9856      9857      9854      9852      9856      9857
      9855      9852      9856      9857      9856      9857      9860      9861
      9856      9857      9860      9862      9856      9857      9860      9868
      9857      9860      9862      9863      9857      9860      9868      9869
      9857      9860      9868      9870      9857      9860      9868      9871
      9858      9857      9860      9861      9858      9857      9860      9862
      9858      9857      9860      9868      9859      9857      9860      9861
      9859      9857      9860      9862      9859      9857      9860      9868
      9860      9862      9863      9864      9860      9862      9863      9865
      9860      9868      9871      9872      9861      9860      9862      9863
      9861      9860      9868      9869      9861      9860      9868      9870
      9861      9860      9868      9871      9862      9860      9868      9869
      9862      9860      9868      9870      9862      9860      9868      9871
      9862      9863      9865      9866      9862      9863      9865      9867
      9862      9863      9865      9877      9863      9862      9860      9868
      9863      9865      9877      9878      9863      9865      9877      9879
      9863      9865      9877      9880      9864      9863      9865      9866
      9864      9863      9865      9867      9864      9863      9865      9877
      9865      9877      9880      9881      9865      9877      9880      9882
      9865      9877      9880      9883      9866      9865      9877      9878
      9866      9865      9877      9879      9866      9865      9877      9880
      9867      9865      9877      9878      9867      9865      9877      9879
      9867      9865      9877      9880      9868      9871      9872      9873
      9868      9871      9872      9874      9869      9868      9871      9872
      9870      9868      9871      9872      9871      9872      9874      9875
      9871      9872      9874      9876      9871      9872      9874      9924
      9872      9874      9924      9925      9872      9874      9924      9926
      9872      9874      9924      9927      9873      9872      9874      9875
      9873      9872      9874      9876      9873      9872      9874      9924
      9874      9924      9927      9928      9874      9924      9927      9929
      9874      9924      9927      9930      9875      9874      9924      9925
      9875      9874      9924      9926      9875      9874      9924      9927
      9876      9874      9924      9925      9876      9874      9924      9926
      9876      9874      9924      9927      9877      9880      9883      9884
      9877      9880      9883      9885      9877      9880      9883      9886
      9878      9877      9880      9881      9878      9877      9880      9882
      9878      9877      9880      9883      9879      9877      9880      9881
      9879      9877      9880      9882      9879      9877      9880      9883
      9880      9883      9886      9887      9880      9883      9886      9888
      9880      9883      9886      9889      9881      9880      9883      9884
      9881      9880      9883      9885      9881      9880      9883      9886
      9882      9880      9883      9884      9882      9880      9883      9885
      9882      9880      9883      9886      9883      9886      9889      9890
      9883      9886      9889      9891      9883      9886      9889      9892
      9884      9883      9886      9887      9884      9883      9886      9888
      9884      9883      9886      9889      9885      9883      9886      9887
      9885      9883      9886      9888      9885      9883      9886      9889
      9886      9889      9892      9893      9886      9889      9892      9894
      9886      9889      9892      9895      9887      9886      9889      9890
      9887      9886      9889      9891      9887      9886      9889      9892
      9888      9886      9889      9890      9888      9886      9889      9891
      9888      9886      9889      9892      9889      9892      9895      9896
      9889      9892      9895      9897      9890      9889      9892      9893
      9890      9889      9892      9894      9890      9889      9892      9895
      9891      9889      9892      9893      9891      9889      9892      9894
      9891      9889      9892      9895      9892      9895      9897      9898
      9892      9895      9897      9899      9893      9892      9895      9896
      9893      9892      9895      9897      9894      9892      9895      9896
      9894      9892      9895      9897      9895      9897      9899      9900
      9895      9897      9899      9901      9895      9897      9899      9902
      9896      9895      9897      9898      9896      9895      9897      9899
      9897      9899      9902      9903      9897      9899      9902      9904
      9897      9899      9902      9905      9898      9897      9899      9900
      9898      9897      9899      9901      9898      9897      9899      9902
      9899      9902      9905      9906      9899      9902      9905      9907
      9899      9902      9905      9908      9900      9899      9902      9903
      9900      9899      9902      9904      9900      9899      9902      9905
      9901      9899      9902      9903      9901      9899      9902      9904
      9901      9899      9902      9905      9902      9905      9908      9909
      9902      9905      9908      9910      9902      9905      9908      9911
      9903      9902      9905      9906      9903      9902      9905      9907
      9903      9902      9905      9908      9904      9902      9905      9906
      9904      9902      9905      9907      9904      9902      9905      9908
      9905      9908      9911      9912      9905      9908      9911      9913
      9905      9908      9911      9914      9906      9905      9908      9909
      9906      9905      9908      9910      9906      9905      9908      9911
      9907      9905      9908      9909      9907      9905      9908      9910
      9907      9905      9908      9911      9908      9911      9914      9915
      9908      9911      9914      9916      9908      9911      9914      9917
      9909      9908      9911      9912      9909      9908      9911      9913
      9909      9908      9911      9914      9910      9908      9911      9912
      9910      9908      9911      9913      9910      9908      9911      9914
      9911      9914      9917      9918      9911      9914      9917      9919
      9911      9914      9917      9920      9912      9911      9914      9915
      9912      9911      9914      9916      9912      9911      9914      9917
      9913      9911      9914      9915      9913      9911      9914      9916
      9913      9911      9914      9917      9914      9917      9920      9921
      9914      9917      9920      9922      9914      9917      9920      9923
      9915      9914      9917      9918      9915      9914      9917      9919
      9915      9914      9917      9920      9916      9914      9917      9918
      9916      9914      9917      9919      9916      9914      9917      9920
      9918      9917      9920      9921      9918      9917      9920      9922
      9918      9917      9920      9923      9919      9917      9920      9921
      9919      9917      9920      9922      9919      9917      9920      9923
      9924      9927      9930      9931      9924      9927      9930      9932
      9924      9927      9930      9933      9925      9924      9927      9928
      9925      9924      9927      9929      9925      9924      9927      9930
      9926      9924      9927      9928      9926      9924      9927      9929
      9926      9924      9927      9930      9927      9930      9933      9934
      9927      9930      9933      9935      9927      9930      9933      9936
      9928      9927      9930      9931      9928      9927      9930      9932
      9928      9927      9930      9933      9929      9927      9930      9931
      9929      9927      9930      9932      9929      9927      9930      9933
      9930      9933      9936      9937      9930      9933      9936      9938
      9930      9933      9936      9939      9931      9930      9933      9934
      9931      9930      9933      9935      9931      9930      9933      9936
      9932      9930      9933      9934      9932      9930      9933      9935
      9932      9930      9933      9936      9933      9936      9939      9940
      9933      9936      9939      9941      9933      9936      9939      9942
      9934      9933      9936      9937      9934      9933      9936      9938
      9934      9933      9936      9939      9935      9933      9936      9937
      9935      9933      9936      9938      9935      9933      9936      9939
      9936      9939      9942      9943      9936      9939      9942      9944
      9936      9939      9942      9945      9937      9936      9939      9940
      9937      9936      9939      9941      9937      9936      9939      9942
      9938      9936      9939      9940      9938      9936      9939      9941
      9938      9936      9939      9942      9939      9942      9945      9946
      9939      9942      9945      9947      9939      9942      9945      9948
      9940      9939      9942      9943      9940      9939      9942      9944
      9940      9939      9942      9945      9941      9939      9942      9943
      9941      9939      9942      9944      9941      9939      9942      9945
      9942      9945      9948      9949      9942      9945      9948      9950
      9942      9945      9948      9951      9943      9942      9945      9946
      9943      9942      9945      9947      9943      9942      9945      9948
      9944      9942      9945      9946      9944      9942      9945      9947
      9944      9942      9945      9948      9945      9948      9951      9952
      9945      9948      9951      9953      9945      9948      9951      9954
      9946      9945      9948      9949      9946      9945      9948      9950
      9946      9945      9948      9951      9947      9945      9948      9949
      9947      9945      9948      9950      9947      9945      9948      9951
      9948      9951      9954      9955      9948      9951      9954      9956
      9948      9951      9954      9957      9949      9948      9951      9952
      9949      9948      9951      9953      9949      9948      9951      9954
      9950      9948      9951      9952      9950      9948      9951      9953
      9950      9948      9951      9954      9951      9954      9957      9958
      9951      9954      9957      9959      9951      9954      9957      9960
      9952      9951      9954      9955      9952      9951      9954      9956
      9952      9951      9954      9957      9953      9951      9954      9955
      9953      9951      9954      9956      9953      9951      9954      9957
      9954      9957      9960      9961      9954      9957      9960      9962
      9954      9957      9960      9963      9955      9954      9957      9958
      9955      9954      9957      9959      9955      9954      9957      9960
      9956      9954      9957      9958      9956      9954      9957      9959
      9956      9954      9957      9960      9957      9960      9963      9964
      9957      9960      9963      9965      9957      9960      9963      9966
      9958      9957      9960      9961      9958      9957      9960      9962
      9958      9957      9960      9963      9959      9957      9960      9961
      9959      9957      9960      9962      9959      9957      9960      9963
      9961      9960      9963      9964      9961      9960      9963      9965
      9961      9960      9963      9966      9962      9960      9963      9964
      9962      9960      9963      9965      9962      9960      9963      9966
      9967      9971      9974      9975      9967      9971      9974      9976
      9967      9971      9974      9981      9968      9967      9971      9972
      9968      9967      9971      9973      9968      9967      9971      9974
      9969      9967      9971      9972      9969      9967      9971      9973
      9969      9967      9971      9974      9970      9967      9971      9972
      9970      9967      9971      9973      9970      9967      9971      9974
      9971      9974      9981      9977      9972      9971      9974      9975
      9972      9971      9974      9976      9972      9971      9974      9981
      9973      9971      9974      9975      9973      9971      9974      9976
      9973      9971      9974      9981      9974      9981      9977      9978
      9974      9981      9977      9979      9974      9981      9977      9980
      9975      9974      9981      9977      9976      9974      9981      9977
      9977      9980      9982      9983      9977      9980      9982      9984
      9977      9980      9982      9985      9978      9977      9980      9982
      9979      9977      9980      9982      9980      9982      9985      9986
      9980      9982      9985      9987      9980      9982      9985      9993
      9981      9977      9980      9982      9982      9985      9987      9988
      9982      9985      9993      9994      9982      9985      9993      9995
      9982      9985      9993      9996      9983      9982      9985      9986
      9983      9982      9985      9987      9983      9982      9985      9993
      9984      9982      9985      9986      9984      9982      9985      9987
      9984      9982      9985      9993      9985      9987      9988      9989
      9985      9987      9988      9990      9985      9993      9996      9997
      9986      9985      9987      9988      9986      9985      9993      9994
      9986      9985      9993      9995      9986      9985      9993      9996
      9987      9985      9993      9994      9987      9985      9993      9995
      9987      9985      9993      9996      9987      9988      9990      9991
      9987      9988      9990      9992      9987      9988      9990     10002
      9988      9987      9985      9993      9988      9990     10002     10003
      9988      9990     10002     10004      9988      9990     10002     10005
      9989      9988      9990      9991      9989      9988      9990      9992
      9989      9988      9990     10002      9990     10002     10005     10006
      9990     10002     10005     10007      9990     10002     10005     10008
      9991      9990     10002     10003      9991      9990     10002     10004
      9991      9990     10002     10005      9992      9990     10002     10003
      9992      9990     10002     10004      9992      9990     10002     10005
      9993      9996      9997      9998      9993      9996      9997      9999
      9994      9993      9996      9997      9995      9993      9996      9997
      9996      9997      9999     10000      9996      9997      9999     10001
      9996      9997      9999     10049      9997      9999     10049     10050
      9997      9999     10049     10051      9997      9999     10049     10052
      9998      9997      9999     10000      9998      9997      9999     10001
      9998      9997      9999     10049      9999     10049     10052     10053
      9999     10049     10052     10054      9999     10049     10052     10055
     10000      9999     10049     10050     10000      9999     10049     10051
     10000      9999     10049     10052     10001      9999     10049     10050
     10001      9999     10049     10051     10001      9999     10049     10052
     10002     10005     10008     10009     10002     10005     10008     10010
     10002     10005     10008     10011     10003     10002     10005     10006
     10003     10002     10005     10007     10003     10002     10005     10008
     10004     10002     10005     10006     10004     10002     10005     10007
     10004     10002     10005     10008     10005     10008     10011     10012
     10005     10008     10011     10013     10005     10008     10011     10014
     10006     10005     10008     10009     10006     10005     10008     10010
     10006     10005     10008     10011     10007     10005     10008     10009
     10007     10005     10008     10010     10007     10005     10008     10011
     10008     10011     10014     10015     10008     10011     10014     10016
     10008     10011     10014     10017     10009     10008     10011     10012
     10009     10008     10011     10013     10009     10008     10011     10014
     10010     10008     10011     10012     10010     10008     10011     10013
     10010     10008     10011     10014     10011     10014     10017     10018
     10011     10014     10017     10019     10011     10014     10017     10020
     10012     10011     10014     10015     10012     10011     10014     10016
     10012     10011     10014     10017     10013     10011     10014     10015
     10013     10011     10014     10016     10013     10011     10014     10017
     10014     10017     10020     10021     10014     10017     10020     10022
     10015     10014     10017     10018     10015     10014     10017     10019
     10015     10014     10017     10020     10016     10014     10017     10018
     10016     10014     10017     10019     10016     10014     10017     10020
     10017     10020     10022     10023     10017     10020     10022     10024
     10018     10017     10020     10021     10018     10017     10020     10022
     10019     10017     10020     10021     10019     10017     10020     10022
     10020     10022     10024     10025     10020     10022     10024     10026
     10020     10022     10024     10027     10021     10020     10022     10023
     10021     10020     10022     10024     10022     10024     10027     10028
     10022     10024     10027     10029     10022     10024     10027     10030
     10023     10022     10024     10025     10023     10022     10024     10026
     10023     10022     10024     10027     10024     10027     10030     10031
     10024     10027     10030     10032     10024     10027     10030     10033
     10025     10024     10027     10028     10025     10024     10027     10029
     10025     10024     10027     10030     10026     10024     10027     10028
     10026     10024     10027     10029     10026     10024     10027     10030
     10027     10030     10033     10034     10027     10030     10033     10035
     10027     10030     10033     10036     10028     10027     10030     10031
     10028     10027     10030     10032     10028     10027     10030     10033
     10029     10027     10030     10031     10029     10027     10030     10032
     10029     10027     10030     10033     10030     10033     10036     10037
     10030     10033     10036     10038     10030     10033     10036     10039
     10031     10030     10033     10034     10031     10030     10033     10035
     10031     10030     10033     10036     10032     10030     10033     10034
     10032     10030     10033     10035     10032     10030     10033     10036
     10033     10036     10039     10040     10033     10036     10039     10041
     10033     10036     10039     10042     10034     10033     10036     10037
     10034     10033     10036     10038     10034     10033     10036     10039
     10035     10033     10036     10037     10035     10033     10036     10038
     10035     10033     10036     10039     10036     10039     10042     10043
     10036     10039     10042     10044     10036     10039     10042     10045
     10037     10036     10039     10040     10037     10036     10039     10041
     10037     10036     10039     10042     10038     10036     10039     10040
     10038     10036     10039     10041     10038     10036     10039     10042
     10039     10042     10045     10046     10039     10042     10045     10047
     10039     10042     10045     10048     10040     10039     10042     10043
     10040     10039     10042     10044     10040     10039     10042     10045
     10041     10039     10042     10043     10041     10039     10042     10044
     10041     10039     10042     10045     10043     10042     10045     10046
     10043     10042     10045     10047     10043     10042     10045     10048
     10044     10042     10045     10046     10044     10042     10045     10047
     10044     10042     10045     10048     10049     10052     10055     10056
     10049     10052     10055     10057     10049     10052     10055     10058
     10050     10049     10052     10053     10050     10049     10052     10054
     10050     10049     10052     10055     10051     10049     10052     10053
     10051     10049     10052     10054     10051     10049     10052     10055
     10052     10055     10058     10059     10052     10055     10058     10060
     10052     10055     10058     10061     10053     10052     10055     10056
     10053     10052     10055     10057     10053     10052     10055     10058
     10054     10052     10055     10056     10054     10052     10055     10057
     10054     10052     10055     10058     10055     10058     10061     10062
     10055     10058     10061     10063     10055     10058     10061     10064
     10056     10055     10058     10059     10056     10055     10058     10060
     10056     10055     10058     10061     10057     10055     10058     10059
     10057     10055     10058     10060     10057     10055     10058     10061
     10058     10061     10064     10065     10058     10061     10064     10066
     10058     10061     10064     10067     10059     10058     10061     10062
     10059     10058     10061     10063     10059     10058     10061     10064
     10060     10058     10061     10062     10060     10058     10061     10063
     10060     10058     10061     10064     10061     10064     10067     10068
     10061     10064     10067     10069     10061     10064     10067     10070
     10062     10061     10064     10065     10062     10061     10064     10066
     10062     10061     10064     10067     10063     10061     10064     10065
     10063     10061     10064     10066     10063     10061     10064     10067
     10064     10067     10070     10071     10064     10067     10070     10072
     10064     10067     10070     10073     10065     10064     10067     10068
     10065     10064     10067     10069     10065     10064     10067     10070
     10066     10064     10067     10068     10066     10064     10067     10069
     10066     10064     10067     10070     10067     10070     10073     10074
     10067     10070     10073     10075     10067     10070     10073     10076
     10068     10067     10070     10071     10068     10067     10070     10072
     10068     10067     10070     10073     10069     10067     10070     10071
     10069     10067     10070     10072     10069     10067     10070     10073
     10070     10073     10076     10077     10070     10073     10076     10078
     10070     10073     10076     10079     10071     10070     10073     10074
     10071     10070     10073     10075     10071     10070     10073     10076
     10072     10070     10073     10074     10072     10070     10073     10075
     10072     10070     10073     10076     10073     10076     10079     10080
     10073     10076     10079     10081     10073     10076     10079     10082
     10074     10073     10076     10077     10074     10073     10076     10078
     10074     10073     10076     10079     10075     10073     10076     10077
     10075     10073     10076     10078     10075     10073     10076     10079
     10076     10079     10082     10083     10076     10079     10082     10084
     10076     10079     10082     10085     10077     10076     10079     10080
     10077     10076     10079     10081     10077     10076     10079     10082
     10078     10076     10079     10080     10078     10076     10079     10081
     10078     10076     10079     10082     10079     10082     10085     10086
     10079     10082     10085     10087     10079     10082     10085     10088
     10080     10079     10082     10083     10080     10079     10082     10084
     10080     10079     10082     10085     10081     10079     10082     10083
     10081     10079     10082     10084     10081     10079     10082     10085
     10082     10085     10088     10089     10082     10085     10088     10090
     10082     10085     10088     10091     10083     10082     10085     10086
     10083     10082     10085     10087     10083     10082     10085     10088
     10084     10082     10085     10086     10084     10082     10085     10087
     10084     10082     10085     10088     10086     10085     10088     10089
     10086     10085     10088     10090     10086     10085     10088     10091
     10087     10085     10088     10089     10087     10085     10088     10090
     10087     10085     10088     10091     10092     10096     10099     10100
     10092     10096     10099     10101     10092     10096     10099     10106
     10093     10092     10096     10097     10093     10092     10096     10098
     10093     10092     10096     10099     10094     10092     10096     10097
     10094     10092     10096     10098     10094     10092     10096     10099
     10095     10092     10096     10097     10095     10092     10096     10098
     10095     10092     10096     10099     10096     10099     10106     10102
     10097     10096     10099     10100     10097     10096     10099     10101
     10097     10096     10099     10106     10098     10096     10099     10100
     10098     10096     10099     10101     10098     10096     10099     10106
     10099     10106     10102     10103     10099     10106     10102     10104
     10099     10106     10102     10105     10100     10099     10106     10102
     10101     10099     10106     10102     10102     10105     10107     10108
     10102     10105     10107     10109     10102     10105     10107     10110
     10103     10102     10105     10107     10104     10102     10105     10107
     10105     10107     10110     10111     10105     10107     10110     10112
     10105     10107     10110     10118     10106     10102     10105     10107
     10107     10110     10112     10113     10107     10110     10118     10119
     10107     10110     10118     10120     10107     10110     10118     10121
     10108     10107     10110     10111     10108     10107     10110     10112
     10108     10107     10110     10118     10109     10107     10110     10111
     10109     10107     10110     10112     10109     10107     10110     10118
     10110     10112     10113     10114     10110     10112     10113     10115
     10110     10118     10121     10122     10111     10110     10112     10113
     10111     10110     10118     10119     10111     10110     10118     10120
     10111     10110     10118     10121     10112     10110     10118     10119
     10112     10110     10118     10120     10112     10110     10118     10121
     10112     10113     10115     10116     10112     10113     10115     10117
     10112     10113     10115     10127     10113     10112     10110     10118
     10113     10115     10127     10128     10113     10115     10127     10129
     10113     10115     10127     10130     10114     10113     10115     10116
     10114     10113     10115     10117     10114     10113     10115     10127
     10115     10127     10130     10131     10115     10127     10130     10132
     10115     10127     10130     10133     10116     10115     10127     10128
     10116     10115     10127     10129     10116     10115     10127     10130
     10117     10115     10127     10128     10117     10115     10127     10129
     10117     10115     10127     10130     10118     10121     10122     10123
     10118     10121     10122     10124     10119     10118     10121     10122
     10120     10118     10121     10122     10121     10122     10124     10125
     10121     10122     10124     10126     10121     10122     10124     10174
     10122     10124     10174     10175     10122     10124     10174     10176
     10122     10124     10174     10177     10123     10122     10124     10125
     10123     10122     10124     10126     10123     10122     10124     10174
     10124     10174     10177     10178     10124     10174     10177     10179
     10124     10174     10177     10180     10125     10124     10174     10175
     10125     10124     10174     10176     10125     10124     10174     10177
     10126     10124     10174     10175     10126     10124     10174     10176
     10126     10124     10174     10177     10127     10130     10133     10134
     10127     10130     10133     10135     10127     10130     10133     10136
     10128     10127     10130     10131     10128     10127     10130     10132
     10128     10127     10130     10133     10129     10127     10130     10131
     10129     10127     10130     10132     10129     10127     10130     10133
     10130     10133     10136     10137     10130     10133     10136     10138
     10130     10133     10136     10139     10131     10130     10133     10134
     10131     10130     10133     10135     10131     10130     10133     10136
     10132     10130     10133     10134     10132     10130     10133     10135
     10132     10130     10133     10136     10133     10136     10139     10140
     10133     10136     10139     10141     10133     10136     10139     10142
     10134     10133     10136     10137     10134     10133     10136     10138
     10134     10133     10136     10139     10135     10133     10136     10137
     10135     10133     10136     10138     10135     10133     10136     10139
     10136     10139     10142     10143     10136     10139     10142     10144
     10136     10139     10142     10145     10137     10136     10139     10140
     10137     10136     10139     10141     10137     10136     10139     10142
     10138     10136     10139     10140     10138     10136     10139     10141
     10138     10136     10139     10142     10139     10142     10145     10146
     10139     10142     10145     10147     10140     10139     10142     10143
     10140     10139     10142     10144     10140     10139     10142     10145
     10141     10139     10142     10143     10141     10139     10142     10144
     10141     10139     10142     10145     10142     10145     10147     10148
     10142     10145     10147     10149     10143     10142     10145     10146
     10143     10142     10145     10147     10144     10142     10145     10146
     10144     10142     10145     10147     10145     10147     10149     10150
     10145     10147     10149     10151     10145     10147     10149     10152
     10146     10145     10147     10148     10146     10145     10147     10149
     10147     10149     10152     10153     10147     10149     10152     10154
     10147     10149     10152     10155     10148     10147     10149     10150
     10148     10147     10149     10151     10148     10147     10149     10152
     10149     10152     10155     10156     10149     10152     10155     10157
     10149     10152     10155     10158     10150     10149     10152     10153
     10150     10149     10152     10154     10150     10149     10152     10155
     10151     10149     10152     10153     10151     10149     10152     10154
     10151     10149     10152     10155     10152     10155     10158     10159
     10152     10155     10158     10160     10152     10155     10158     10161
     10153     10152     10155     10156     10153     10152     10155     10157
     10153     10152     10155     10158     10154     10152     10155     10156
     10154     10152     10155     10157     10154     10152     10155     10158
     10155     10158     10161     10162     10155     10158     10161     10163
     10155     10158     10161     10164     10156     10155     10158     10159
     10156     10155     10158     10160     10156     10155     10158     10161
     10157     10155     10158     10159     10157     10155     10158     10160
     10157     10155     10158     10161     10158     10161     10164     10165
     10158     10161     10164     10166     10158     10161     10164     10167
     10159     10158     10161     10162     10159     10158     10161     10163
     10159     10158     10161     10164     10160     10158     10161     10162
     10160     10158     10161     10163     10160     10158     10161     10164
     10161     10164     10167     10168     10161     10164     10167     10169
     10161     10164     10167     10170     10162     10161     10164     10165
     10162     10161     10164     10166     10162     10161     10164     10167
     10163     10161     10164     10165     10163     10161     10164     10166
     10163     10161     10164     10167     10164     10167     10170     10171
     10164     10167     10170     10172     10164     10167     10170     10173
     10165     10164     10167     10168     10165     10164     10167     10169
     10165     10164     10167     10170     10166     10164     10167     10168
     10166     10164     10167     10169     10166     10164     10167     10170
     10168     10167     10170     10171     10168     10167     10170     10172
     10168     10167     10170     10173     10169     10167     10170     10171
     10169     10167     10170     10172     10169     10167     10170     10173
     10174     10177     10180     10181     10174     10177     10180     10182
     10174     10177     10180     10183     10175     10174     10177     10178
     10175     10174     10177     10179     10175     10174     10177     10180
     10176     10174     10177     10178     10176     10174     10177     10179
     10176     10174     10177     10180     10177     10180     10183     10184
     10177     10180     10183     10185     10177     10180     10183     10186
     10178     10177     10180     10181     10178     10177     10180     10182
     10178     10177     10180     10183     10179     10177     10180     10181
     10179     10177     10180     10182     10179     10177     10180     10183
     10180     10183     10186     10187     10180     10183     10186     10188
     10180     10183     10186     10189     10181     10180     10183     10184
     10181     10180     10183     10185     10181     10180     10183     10186
     10182     10180     10183     10184     10182     10180     10183     10185
     10182     10180     10183     10186     10183     10186     10189     10190
     10183     10186     10189     10191     10183     10186     10189     10192
     10184     10183     10186     10187     10184     10183     10186     10188
     10184     10183     10186     10189     10185     10183     10186     10187
     10185     10183     10186     10188     10185     10183     10186     10189
     10186     10189     10192     10193     10186     10189     10192     10194
     10186     10189     10192     10195     10187     10186     10189     10190
     10187     10186     10189     10191     10187     10186     10189     10192
     10188     10186     10189     10190     10188     10186     10189     10191
     10188     10186     10189     10192     10189     10192     10195     10196
     10189     10192     10195     10197     10189     10192     10195     10198
     10190     10189     10192     10193     10190     10189     10192     10194
     10190     10189     10192     10195     10191     10189     10192     10193
     10191     10189     10192     10194     10191     10189     10192     10195
     10192     10195     10198     10199     10192     10195     10198     10200
     10192     10195     10198     10201     10193     10192     10195     10196
     10193     10192     10195     10197     10193     10192     10195     10198
     10194     10192     10195     10196     10194     10192     10195     10197
     10194     10192     10195     10198     10195     10198     10201     10202
     10195     10198     10201     10203     10195     10198     10201     10204
     10196     10195     10198     10199     10196     10195     10198     10200
     10196     10195     10198     10201     10197     10195     10198     10199
     10197     10195     10198     10200     10197     10195     10198     10201
     10198     10201     10204     10205     10198     10201     10204     10206
     10198     10201     10204     10207     10199     10198     10201     10202
     10199     10198     10201     10203     10199     10198     10201     10204
     10200     10198     10201     10202     10200     10198     10201     10203
     10200     10198     10201     10204     10201     10204     10207     10208
     10201     10204     10207     10209     10201     10204     10207     10210
     10202     10201     10204     10205     10202     10201     10204     10206
     10202     10201     10204     10207     10203     10201     10204     10205
     10203     10201     10204     10206     10203     10201     10204     10207
     10204     10207     10210     10211     10204     10207     10210     10212
     10204     10207     10210     10213     10205     10204     10207     10208
     10205     10204     10207     10209     10205     10204     10207     10210
     10206     10204     10207     10208     10206     10204     10207     10209
     10206     10204     10207     10210     10207     10210     10213     10214
     10207     10210     10213     10215     10207     10210     10213     10216
     10208     10207     10210     10211     10208     10207     10210     10212
     10208     10207     10210     10213     10209     10207     10210     10211
     10209     10207     10210     10212     10209     10207     10210     10213
     10211     10210     10213     10214     10211     10210     10213     10215
     10211     10210     10213     10216     10212     10210     10213     10214
     10212     10210     10213     10215     10212     10210     10213     10216
     10217     10218     10233     10234     10217     10218     10233     10235
     10217     10218     10233     10239     10218     10217     10221     10222
     10218     10217     10221     10223     10218     10217     10221     10224
     10218     10217     10225     10226     10218     10217     10225     10227
     10218     10217     10225     10228     10218     10217     10229     10230
     10218     10217     10229     10231     10218     10217     10229     10232
     10218     10233     10239     10236     10219     10218     10217     10221
     10219     10218     10217     10225     10219     10218     10217     10229
     10219     10218     10233     10234     10219     10218     10233     10235
     10219     10218     10233     10239     10220     10218     10217     10221
     10220     10218     10217     10225     10220     10218     10217     10229
     10220     10218     10233     10234     10220     10218     10233     10235
     10220     10218     10233     10239     10221     10217     10218     10233
     10221     10217     10225     10226     10221     10217     10225     10227
     10221     10217     10225     10228     10221     10217     10229     10230
     10221     10217     10229     10231     10221     10217     10229     10232
     10222     10221     10217     10225     10222     10221     10217     10229
     10223     10221     10217     10225     10223     10221     10217     10229
     10224     10221     10217     10225     10224     10221     10217     10229
     10225     10217     10218     10233     10225     10217     10229     10230
     10225     10217     10229     10231     10225     10217     10229     10232
     10226     10225     10217     10229     10227     10225     10217     10229
     10228     10225     10217     10229     10229     10217     10218     10233
     10233     10239     10236     10237     10233     10239     10236     10238
     10233     10239     10236     10240     10234     10233     10239     10236
     10235     10233     10239     10236     10236     10240     10241     10242
     10236     10240     10241     10243     10236     10240     10241     10244
     10237     10236     10240     10241     10238     10236     10240     10241
     10239     10236     10240     10241     10240     10241     10244     10245
     10240     10241     10244     10246     10240     10241     10244     10252
     10241     10244     10246     10247     10241     10244     10252     10253
     10241     10244     10252     10254     10241     10244     10252     10255
     10242     10241     10244     10245     10242     10241     10244     10246
     10242     10241     10244     10252     10243     10241     10244     10245
     10243     10241     10244     10246     10243     10241     10244     10252
     10244     10246     10247     10248     10244     10246     10247     10249
     10244     10252     10255     10256     10245     10244     10246     10247
     10245     10244     10252     10253     10245     10244     10252     10254
     10245     10244     10252     10255     10246     10244     10252     10253
     10246     10244     10252     10254     10246     10244     10252     10255
     10246     10247     10249     10250     10246     10247     10249     10251
     10246     10247     10249     10261     10247     10246     10244     10252
     10247     10249     10261     10262     10247     10249     10261     10263
     10247     10249     10261     10264     10248     10247     10249     10250
     10248     10247     10249     10251     10248     10247     10249     10261
     10249     10261     10264     10265     10249     10261     10264     10266
     10249     10261     10264     10267     10250     10249     10261     10262
     10250     10249     10261     10263     10250     10249     10261     10264
     10251     10249     10261     10262     10251     10249     10261     10263
     10251     10249     10261     10264     10252     10255     10256     10257
     10252     10255     10256     10258     10253     10252     10255     10256
     10254     10252     10255     10256     10255     10256     10258     10259
     10255     10256     10258     10260     10255     10256     10258     10308
     10256     10258     10308     10309     10256     10258     10308     10310
     10256     10258     10308     10311     10257     10256     10258     10259
     10257     10256     10258     10260     10257     10256     10258     10308
     10258     10308     10311     10312     10258     10308     10311     10313
     10258     10308     10311     10314     10259     10258     10308     10309
     10259     10258     10308     10310     10259     10258     10308     10311
     10260     10258     10308     10309     10260     10258     10308     10310
     10260     10258     10308     10311     10261     10264     10267     10268
     10261     10264     10267     10269     10261     10264     10267     10270
     10262     10261     10264     10265     10262     10261     10264     10266
     10262     10261     10264     10267     10263     10261     10264     10265
     10263     10261     10264     10266     10263     10261     10264     10267
     10264     10267     10270     10271     10264     10267     10270     10272
     10264     10267     10270     10273     10265     10264     10267     10268
     10265     10264     10267     10269     10265     10264     10267     10270
     10266     10264     10267     10268     10266     10264     10267     10269
     10266     10264     10267     10270     10267     10270     10273     10274
     10267     10270     10273     10275     10267     10270     10273     10276
     10268     10267     10270     10271     10268     10267     10270     10272
     10268     10267     10270     10273     10269     10267     10270     10271
     10269     10267     10270     10272     10269     10267     10270     10273
     10270     10273     10276     10277     10270     10273     10276     10278
     10270     10273     10276     10279     10271     10270     10273     10274
     10271     10270     10273     10275     10271     10270     10273     10276
     10272     10270     10273     10274     10272     10270     10273     10275
     10272     10270     10273     10276     10273     10276     10279     10280
     10273     10276     10279     10281     10274     10273     10276     10277
     10274     10273     10276     10278     10274     10273     10276     10279
     10275     10273     10276     10277     10275     10273     10276     10278
     10275     10273     10276     10279     10276     10279     10281     10282
     10276     10279     10281     10283     10277     10276     10279     10280
     10277     10276     10279     10281     10278     10276     10279     10280
     10278     10276     10279     10281     10279     10281     10283     10284
     10279     10281     10283     10285     10279     10281     10283     10286
     10280     10279     10281     10282     10280     10279     10281     10283
     10281     10283     10286     10287     10281     10283     10286     10288
     10281     10283     10286     10289     10282     10281     10283     10284
     10282     10281     10283     10285     10282     10281     10283     10286
     10283     10286     10289     10290     10283     10286     10289     10291
     10283     10286     10289     10292     10284     10283     10286     10287
     10284     10283     10286     10288     10284     10283     10286     10289
     10285     10283     10286     10287     10285     10283     10286     10288
     10285     10283     10286     10289     10286     10289     10292     10293
     10286     10289     10292     10294     10286     10289     10292     10295
     10287     10286     10289     10290     10287     10286     10289     10291
     10287     10286     10289     10292     10288     10286     10289     10290
     10288     10286     10289     10291     10288     10286     10289     10292
     10289     10292     10295     10296     10289     10292     10295     10297
     10289     10292     10295     10298     10290     10289     10292     10293
     10290     10289     10292     10294     10290     10289     10292     10295
     10291     10289     10292     10293     10291     10289     10292     10294
     10291     10289     10292     10295     10292     10295     10298     10299
     10292     10295     10298     10300     10292     10295     10298     10301
     10293     10292     10295     10296     10293     10292     10295     10297
     10293     10292     10295     10298     10294     10292     10295     10296
     10294     10292     10295     10297     10294     10292     10295     10298
     10295     10298     10301     10302     10295     10298     10301     10303
     10295     10298     10301     10304     10296     10295     10298     10299
     10296     10295     10298     10300     10296     10295     10298     10301
     10297     10295     10298     10299     10297     10295     10298     10300
     10297     10295     10298     10301     10298     10301     10304     10305
     10298     10301     10304     10306     10298     10301     10304     10307
     10299     10298     10301     10302     10299     10298     10301     10303
     10299     10298     10301     10304     10300     10298     10301     10302
     10300     10298     10301     10303     10300     10298     10301     10304
     10302     10301     10304     10305     10302     10301     10304     10306
     10302     10301     10304     10307     10303     10301     10304     10305
     10303     10301     10304     10306     10303     10301     10304     10307
     10308     10311     10314     10315     10308     10311     10314     10316
     10308     10311     10314     10317     10309     10308     10311     10312
     10309     10308     10311     10313     10309     10308     10311     10314
     10310     10308     10311     10312     10310     10308     10311     10313
     10310     10308     10311     10314     10311     10314     10317     10318
     10311     10314     10317     10319     10311     10314     10317     10320
     10312     10311     10314     10315     10312     10311     10314     10316
     10312     10311     10314     10317     10313     10311     10314     10315
     10313     10311     10314     10316     10313     10311     10314     10317
     10314     10317     10320     10321     10314     10317     10320     10322
     10314     10317     10320     10323     10315     10314     10317     10318
     10315     10314     10317     10319     10315     10314     10317     10320
     10316     10314     10317     10318     10316     10314     10317     10319
     10316     10314     10317     10320     10317     10320     10323     10324
     10317     10320     10323     10325     10317     10320     10323     10326
     10318     10317     10320     10321     10318     10317     10320     10322
     10318     10317     10320     10323     10319     10317     10320     10321
     10319     10317     10320     10322     10319     10317     10320     10323
     10320     10323     10326     10327     10320     10323     10326     10328
     10320     10323     10326     10329     10321     10320     10323     10324
     10321     10320     10323     10325     10321     10320     10323     10326
     10322     10320     10323     10324     10322     10320     10323     10325
     10322     10320     10323     10326     10323     10326     10329     10330
     10323     10326     10329     10331     10323     10326     10329     10332
     10324     10323     10326     10327     10324     10323     10326     10328
     10324     10323     10326     10329     10325     10323     10326     10327
     10325     10323     10326     10328     10325     10323     10326     10329
     10326     10329     10332     10333     10326     10329     10332     10334
     10326     10329     10332     10335     10327     10326     10329     10330
     10327     10326     10329     10331     10327     10326     10329     10332
     10328     10326     10329     10330     10328     10326     10329     10331
     10328     10326     10329     10332     10329     10332     10335     10336
     10329     10332     10335     10337     10329     10332     10335     10338
     10330     10329     10332     10333     10330     10329     10332     10334
     10330     10329     10332     10335     10331     10329     10332     10333
     10331     10329     10332     10334     10331     10329     10332     10335
     10332     10335     10338     10339     10332     10335     10338     10340
     10332     10335     10338     10341     10333     10332     10335     10336
     10333     10332     10335     10337     10333     10332     10335     10338
     10334     10332     10335     10336     10334     10332     10335     10337
     10334     10332     10335     10338     10335     10338     10341     10342
     10335     10338     10341     10343     10335     10338     10341     10344
     10336     10335     10338     10339     10336     10335     10338     10340
     10336     10335     10338     10341     10337     10335     10338     10339
     10337     10335     10338     10340     10337     10335     10338     10341
     10338     10341     10344     10345     10338     10341     10344     10346
     10338     10341     10344     10347     10339     10338     10341     10342
     10339     10338     10341     10343     10339     10338     10341     10344
     10340     10338     10341     10342     10340     10338     10341     10343
     10340     10338     10341     10344     10341     10344     10347     10348
     10341     10344     10347     10349     10341     10344     10347     10350
     10342     10341     10344     10345     10342     10341     10344     10346
     10342     10341     10344     10347     10343     10341     10344     10345
     10343     10341     10344     10346     10343     10341     10344     10347
     10345     10344     10347     10348     10345     10344     10347     10349
     10345     10344     10347     10350     10346     10344     10347     10348
     10346     10344     10347     10349     10346     10344     10347     10350
     10351     10355     10358     10359     10351     10355     10358     10360
     10351     10355     10358     10365     10352     10351     10355     10356
     10352     10351     10355     10357     10352     10351     10355     10358
     10353     10351     10355     10356     10353     10351     10355     10357
     10353     10351     10355     10358     10354     10351     10355     10356
     10354     10351     10355     10357     10354     10351     10355     10358
     10355     10358     10365     10361     10356     10355     10358     10359
     10356     10355     10358     10360     10356     10355     10358     10365
     10357     10355     10358     10359     10357     10355     10358     10360
     10357     10355     10358     10365     10358     10365     10361     10362
     10358     10365     10361     10363     10358     10365     10361     10364
     10359     10358     10365     10361     10360     10358     10365     10361
     10361     10364     10366     10367     10361     10364     10366     10368
     10361     10364     10366     10369     10362     10361     10364     10366
     10363     10361     10364     10366     10364     10366     10369     10370
     10364     10366     10369     10371     10364     10366     10369     10377
     10365     10361     10364     10366     10366     10369     10371     10372
     10366     10369     10377     10378     10366     10369     10377     10379
     10366     10369     10377     10380     10367     10366     10369     10370
     10367     10366     10369     10371     10367     10366     10369     10377
     10368     10366     10369     10370     10368     10366     10369     10371
     10368     10366     10369     10377     10369     10371     10372     10373
     10369     10371     10372     10374     10369     10377     10380     10381
     10370     10369     10371     10372     10370     10369     10377     10378
     10370     10369     10377     10379     10370     10369     10377     10380
     10371     10369     10377     10378     10371     10369     10377     10379
     10371     10369     10377     10380     10371     10372     10374     10375
     10371     10372     10374     10376     10371     10372     10374     10386
     10372     10371     10369     10377     10372     10374     10386     10387
     10372     10374     10386     10388     10372     10374     10386     10389
     10373     10372     10374     10375     10373     10372     10374     10376
     10373     10372     10374     10386     10374     10386     10389     10390
     10374     10386     10389     10391     10374     10386     10389     10392
     10375     10374     10386     10387     10375     10374     10386     10388
     10375     10374     10386     10389     10376     10374     10386     10387
     10376     10374     10386     10388     10376     10374     10386     10389
     10377     10380     10381     10382     10377     10380     10381     10383
     10378     10377     10380     10381     10379     10377     10380     10381
     10380     10381     10383     10384     10380     10381     10383     10385
     10380     10381     10383     10433     10381     10383     10433     10434
     10381     10383     10433     10435     10381     10383     10433     10436
     10382     10381     10383     10384     10382     10381     10383     10385
     10382     10381     10383     10433     10383     10433     10436     10437
     10383     10433     10436     10438     10383     10433     10436     10439
     10384     10383     10433     10434     10384     10383     10433     10435
     10384     10383     10433     10436     10385     10383     10433     10434
     10385     10383     10433     10435     10385     10383     10433     10436
     10386     10389     10392     10393     10386     10389     10392     10394
     10386     10389     10392     10395     10387     10386     10389     10390
     10387     10386     10389     10391     10387     10386     10389     10392
     10388     10386     10389     10390     10388     10386     10389     10391
     10388     10386     10389     10392     10389     10392     10395     10396
     10389     10392     10395     10397     10389     10392     10395     10398
     10390     10389     10392     10393     10390     10389     10392     10394
     10390     10389     10392     10395     10391     10389     10392     10393
     10391     10389     10392     10394     10391     10389     10392     10395
     10392     10395     10398     10399     10392     10395     10398     10400
     10392     10395     10398     10401     10393     10392     10395     10396
     10393     10392     10395     10397     10393     10392     10395     10398
     10394     10392     10395     10396     10394     10392     10395     10397
     10394     10392     10395     10398     10395     10398     10401     10402
     10395     10398     10401     10403     10395     10398     10401     10404
     10396     10395     10398     10399     10396     10395     10398     10400
     10396     10395     10398     10401     10397     10395     10398     10399
     10397     10395     10398     10400     10397     10395     10398     10401
     10398     10401     10404     10405     10398     10401     10404     10406
     10399     10398     10401     10402     10399     10398     10401     10403
     10399     10398     10401     10404     10400     10398     10401     10402
     10400     10398     10401     10403     10400     10398     10401     10404
     10401     10404     10406     10407     10401     10404     10406     10408
     10402     10401     10404     10405     10402     10401     10404     10406
     10403     10401     10404     10405     10403     10401     10404     10406
     10404     10406     10408     10409     10404     10406     10408     10410
     10404     10406     10408     10411     10405     10404     10406     10407
     10405     10404     10406     10408     10406     10408     10411     10412
     10406     10408     10411     10413     10406     10408     10411     10414
     10407     10406     10408     10409     10407     10406     10408     10410
     10407     10406     10408     10411     10408     10411     10414     10415
     10408     10411     10414     10416     10408     10411     10414     10417
     10409     10408     10411     10412     10409     10408     10411     10413
     10409     10408     10411     10414     10410     10408     10411     10412
     10410     10408     10411     10413     10410     10408     10411     10414
     10411     10414     10417     10418     10411     10414     10417     10419
     10411     10414     10417     10420     10412     10411     10414     10415
     10412     10411     10414     10416     10412     10411     10414     10417
     10413     10411     10414     10415     10413     10411     10414     10416
     10413     10411     10414     10417     10414     10417     10420     10421
     10414     10417     10420     10422     10414     10417     10420     10423
     10415     10414     10417     10418     10415     10414     10417     10419
     10415     10414     10417     10420     10416     10414     10417     10418
     10416     10414     10417     10419     10416     10414     10417     10420
     10417     10420     10423     10424     10417     10420     10423     10425
     10417     10420     10423     10426     10418     10417     10420     10421
     10418     10417     10420     10422     10418     10417     10420     10423
     10419     10417     10420     10421     10419     10417     10420     10422
     10419     10417     10420     10423     10420     10423     10426     10427
     10420     10423     10426     10428     10420     10423     10426     10429
     10421     10420     10423     10424     10421     10420     10423     10425
     10421     10420     10423     10426     10422     10420     10423     10424
     10422     10420     10423     10425     10422     10420     10423     10426
     10423     10426     10429     10430     10423     10426     10429     10431
     10423     10426     10429     10432     10424     10423     10426     10427
     10424     10423     10426     10428     10424     10423     10426     10429
     10425     10423     10426     10427     10425     10423     10426     10428
     10425     10423     10426     10429     10427     10426     10429     10430
     10427     10426     10429     10431     10427     10426     10429     10432
     10428     10426     10429     10430     10428     10426     10429     10431
     10428     10426     10429     10432     10433     10436     10439     10440
     10433     10436     10439     10441     10433     10436     10439     10442
     10434     10433     10436     10437     10434     10433     10436     10438
     10434     10433     10436     10439     10435     10433     10436     10437
     10435     10433     10436     10438     10435     10433     10436     10439
     10436     10439     10442     10443     10436     10439     10442     10444
     10436     10439     10442     10445     10437     10436     10439     10440
     10437     10436     10439     10441     10437     10436     10439     10442
     10438     10436     10439     10440     10438     10436     10439     10441
     10438     10436     10439     10442     10439     10442     10445     10446
     10439     10442     10445     10447     10439     10442     10445     10448
     10440     10439     10442     10443     10440     10439     10442     10444
     10440     10439     10442     10445     10441     10439     10442     10443
     10441     10439     10442     10444     10441     10439     10442     10445
     10442     10445     10448     10449     10442     10445     10448     10450
     10442     10445     10448     10451     10443     10442     10445     10446
     10443     10442     10445     10447     10443     10442     10445     10448
     10444     10442     10445     10446     10444     10442     10445     10447
     10444     10442     10445     10448     10445     10448     10451     10452
     10445     10448     10451     10453     10445     10448     10451     10454
     10446     10445     10448     10449     10446     10445     10448     10450
     10446     10445     10448     10451     10447     10445     10448     10449
     10447     10445     10448     10450     10447     10445     10448     10451
     10448     10451     10454     10455     10448     10451     10454     10456
     10448     10451     10454     10457     10449     10448     10451     10452
     10449     10448     10451     10453     10449     10448     10451     10454
     10450     10448     10451     10452     10450     10448     10451     10453
     10450     10448     10451     10454     10451     10454     10457     10458
     10451     10454     10457     10459     10451     10454     10457     10460
     10452     10451     10454     10455     10452     10451     10454     10456
     10452     10451     10454     10457     10453     10451     10454     10455
     10453     10451     10454     10456     10453     10451     10454     10457
     10454     10457     10460     10461     10454     10457     10460     10462
     10454     10457     10460     10463     10455     10454     10457     10458
     10455     10454     10457     10459     10455     10454     10457     10460
     10456     10454     10457     10458     10456     10454     10457     10459
     10456     10454     10457     10460     10457     10460     10463     10464
     10457     10460     10463     10465     10457     10460     10463     10466
     10458     10457     10460     10461     10458     10457     10460     10462
     10458     10457     10460     10463     10459     10457     10460     10461
     10459     10457     10460     10462     10459     10457     10460     10463
     10460     10463     10466     10467     10460     10463     10466     10468
     10460     10463     10466     10469     10461     10460     10463     10464
     10461     10460     10463     10465     10461     10460     10463     10466
     10462     10460     10463     10464     10462     10460     10463     10465
     10462     10460     10463     10466     10463     10466     10469     10470
     10463     10466     10469     10471     10463     10466     10469     10472
     10464     10463     10466     10467     10464     10463     10466     10468
     10464     10463     10466     10469     10465     10463     10466     10467
     10465     10463     10466     10468     10465     10463     10466     10469
     10466     10469     10472     10473     10466     10469     10472     10474
     10466     10469     10472     10475     10467     10466     10469     10470
     10467     10466     10469     10471     10467     10466     10469     10472
     10468     10466     10469     10470     10468     10466     10469     10471
     10468     10466     10469     10472     10470     10469     10472     10473
     10470     10469     10472     10474     10470     10469     10472     10475
     10471     10469     10472     10473     10471     10469     10472     10474
     10471     10469     10472     10475     10476     10480     10483     10484
     10476     10480     10483     10485     10476     10480     10483     10490
     10477     10476     10480     10481     10477     10476     10480     10482
     10477     10476     10480     10483     10478     10476     10480     10481
     10478     10476     10480     10482     10478     10476     10480     10483
     10479     10476     10480     10481     10479     10476     10480     10482
     10479     10476     10480     10483     10480     10483     10490     10486
     10481     10480     10483     10484     10481     10480     10483     10485
     10481     10480     10483     10490     10482     10480     10483     10484
     10482     10480     10483     10485     10482     10480     10483     10490
     10483     10490     10486     10487     10483     10490     10486     10488
     10483     10490     10486     10489     10484     10483     10490     10486
     10485     10483     10490     10486     10486     10489     10491     10492
     10486     10489     10491     10493     10486     10489     10491     10494
     10487     10486     10489     10491     10488     10486     10489     10491
     10489     10491     10494     10495     10489     10491     10494     10496
     10489     10491     10494     10502     10490     10486     10489     10491
     10491     10494     10496     10497     10491     10494     10502     10503
     10491     10494     10502     10504     10491     10494     10502     10505
     10492     10491     10494     10495     10492     10491     10494     10496
     10492     10491     10494     10502     10493     10491     10494     10495
     10493     10491     10494     10496     10493     10491     10494     10502
     10494     10496     10497     10498     10494     10496     10497     10499
     10494     10502     10505     10506     10495     10494     10496     10497
     10495     10494     10502     10503     10495     10494     10502     10504
     10495     10494     10502     10505     10496     10494     10502     10503
     10496     10494     10502     10504     10496     10494     10502     10505
     10496     10497     10499     10500     10496     10497     10499     10501
     10496     10497     10499     10511     10497     10496     10494     10502
     10497     10499     10511     10512     10497     10499     10511     10513
     10497     10499     10511     10514     10498     10497     10499     10500
     10498     10497     10499     10501     10498     10497     10499     10511
     10499     10511     10514     10515     10499     10511     10514     10516
     10499     10511     10514     10517     10500     10499     10511     10512
     10500     10499     10511     10513     10500     10499     10511     10514
     10501     10499     10511     10512     10501     10499     10511     10513
     10501     10499     10511     10514     10502     10505     10506     10507
     10502     10505     10506     10508     10503     10502     10505     10506
     10504     10502     10505     10506     10505     10506     10508     10509
     10505     10506     10508     10510     10505     10506     10508     10558
     10506     10508     10558     10559     10506     10508     10558     10560
     10506     10508     10558     10561     10507     10506     10508     10509
     10507     10506     10508     10510     10507     10506     10508     10558
     10508     10558     10561     10562     10508     10558     10561     10563
     10508     10558     10561     10564     10509     10508     10558     10559
     10509     10508     10558     10560     10509     10508     10558     10561
     10510     10508     10558     10559     10510     10508     10558     10560
     10510     10508     10558     10561     10511     10514     10517     10518
     10511     10514     10517     10519     10511     10514     10517     10520
     10512     10511     10514     10515     10512     10511     10514     10516
     10512     10511     10514     10517     10513     10511     10514     10515
     10513     10511     10514     10516     10513     10511     10514     10517
     10514     10517     10520     10521     10514     10517     10520     10522
     10514     10517     10520     10523     10515     10514     10517     10518
     10515     10514     10517     10519     10515     10514     10517     10520
     10516     10514     10517     10518     10516     10514     10517     10519
     10516     10514     10517     10520     10517     10520     10523     10524
     10517     10520     10523     10525     10517     10520     10523     10526
     10518     10517     10520     10521     10518     10517     10520     10522
     10518     10517     10520     10523     10519     10517     10520     10521
     10519     10517     10520     10522     10519     10517     10520     10523
     10520     10523     10526     10527     10520     10523     10526     10528
     10520     10523     10526     10529     10521     10520     10523     10524
     10521     10520     10523     10525     10521     10520     10523     10526
     10522     10520     10523     10524     10522     10520     10523     10525
     10522     10520     10523     10526     10523     10526     10529     10530
     10523     10526     10529     10531     10524     10523     10526     10527
     10524     10523     10526     10528     10524     10523     10526     10529
     10525     10523     10526     10527     10525     10523     10526     10528
     10525     10523     10526     10529     10526     10529     10531     10532
     10526     10529     10531     10533     10527     10526     10529     10530
     10527     10526     10529     10531     10528     10526     10529     10530
     10528     10526     10529     10531     10529     10531     10533     10534
     10529     10531     10533     10535     10529     10531     10533     10536
     10530     10529     10531     10532     10530     10529     10531     10533
     10531     10533     10536     10537     10531     10533     10536     10538
     10531     10533     10536     10539     10532     10531     10533     10534
     10532     10531     10533     10535     10532     10531     10533     10536
     10533     10536     10539     10540     10533     10536     10539     10541
     10533     10536     10539     10542     10534     10533     10536     10537
     10534     10533     10536     10538     10534     10533     10536     10539
     10535     10533     10536     10537     10535     10533     10536     10538
     10535     10533     10536     10539     10536     10539     10542     10543
     10536     10539     10542     10544     10536     10539     10542     10545
     10537     10536     10539     10540     10537     10536     10539     10541
     10537     10536     10539     10542     10538     10536     10539     10540
     10538     10536     10539     10541     10538     10536     10539     10542
     10539     10542     10545     10546     10539     10542     10545     10547
     10539     10542     10545     10548     10540     10539     10542     10543
     10540     10539     10542     10544     10540     10539     10542     10545
     10541     10539     10542     10543     10541     10539     10542     10544
     10541     10539     10542     10545     10542     10545     10548     10549
     10542     10545     10548     10550     10542     10545     10548     10551
     10543     10542     10545     10546     10543     10542     10545     10547
     10543     10542     10545     10548     10544     10542     10545     10546
     10544     10542     10545     10547     10544     10542     10545     10548
     10545     10548     10551     10552     10545     10548     10551     10553
     10545     10548     10551     10554     10546     10545     10548     10549
     10546     10545     10548     10550     10546     10545     10548     10551
     10547     10545     10548     10549     10547     10545     10548     10550
     10547     10545     10548     10551     10548     10551     10554     10555
     10548     10551     10554     10556     10548     10551     10554     10557
     10549     10548     10551     10552     10549     10548     10551     10553
     10549     10548     10551     10554     10550     10548     10551     10552
     10550     10548     10551     10553     10550     10548     10551     10554
     10552     10551     10554     10555     10552     10551     10554     10556
     10552     10551     10554     10557     10553     10551     10554     10555
     10553     10551     10554     10556     10553     10551     10554     10557
     10558     10561     10564     10565     10558     10561     10564     10566
     10558     10561     10564     10567     10559     10558     10561     10562
     10559     10558     10561     10563     10559     10558     10561     10564
     10560     10558     10561     10562     10560     10558     10561     10563
     10560     10558     10561     10564     10561     10564     10567     10568
     10561     10564     10567     10569     10561     10564     10567     10570
     10562     10561     10564     10565     10562     10561     10564     10566
     10562     10561     10564     10567     10563     10561     10564     10565
     10563     10561     10564     10566     10563     10561     10564     10567
     10564     10567     10570     10571     10564     10567     10570     10572
     10564     10567     10570     10573     10565     10564     10567     10568
     10565     10564     10567     10569     10565     10564     10567     10570
     10566     10564     10567     10568     10566     10564     10567     10569
     10566     10564     10567     10570     10567     10570     10573     10574
     10567     10570     10573     10575     10567     10570     10573     10576
     10568     10567     10570     10571     10568     10567     10570     10572
     10568     10567     10570     10573     10569     10567     10570     10571
     10569     10567     10570     10572     10569     10567     10570     10573
     10570     10573     10576     10577     10570     10573     10576     10578
     10570     10573     10576     10579     10571     10570     10573     10574
     10571     10570     10573     10575     10571     10570     10573     10576
     10572     10570     10573     10574     10572     10570     10573     10575
     10572     10570     10573     10576     10573     10576     10579     10580
     10573     10576     10579     10581     10573     10576     10579     10582
     10574     10573     10576     10577     10574     10573     10576     10578
     10574     10573     10576     10579     10575     10573     10576     10577
     10575     10573     10576     10578     10575     10573     10576     10579
     10576     10579     10582     10583     10576     10579     10582     10584
     10576     10579     10582     10585     10577     10576     10579     10580
     10577     10576     10579     10581     10577     10576     10579     10582
     10578     10576     10579     10580     10578     10576     10579     10581
     10578     10576     10579     10582     10579     10582     10585     10586
     10579     10582     10585     10587     10579     10582     10585     10588
     10580     10579     10582     10583     10580     10579     10582     10584
     10580     10579     10582     10585     10581     10579     10582     10583
     10581     10579     10582     10584     10581     10579     10582     10585
     10582     10585     10588     10589     10582     10585     10588     10590
     10582     10585     10588     10591     10583     10582     10585     10586
     10583     10582     10585     10587     10583     10582     10585     10588
     10584     10582     10585     10586     10584     10582     10585     10587
     10584     10582     10585     10588     10585     10588     10591     10592
     10585     10588     10591     10593     10585     10588     10591     10594
     10586     10585     10588     10589     10586     10585     10588     10590
     10586     10585     10588     10591     10587     10585     10588     10589
     10587     10585     10588     10590     10587     10585     10588     10591
     10588     10591     10594     10595     10588     10591     10594     10596
     10588     10591     10594     10597     10589     10588     10591     10592
     10589     10588     10591     10593     10589     10588     10591     10594
     10590     10588     10591     10592     10590     10588     10591     10593
     10590     10588     10591     10594     10591     10594     10597     10598
     10591     10594     10597     10599     10591     10594     10597     10600
     10592     10591     10594     10595     10592     10591     10594     10596
     10592     10591     10594     10597     10593     10591     10594     10595
     10593     10591     10594     10596     10593     10591     10594     10597
     10595     10594     10597     10598     10595     10594     10597     10599
     10595     10594     10597     10600     10596     10594     10597     10598
     10596     10594     10597     10599     10596     10594     10597     10600
     10601     10602     10617     10618     10601     10602     10617     10619
     10601     10602     10617     10623     10602     10601     10605     10606
     10602     10601     10605     10607     10602     10601     10605     10608
     10602     10601     10609     10610     10602     10601     10609     10611
     10602     10601     10609     10612     10602     10601     10613     10614
     10602     10601     10613     10615     10602     10601     10613     10616
     10602     10617     10623     10620     10603     10602     10601     10605
     10603     10602     10601     10609     10603     10602     10601     10613
     10603     10602     10617     10618     10603     10602     10617     10619
     10603     10602     10617     10623     10604     10602     10601     10605
     10604     10602     10601     10609     10604     10602     10601     10613
     10604     10602     10617     10618     10604     10602     10617     10619
     10604     10602     10617     10623     10605     10601     10602     10617
     10605     10601     10609     10610     10605     10601     10609     10611
     10605     10601     10609     10612     10605     10601     10613     10614
     10605     10601     10613     10615     10605     10601     10613     10616
     10606     10605     10601     10609     10606     10605     10601     10613
     10607     10605     10601     10609     10607     10605     10601     10613
     10608     10605     10601     10609     10608     10605     10601     10613
     10609     10601     10602     10617     10609     10601     10613     10614
     10609     10601     10613     10615     10609     10601     10613     10616
     10610     10609     10601     10613     10611     10609     10601     10613
     10612     10609     10601     10613     10613     10601     10602     10617
     10617     10623     10620     10621     10617     10623     10620     10622
     10617     10623     10620     10624     10618     10617     10623     10620
     10619     10617     10623     10620     10620     10624     10625     10626
     10620     10624     10625     10627     10620     10624     10625     10628
     10621     10620     10624     10625     10622     10620     10624     10625
     10623     10620     10624     10625     10624     10625     10628     10629
     10624     10625     10628     10630     10624     10625     10628     10636
     10625     10628     10630     10631     10625     10628     10636     10637
     10625     10628     10636     10638     10625     10628     10636     10639
     10626     10625     10628     10629     10626     10625     10628     10630
     10626     10625     10628     10636     10627     10625     10628     10629
     10627     10625     10628     10630     10627     10625     10628     10636
     10628     10630     10631     10632     10628     10630     10631     10633
     10628     10636     10639     10640     10629     10628     10630     10631
     10629     10628     10636     10637     10629     10628     10636     10638
     10629     10628     10636     10639     10630     10628     10636     10637
     10630     10628     10636     10638     10630     10628     10636     10639
     10630     10631     10633     10634     10630     10631     10633     10635
     10630     10631     10633     10645     10631     10630     10628     10636
     10631     10633     10645     10646     10631     10633     10645     10647
     10631     10633     10645     10648     10632     10631     10633     10634
     10632     10631     10633     10635     10632     10631     10633     10645
     10633     10645     10648     10649     10633     10645     10648     10650
     10633     10645     10648     10651     10634     10633     10645     10646
     10634     10633     10645     10647     10634     10633     10645     10648
     10635     10633     10645     10646     10635     10633     10645     10647
     10635     10633     10645     10648     10636     10639     10640     10641
     10636     10639     10640     10642     10637     10636     10639     10640
     10638     10636     10639     10640     10639     10640     10642     10643
     10639     10640     10642     10644     10639     10640     10642     10692
     10640     10642     10692     10693     10640     10642     10692     10694
     10640     10642     10692     10695     10641     10640     10642     10643
     10641     10640     10642     10644     10641     10640     10642     10692
     10642     10692     10695     10696     10642     10692     10695     10697
     10642     10692     10695     10698     10643     10642     10692     10693
     10643     10642     10692     10694     10643     10642     10692     10695
     10644     10642     10692     10693     10644     10642     10692     10694
     10644     10642     10692     10695     10645     10648     10651     10652
     10645     10648     10651     10653     10645     10648     10651     10654
     10646     10645     10648     10649     10646     10645     10648     10650
     10646     10645     10648     10651     10647     10645     10648     10649
     10647     10645     10648     10650     10647     10645     10648     10651
     10648     10651     10654     10655     10648     10651     10654     10656
     10648     10651     10654     10657     10649     10648     10651     10652
     10649     10648     10651     10653     10649     10648     10651     10654
     10650     10648     10651     10652     10650     10648     10651     10653
     10650     10648     10651     10654     10651     10654     10657     10658
     10651     10654     10657     10659     10651     10654     10657     10660
     10652     10651     10654     10655     10652     10651     10654     10656
     10652     10651     10654     10657     10653     10651     10654     10655
     10653     10651     10654     10656     10653     10651     10654     10657
     10654     10657     10660     10661     10654     10657     10660     10662
     10654     10657     10660     10663     10655     10654     10657     10658
     10655     10654     10657     10659     10655     10654     10657     10660
     10656     10654     10657     10658     10656     10654     10657     10659
     10656     10654     10657     10660     10657     10660     10663     10664
     10657     10660     10663     10665     10658     10657     10660     10661
     10658     10657     10660     10662     10658     10657     10660     10663
     10659     10657     10660     10661     10659     10657     10660     10662
     10659     10657     10660     10663     10660     10663     10665     10666
     10660     10663     10665     10667     10661     10660     10663     10664
     10661     10660     10663     10665     10662     10660     10663     10664
     10662     10660     10663     10665     10663     10665     10667     10668
     10663     10665     10667     10669     10663     10665     10667     10670
     10664     10663     10665     10666     10664     10663     10665     10667
     10665     10667     10670     10671     10665     10667     10670     10672
     10665     10667     10670     10673     10666     10665     10667     10668
     10666     10665     10667     10669     10666     10665     10667     10670
     10667     10670     10673     10674     10667     10670     10673     10675
     10667     10670     10673     10676     10668     10667     10670     10671
     10668     10667     10670     10672     10668     10667     10670     10673
     10669     10667     10670     10671     10669     10667     10670     10672
     10669     10667     10670     10673     10670     10673     10676     10677
     10670     10673     10676     10678     10670     10673     10676     10679
     10671     10670     10673     10674     10671     10670     10673     10675
     10671     10670     10673     10676     10672     10670     10673     10674
     10672     10670     10673     10675     10672     10670     10673     10676
     10673     10676     10679     10680     10673     10676     10679     10681
     10673     10676     10679     10682     10674     10673     10676     10677
     10674     10673     10676     10678     10674     10673     10676     10679
     10675     10673     10676     10677     10675     10673     10676     10678
     10675     10673     10676     10679     10676     10679     10682     10683
     10676     10679     10682     10684     10676     10679     10682     10685
     10677     10676     10679     10680     10677     10676     10679     10681
     10677     10676     10679     10682     10678     10676     10679     10680
     10678     10676     10679     10681     10678     10676     10679     10682
     10679     10682     10685     10686     10679     10682     10685     10687
     10679     10682     10685     10688     10680     10679     10682     10683
     10680     10679     10682     10684     10680     10679     10682     10685
     10681     10679     10682     10683     10681     10679     10682     10684
     10681     10679     10682     10685     10682     10685     10688     10689
     10682     10685     10688     10690     10682     10685     10688     10691
     10683     10682     10685     10686     10683     10682     10685     10687
     10683     10682     10685     10688     10684     10682     10685     10686
     10684     10682     10685     10687     10684     10682     10685     10688
     10686     10685     10688     10689     10686     10685     10688     10690
     10686     10685     10688     10691     10687     10685     10688     10689
     10687     10685     10688     10690     10687     10685     10688     10691
     10692     10695     10698     10699     10692     10695     10698     10700
     10692     10695     10698     10701     10693     10692     10695     10696
     10693     10692     10695     10697     10693     10692     10695     10698
     10694     10692     10695     10696     10694     10692     10695     10697
     10694     10692     10695     10698     10695     10698     10701     10702
     10695     10698     10701     10703     10695     10698     10701     10704
     10696     10695     10698     10699     10696     10695     10698     10700
     10696     10695     10698     10701     10697     10695     10698     10699
     10697     10695     10698     10700     10697     10695     10698     10701
     10698     10701     10704     10705     10698     10701     10704     10706
     10698     10701     10704     10707     10699     10698     10701     10702
     10699     10698     10701     10703     10699     10698     10701     10704
     10700     10698     10701     10702     10700     10698     10701     10703
     10700     10698     10701     10704     10701     10704     10707     10708
     10701     10704     10707     10709     10701     10704     10707     10710
     10702     10701     10704     10705     10702     10701     10704     10706
     10702     10701     10704     10707     10703     10701     10704     10705
     10703     10701     10704     10706     10703     10701     10704     10707
     10704     10707     10710     10711     10704     10707     10710     10712
     10704     10707     10710     10713     10705     10704     10707     10708
     10705     10704     10707     10709     10705     10704     10707     10710
     10706     10704     10707     10708     10706     10704     10707     10709
     10706     10704     10707     10710     10707     10710     10713     10714
     10707     10710     10713     10715     10707     10710     10713     10716
     10708     10707     10710     10711     10708     10707     10710     10712
     10708     10707     10710     10713     10709     10707     10710     10711
     10709     10707     10710     10712     10709     10707     10710     10713
     10710     10713     10716     10717     10710     10713     10716     10718
     10710     10713     10716     10719     10711     10710     10713     10714
     10711     10710     10713     10715     10711     10710     10713     10716
     10712     10710     10713     10714     10712     10710     10713     10715
     10712     10710     10713     10716     10713     10716     10719     10720
     10713     10716     10719     10721     10713     10716     10719     10722
     10714     10713     10716     10717     10714     10713     10716     10718
     10714     10713     10716     10719     10715     10713     10716     10717
     10715     10713     10716     10718     10715     10713     10716     10719
     10716     10719     10722     10723     10716     10719     10722     10724
     10716     10719     10722     10725     10717     10716     10719     10720
     10717     10716     10719     10721     10717     10716     10719     10722
     10718     10716     10719     10720     10718     10716     10719     10721
     10718     10716     10719     10722     10719     10722     10725     10726
     10719     10722     10725     10727     10719     10722     10725     10728
     10720     10719     10722     10723     10720     10719     10722     10724
     10720     10719     10722     10725     10721     10719     10722     10723
     10721     10719     10722     10724     10721     10719     10722     10725
     10722     10725     10728     10729     10722     10725     10728     10730
     10722     10725     10728     10731     10723     10722     10725     10726
     10723     10722     10725     10727     10723     10722     10725     10728
     10724     10722     10725     10726     10724     10722     10725     10727
     10724     10722     10725     10728     10725     10728     10731     10732
     10725     10728     10731     10733     10725     10728     10731     10734
     10726     10725     10728     10729     10726     10725     10728     10730
     10726     10725     10728     10731     10727     10725     10728     10729
     10727     10725     10728     10730     10727     10725     10728     10731
     10729     10728     10731     10732     10729     10728     10731     10733
     10729     10728     10731     10734     10730     10728     10731     10732
     10730     10728     10731     10733     10730     10728     10731     10734
     10735     10739     10742     10743     10735     10739     10742     10744
     10735     10739     10742     10749     10736     10735     10739     10740
     10736     10735     10739     10741     10736     10735     10739     10742
     10737     10735     10739     10740     10737     10735     10739     10741
     10737     10735     10739     10742     10738     10735     10739     10740
     10738     10735     10739     10741     10738     10735     10739     10742
     10739     10742     10749     10745     10740     10739     10742     10743
     10740     10739     10742     10744     10740     10739     10742     10749
     10741     10739     10742     10743     10741     10739     10742     10744
     10741     10739     10742     10749     10742     10749     10745     10746
     10742     10749     10745     10747     10742     10749     10745     10748
     10743     10742     10749     10745     10744     10742     10749     10745
     10745     10748     10750     10751     10745     10748     10750     10752
     10745     10748     10750     10753     10746     10745     10748     10750
     10747     10745     10748     10750     10748     10750     10753     10754
     10748     10750     10753     10755     10748     10750     10753     10761
     10749     10745     10748     10750     10750     10753     10755     10756
     10750     10753     10761     10762     10750     10753     10761     10763
     10750     10753     10761     10764     10751     10750     10753     10754
     10751     10750     10753     10755     10751     10750     10753     10761
     10752     10750     10753     10754     10752     10750     10753     10755
     10752     10750     10753     10761     10753     10755     10756     10757
     10753     10755     10756     10758     10753     10761     10764     10765
     10754     10753     10755     10756     10754     10753     10761     10762
     10754     10753     10761     10763     10754     10753     10761     10764
     10755     10753     10761     10762     10755     10753     10761     10763
     10755     10753     10761     10764     10755     10756     10758     10759
     10755     10756     10758     10760     10755     10756     10758     10770
     10756     10755     10753     10761     10756     10758     10770     10771
     10756     10758     10770     10772     10756     10758     10770     10773
     10757     10756     10758     10759     10757     10756     10758     10760
     10757     10756     10758     10770     10758     10770     10773     10774
     10758     10770     10773     10775     10758     10770     10773     10776
     10759     10758     10770     10771     10759     10758     10770     10772
     10759     10758     10770     10773     10760     10758     10770     10771
     10760     10758     10770     10772     10760     10758     10770     10773
     10761     10764     10765     10766     10761     10764     10765     10767
     10762     10761     10764     10765     10763     10761     10764     10765
     10764     10765     10767     10768     10764     10765     10767     10769
     10764     10765     10767     10817     10765     10767     10817     10818
     10765     10767     10817     10819     10765     10767     10817     10820
     10766     10765     10767     10768     10766     10765     10767     10769
     10766     10765     10767     10817     10767     10817     10820     10821
     10767     10817     10820     10822     10767     10817     10820     10823
     10768     10767     10817     10818     10768     10767     10817     10819
     10768     10767     10817     10820     10769     10767     10817     10818
     10769     10767     10817     10819     10769     10767     10817     10820
     10770     10773     10776     10777     10770     10773     10776     10778
     10770     10773     10776     10779     10771     10770     10773     10774
     10771     10770     10773     10775     10771     10770     10773     10776
     10772     10770     10773     10774     10772     10770     10773     10775
     10772     10770     10773     10776     10773     10776     10779     10780
     10773     10776     10779     10781     10773     10776     10779     10782
     10774     10773     10776     10777     10774     10773     10776     10778
     10774     10773     10776     10779     10775     10773     10776     10777
     10775     10773     10776     10778     10775     10773     10776     10779
     10776     10779     10782     10783     10776     10779     10782     10784
     10776     10779     10782     10785     10777     10776     10779     10780
     10777     10776     10779     10781     10777     10776     10779     10782
     10778     10776     10779     10780     10778     10776     10779     10781
     10778     10776     10779     10782     10779     10782     10785     10786
     10779     10782     10785     10787     10779     10782     10785     10788
     10780     10779     10782     10783     10780     10779     10782     10784
     10780     10779     10782     10785     10781     10779     10782     10783
     10781     10779     10782     10784     10781     10779     10782     10785
     10782     10785     10788     10789     10782     10785     10788     10790
     10783     10782     10785     10786     10783     10782     10785     10787
     10783     10782     10785     10788     10784     10782     10785     10786
     10784     10782     10785     10787     10784     10782     10785     10788
     10785     10788     10790     10791     10785     10788     10790     10792
     10786     10785     10788     10789     10786     10785     10788     10790
     10787     10785     10788     10789     10787     10785     10788     10790
     10788     10790     10792     10793     10788     10790     10792     10794
     10788     10790     10792     10795     10789     10788     10790     10791
     10789     10788     10790     10792     10790     10792     10795     10796
     10790     10792     10795     10797     10790     10792     10795     10798
     10791     10790     10792     10793     10791     10790     10792     10794
     10791     10790     10792     10795     10792     10795     10798     10799
     10792     10795     10798     10800     10792     10795     10798     10801
     10793     10792     10795     10796     10793     10792     10795     10797
     10793     10792     10795     10798     10794     10792     10795     10796
     10794     10792     10795     10797     10794     10792     10795     10798
     10795     10798     10801     10802     10795     10798     10801     10803
     10795     10798     10801     10804     10796     10795     10798     10799
     10796     10795     10798     10800     10796     10795     10798     10801
     10797     10795     10798     10799     10797     10795     10798     10800
     10797     10795     10798     10801     10798     10801     10804     10805
     10798     10801     10804     10806     10798     10801     10804     10807
     10799     10798     10801     10802     10799     10798     10801     10803
     10799     10798     10801     10804     10800     10798     10801     10802
     10800     10798     10801     10803     10800     10798     10801     10804
     10801     10804     10807     10808     10801     10804     10807     10809
     10801     10804     10807     10810     10802     10801     10804     10805
     10802     10801     10804     10806     10802     10801     10804     10807
     10803     10801     10804     10805     10803     10801     10804     10806
     10803     10801     10804     10807     10804     10807     10810     10811
     10804     10807     10810     10812     10804     10807     10810     10813
     10805     10804     10807     10808     10805     10804     10807     10809
     10805     10804     10807     10810     10806     10804     10807     10808
     10806     10804     10807     10809     10806     10804     10807     10810
     10807     10810     10813     10814     10807     10810     10813     10815
     10807     10810     10813     10816     10808     10807     10810     10811
     10808     10807     10810     10812     10808     10807     10810     10813
     10809     10807     10810     10811     10809     10807     10810     10812
     10809     10807     10810     10813     10811     10810     10813     10814
     10811     10810     10813     10815     10811     10810     10813     10816
     10812     10810     10813     10814     10812     10810     10813     10815
     10812     10810     10813     10816     10817     10820     10823     10824
     10817     10820     10823     10825     10817     10820     10823     10826
     10818     10817     10820     10821     10818     10817     10820     10822
     10818     10817     10820     10823     10819     10817     10820     10821
     10819     10817     10820     10822     10819     10817     10820     10823
     10820     10823     10826     10827     10820     10823     10826     10828
     10820     10823     10826     10829     10821     10820     10823     10824
     10821     10820     10823     10825     10821     10820     10823     10826
     10822     10820     10823     10824     10822     10820     10823     10825
     10822     10820     10823     10826     10823     10826     10829     10830
     10823     10826     10829     10831     10823     10826     10829     10832
     10824     10823     10826     10827     10824     10823     10826     10828
     10824     10823     10826     10829     10825     10823     10826     10827
     10825     10823     10826     10828     10825     10823     10826     10829
     10826     10829     10832     10833     10826     10829     10832     10834
     10826     10829     10832     10835     10827     10826     10829     10830
     10827     10826     10829     10831     10827     10826     10829     10832
     10828     10826     10829     10830     10828     10826     10829     10831
     10828     10826     10829     10832     10829     10832     10835     10836
     10829     10832     10835     10837     10829     10832     10835     10838
     10830     10829     10832     10833     10830     10829     10832     10834
     10830     10829     10832     10835     10831     10829     10832     10833
     10831     10829     10832     10834     10831     10829     10832     10835
     10832     10835     10838     10839     10832     10835     10838     10840
     10832     10835     10838     10841     10833     10832     10835     10836
     10833     10832     10835     10837     10833     10832     10835     10838
     10834     10832     10835     10836     10834     10832     10835     10837
     10834     10832     10835     10838     10835     10838     10841     10842
     10835     10838     10841     10843     10835     10838     10841     10844
     10836     10835     10838     10839     10836     10835     10838     10840
     10836     10835     10838     10841     10837     10835     10838     10839
     10837     10835     10838     10840     10837     10835     10838     10841
     10838     10841     10844     10845     10838     10841     10844     10846
     10838     10841     10844     10847     10839     10838     10841     10842
     10839     10838     10841     10843     10839     10838     10841     10844
     10840     10838     10841     10842     10840     10838     10841     10843
     10840     10838     10841     10844     10841     10844     10847     10848
     10841     10844     10847     10849     10841     10844     10847     10850
     10842     10841     10844     10845     10842     10841     10844     10846
     10842     10841     10844     10847     10843     10841     10844     10845
     10843     10841     10844     10846     10843     10841     10844     10847
     10844     10847     10850     10851     10844     10847     10850     10852
     10844     10847     10850     10853     10845     10844     10847     10848
     10845     10844     10847     10849     10845     10844     10847     10850
     10846     10844     10847     10848     10846     10844     10847     10849
     10846     10844     10847     10850     10847     10850     10853     10854
     10847     10850     10853     10855     10847     10850     10853     10856
     10848     10847     10850     10851     10848     10847     10850     10852
     10848     10847     10850     10853     10849     10847     10850     10851
     10849     10847     10850     10852     10849     10847     10850     10853
     10850     10853     10856     10857     10850     10853     10856     10858
     10850     10853     10856     10859     10851     10850     10853     10854
     10851     10850     10853     10855     10851     10850     10853     10856
     10852     10850     10853     10854     10852     10850     10853     10855
     10852     10850     10853     10856     10854     10853     10856     10857
     10854     10853     10856     10858     10854     10853     10856     10859
     10855     10853     10856     10857     10855     10853     10856     10858
     10855     10853     10856     10859     10860     10861     10876     10877
     10860     10861     10876     10878     10860     10861     10876     10882
     10861     10860     10864     10865     10861     10860     10864     10866
     10861     10860     10864     10867     10861     10860     10868     10869
     10861     10860     10868     10870     10861     10860     10868     10871
     10861     10860     10872     10873     10861     10860     10872     10874
     10861     10860     10872     10875     10861     10876     10882     10879
     10862     10861     10860     10864     10862     10861     10860     10868
     10862     10861     10860     10872     10862     10861     10876     10877
     10862     10861     10876     10878     10862     10861     10876     10882
     10863     10861     10860     10864     10863     10861     10860     10868
     10863     10861     10860     10872     10863     10861     10876     10877
     10863     10861     10876     10878     10863     10861     10876     10882
     10864     10860     10861     10876     10864     10860     10868     10869
     10864     10860     10868     10870     10864     10860     10868     10871
     10864     10860     10872     10873     10864     10860     10872     10874
     10864     10860     10872     10875     10865     10864     10860     10868
     10865     10864     10860     10872     10866     10864     10860     10868
     10866     10864     10860     10872     10867     10864     10860     10868
     10867     10864     10860     10872     10868     10860     10861     10876
     10868     10860     10872     10873     10868     10860     10872     10874
     10868     10860     10872     10875     10869     10868     10860     10872
     10870     10868     10860     10872     10871     10868     10860     10872
     10872     10860     10861     10876     10876     10882     10879     10880
     10876     10882     10879     10881     10876     10882     10879     10883
     10877     10876     10882     10879     10878     10876     10882     10879
     10879     10883     10884     10885     10879     10883     10884     10886
     10879     10883     10884     10887     10880     10879     10883     10884
     10881     10879     10883     10884     10882     10879     10883     10884
     10883     10884     10887     10888     10883     10884     10887     10889
     10883     10884     10887     10895     10884     10887     10889     10890
     10884     10887     10895     10896     10884     10887     10895     10897
     10884     10887     10895     10898     10885     10884     10887     10888
     10885     10884     10887     10889     10885     10884     10887     10895
     10886     10884     10887     10888     10886     10884     10887     10889
     10886     10884     10887     10895     10887     10889     10890     10891
     10887     10889     10890     10892     10887     10895     10898     10899
     10888     10887     10889     10890     10888     10887     10895     10896
     10888     10887     10895     10897     10888     10887     10895     10898
     10889     10887     10895     10896     10889     10887     10895     10897
     10889     10887     10895     10898     10889     10890     10892     10893
     10889     10890     10892     10894     10889     10890     10892     10904
     10890     10889     10887     10895     10890     10892     10904     10905
     10890     10892     10904     10906     10890     10892     10904     10907
     10891     10890     10892     10893     10891     10890     10892     10894
     10891     10890     10892     10904     10892     10904     10907     10908
     10892     10904     10907     10909     10892     10904     10907     10910
     10893     10892     10904     10905     10893     10892     10904     10906
     10893     10892     10904     10907     10894     10892     10904     10905
     10894     10892     10904     10906     10894     10892     10904     10907
     10895     10898     10899     10900     10895     10898     10899     10901
     10896     10895     10898     10899     10897     10895     10898     10899
     10898     10899     10901     10902     10898     10899     10901     10903
     10898     10899     10901     10951     10899     10901     10951     10952
     10899     10901     10951     10953     10899     10901     10951     10954
     10900     10899     10901     10902     10900     10899     10901     10903
     10900     10899     10901     10951     10901     10951     10954     10955
     10901     10951     10954     10956     10901     10951     10954     10957
     10902     10901     10951     10952     10902     10901     10951     10953
     10902     10901     10951     10954     10903     10901     10951     10952
     10903     10901     10951     10953     10903     10901     10951     10954
     10904     10907     10910     10911     10904     10907     10910     10912
     10904     10907     10910     10913     10905     10904     10907     10908
     10905     10904     10907     10909     10905     10904     10907     10910
     10906     10904     10907     10908     10906     10904     10907     10909
     10906     10904     10907     10910     10907     10910     10913     10914
     10907     10910     10913     10915     10907     10910     10913     10916
     10908     10907     10910     10911     10908     10907     10910     10912
     10908     10907     10910     10913     10909     10907     10910     10911
     10909     10907     10910     10912     10909     10907     10910     10913
     10910     10913     10916     10917     10910     10913     10916     10918
     10910     10913     10916     10919     10911     10910     10913     10914
     10911     10910     10913     10915     10911     10910     10913     10916
     10912     10910     10913     10914     10912     10910     10913     10915
     10912     10910     10913     10916     10913     10916     10919     10920
     10913     10916     10919     10921     10913     10916     10919     10922
     10914     10913     10916     10917     10914     10913     10916     10918
     10914     10913     10916     10919     10915     10913     10916     10917
     10915     10913     10916     10918     10915     10913     10916     10919
     10916     10919     10922     10923     10916     10919     10922     10924
     10917     10916     10919     10920     10917     10916     10919     10921
     10917     10916     10919     10922     10918     10916     10919     10920
     10918     10916     10919     10921     10918     10916     10919     10922
     10919     10922     10924     10925     10919     10922     10924     10926
     10920     10919     10922     10923     10920     10919     10922     10924
     10921     10919     10922     10923     10921     10919     10922     10924
     10922     10924     10926     10927     10922     10924     10926     10928
     10922     10924     10926     10929     10923     10922     10924     10925
     10923     10922     10924     10926     10924     10926     10929     10930
     10924     10926     10929     10931     10924     10926     10929     10932
     10925     10924     10926     10927     10925     10924     10926     10928
     10925     10924     10926     10929     10926     10929     10932     10933
     10926     10929     10932     10934     10926     10929     10932     10935
     10927     10926     10929     10930     10927     10926     10929     10931
     10927     10926     10929     10932     10928     10926     10929     10930
     10928     10926     10929     10931     10928     10926     10929     10932
     10929     10932     10935     10936     10929     10932     10935     10937
     10929     10932     10935     10938     10930     10929     10932     10933
     10930     10929     10932     10934     10930     10929     10932     10935
     10931     10929     10932     10933     10931     10929     10932     10934
     10931     10929     10932     10935     10932     10935     10938     10939
     10932     10935     10938     10940     10932     10935     10938     10941
     10933     10932     10935     10936     10933     10932     10935     10937
     10933     10932     10935     10938     10934     10932     10935     10936
     10934     10932     10935     10937     10934     10932     10935     10938
     10935     10938     10941     10942     10935     10938     10941     10943
     10935     10938     10941     10944     10936     10935     10938     10939
     10936     10935     10938     10940     10936     10935     10938     10941
     10937     10935     10938     10939     10937     10935     10938     10940
     10937     10935     10938     10941     10938     10941     10944     10945
     10938     10941     10944     10946     10938     10941     10944     10947
     10939     10938     10941     10942     10939     10938     10941     10943
     10939     10938     10941     10944     10940     10938     10941     10942
     10940     10938     10941     10943     10940     10938     10941     10944
     10941     10944     10947     10948     10941     10944     10947     10949
     10941     10944     10947     10950     10942     10941     10944     10945
     10942     10941     10944     10946     10942     10941     10944     10947
     10943     10941     10944     10945     10943     10941     10944     10946
     10943     10941     10944     10947     10945     10944     10947     10948
     10945     10944     10947     10949     10945     10944     10947     10950
     10946     10944     10947     10948     10946     10944     10947     10949
     10946     10944     10947     10950     10951     10954     10957     10958
     10951     10954     10957     10959     10951     10954     10957     10960
     10952     10951     10954     10955     10952     10951     10954     10956
     10952     10951     10954     10957     10953     10951     10954     10955
     10953     10951     10954     10956     10953     10951     10954     10957
     10954     10957     10960     10961     10954     10957     10960     10962
     10954     10957     10960     10963     10955     10954     10957     10958
     10955     10954     10957     10959     10955     10954     10957     10960
     10956     10954     10957     10958     10956     10954     10957     10959
     10956     10954     10957     10960     10957     10960     10963     10964
     10957     10960     10963     10965     10957     10960     10963     10966
     10958     10957     10960     10961     10958     10957     10960     10962
     10958     10957     10960     10963     10959     10957     10960     10961
     10959     10957     10960     10962     10959     10957     10960     10963
     10960     10963     10966     10967     10960     10963     10966     10968
     10960     10963     10966     10969     10961     10960     10963     10964
     10961     10960     10963     10965     10961     10960     10963     10966
     10962     10960     10963     10964     10962     10960     10963     10965
     10962     10960     10963     10966     10963     10966     10969     10970
     10963     10966     10969     10971     10963     10966     10969     10972
     10964     10963     10966     10967     10964     10963     10966     10968
     10964     10963     10966     10969     10965     10963     10966     10967
     10965     10963     10966     10968     10965     10963     10966     10969
     10966     10969     10972     10973     10966     10969     10972     10974
     10966     10969     10972     10975     10967     10966     10969     10970
     10967     10966     10969     10971     10967     10966     10969     10972
     10968     10966     10969     10970     10968     10966     10969     10971
     10968     10966     10969     10972     10969     10972     10975     10976
     10969     10972     10975     10977     10969     10972     10975     10978
     10970     10969     10972     10973     10970     10969     10972     10974
     10970     10969     10972     10975     10971     10969     10972     10973
     10971     10969     10972     10974     10971     10969     10972     10975
     10972     10975     10978     10979     10972     10975     10978     10980
     10972     10975     10978     10981     10973     10972     10975     10976
     10973     10972     10975     10977     10973     10972     10975     10978
     10974     10972     10975     10976     10974     10972     10975     10977
     10974     10972     10975     10978     10975     10978     10981     10982
     10975     10978     10981     10983     10975     10978     10981     10984
     10976     10975     10978     10979     10976     10975     10978     10980
     10976     10975     10978     10981     10977     10975     10978     10979
     10977     10975     10978     10980     10977     10975     10978     10981
     10978     10981     10984     10985     10978     10981     10984     10986
     10978     10981     10984     10987     10979     10978     10981     10982
     10979     10978     10981     10983     10979     10978     10981     10984
     10980     10978     10981     10982     10980     10978     10981     10983
     10980     10978     10981     10984     10981     10984     10987     10988
     10981     10984     10987     10989     10981     10984     10987     10990
     10982     10981     10984     10985     10982     10981     10984     10986
     10982     10981     10984     10987     10983     10981     10984     10985
     10983     10981     10984     10986     10983     10981     10984     10987
     10984     10987     10990     10991     10984     10987     10990     10992
     10984     10987     10990     10993     10985     10984     10987     10988
     10985     10984     10987     10989     10985     10984     10987     10990
     10986     10984     10987     10988     10986     10984     10987     10989
     10986     10984     10987     10990     10988     10987     10990     10991
     10988     10987     10990     10992     10988     10987     10990     10993
     10989     10987     10990     10991     10989     10987     10990     10992
     10989     10987     10990     10993     10994     10998     11001     11002
     10994     10998     11001     11003     10994     10998     11001     11008
     10995     10994     10998     10999     10995     10994     10998     11000
     10995     10994     10998     11001     10996     10994     10998     10999
     10996     10994     10998     11000     10996     10994     10998     11001
     10997     10994     10998     10999     10997     10994     10998     11000
     10997     10994     10998     11001     10998     11001     11008     11004
     10999     10998     11001     11002     10999     10998     11001     11003
     10999     10998     11001     11008     11000     10998     11001     11002
     11000     10998     11001     11003     11000     10998     11001     11008
     11001     11008     11004     11005     11001     11008     11004     11006
     11001     11008     11004     11007     11002     11001     11008     11004
     11003     11001     11008     11004     11004     11007     11009     11010
     11004     11007     11009     11011     11004     11007     11009     11012
     11005     11004     11007     11009     11006     11004     11007     11009
     11007     11009     11012     11013     11007     11009     11012     11014
     11007     11009     11012     11020     11008     11004     11007     11009
     11009     11012     11014     11015     11009     11012     11020     11021
     11009     11012     11020     11022     11009     11012     11020     11023
     11010     11009     11012     11013     11010     11009     11012     11014
     11010     11009     11012     11020     11011     11009     11012     11013
     11011     11009     11012     11014     11011     11009     11012     11020
     11012     11014     11015     11016     11012     11014     11015     11017
     11012     11020     11023     11024     11013     11012     11014     11015
     11013     11012     11020     11021     11013     11012     11020     11022
     11013     11012     11020     11023     11014     11012     11020     11021
     11014     11012     11020     11022     11014     11012     11020     11023
     11014     11015     11017     11018     11014     11015     11017     11019
     11014     11015     11017     11029     11015     11014     11012     11020
     11015     11017     11029     11030     11015     11017     11029     11031
     11015     11017     11029     11032     11016     11015     11017     11018
     11016     11015     11017     11019     11016     11015     11017     11029
     11017     11029     11032     11033     11017     11029     11032     11034
     11017     11029     11032     11035     11018     11017     11029     11030
     11018     11017     11029     11031     11018     11017     11029     11032
     11019     11017     11029     11030     11019     11017     11029     11031
     11019     11017     11029     11032     11020     11023     11024     11025
     11020     11023     11024     11026     11021     11020     11023     11024
     11022     11020     11023     11024     11023     11024     11026     11027
     11023     11024     11026     11028     11023     11024     11026     11076
     11024     11026     11076     11077     11024     11026     11076     11078
     11024     11026     11076     11079     11025     11024     11026     11027
     11025     11024     11026     11028     11025     11024     11026     11076
     11026     11076     11079     11080     11026     11076     11079     11081
     11026     11076     11079     11082     11027     11026     11076     11077
     11027     11026     11076     11078     11027     11026     11076     11079
     11028     11026     11076     11077     11028     11026     11076     11078
     11028     11026     11076     11079     11029     11032     11035     11036
     11029     11032     11035     11037     11029     11032     11035     11038
     11030     11029     11032     11033     11030     11029     11032     11034
     11030     11029     11032     11035     11031     11029     11032     11033
     11031     11029     11032     11034     11031     11029     11032     11035
     11032     11035     11038     11039     11032     11035     11038     11040
     11032     11035     11038     11041     11033     11032     11035     11036
     11033     11032     11035     11037     11033     11032     11035     11038
     11034     11032     11035     11036     11034     11032     11035     11037
     11034     11032     11035     11038     11035     11038     11041     11042
     11035     11038     11041     11043     11035     11038     11041     11044
     11036     11035     11038     11039     11036     11035     11038     11040
     11036     11035     11038     11041     11037     11035     11038     11039
     11037     11035     11038     11040     11037     11035     11038     11041
     11038     11041     11044     11045     11038     11041     11044     11046
     11038     11041     11044     11047     11039     11038     11041     11042
     11039     11038     11041     11043     11039     11038     11041     11044
     11040     11038     11041     11042     11040     11038     11041     11043
     11040     11038     11041     11044     11041     11044     11047     11048
     11041     11044     11047     11049     11042     11041     11044     11045
     11042     11041     11044     11046     11042     11041     11044     11047
     11043     11041     11044     11045     11043     11041     11044     11046
     11043     11041     11044     11047     11044     11047     11049     11050
     11044     11047     11049     11051     11045     11044     11047     11048
     11045     11044     11047     11049     11046     11044     11047     11048
     11046     11044     11047     11049     11047     11049     11051     11052
     11047     11049     11051     11053     11047     11049     11051     11054
     11048     11047     11049     11050     11048     11047     11049     11051
     11049     11051     11054     11055     11049     11051     11054     11056
     11049     11051     11054     11057     11050     11049     11051     11052
     11050     11049     11051     11053     11050     11049     11051     11054
     11051     11054     11057     11058     11051     11054     11057     11059
     11051     11054     11057     11060     11052     11051     11054     11055
     11052     11051     11054     11056     11052     11051     11054     11057
     11053     11051     11054     11055     11053     11051     11054     11056
     11053     11051     11054     11057     11054     11057     11060     11061
     11054     11057     11060     11062     11054     11057     11060     11063
     11055     11054     11057     11058     11055     11054     11057     11059
     11055     11054     11057     11060     11056     11054     11057     11058
     11056     11054     11057     11059     11056     11054     11057     11060
     11057     11060     11063     11064     11057     11060     11063     11065
     11057     11060     11063     11066     11058     11057     11060     11061
     11058     11057     11060     11062     11058     11057     11060     11063
     11059     11057     11060     11061     11059     11057     11060     11062
     11059     11057     11060     11063     11060     11063     11066     11067
     11060     11063     11066     11068     11060     11063     11066     11069
     11061     11060     11063     11064     11061     11060     11063     11065
     11061     11060     11063     11066     11062     11060     11063     11064
     11062     11060     11063     11065     11062     11060     11063     11066
     11063     11066     11069     11070     11063     11066     11069     11071
     11063     11066     11069     11072     11064     11063     11066     11067
     11064     11063     11066     11068     11064     11063     11066     11069
     11065     11063     11066     11067     11065     11063     11066     11068
     11065     11063     11066     11069     11066     11069     11072     11073
     11066     11069     11072     11074     11066     11069     11072     11075
     11067     11066     11069     11070     11067     11066     11069     11071
     11067     11066     11069     11072     11068     11066     11069     11070
     11068     11066     11069     11071     11068     11066     11069     11072
     11070     11069     11072     11073     11070     11069     11072     11074
     11070     11069     11072     11075     11071     11069     11072     11073
     11071     11069     11072     11074     11071     11069     11072     11075
     11076     11079     11082     11083     11076     11079     11082     11084
     11076     11079     11082     11085     11077     11076     11079     11080
     11077     11076     11079     11081     11077     11076     11079     11082
     11078     11076     11079     11080     11078     11076     11079     11081
     11078     11076     11079     11082     11079     11082     11085     11086
     11079     11082     11085     11087     11079     11082     11085     11088
     11080     11079     11082     11083     11080     11079     11082     11084
     11080     11079     11082     11085     11081     11079     11082     11083
     11081     11079     11082     11084     11081     11079     11082     11085
     11082     11085     11088     11089     11082     11085     11088     11090
     11082     11085     11088     11091     11083     11082     11085     11086
     11083     11082     11085     11087     11083     11082     11085     11088
     11084     11082     11085     11086     11084     11082     11085     11087
     11084     11082     11085     11088     11085     11088     11091     11092
     11085     11088     11091     11093     11085     11088     11091     11094
     11086     11085     11088     11089     11086     11085     11088     11090
     11086     11085     11088     11091     11087     11085     11088     11089
     11087     11085     11088     11090     11087     11085     11088     11091
     11088     11091     11094     11095     11088     11091     11094     11096
     11088     11091     11094     11097     11089     11088     11091     11092
     11089     11088     11091     11093     11089     11088     11091     11094
     11090     11088     11091     11092     11090     11088     11091     11093
     11090     11088     11091     11094     11091     11094     11097     11098
     11091     11094     11097     11099     11091     11094     11097     11100
     11092     11091     11094     11095     11092     11091     11094     11096
     11092     11091     11094     11097     11093     11091     11094     11095
     11093     11091     11094     11096     11093     11091     11094     11097
     11094     11097     11100     11101     11094     11097     11100     11102
     11094     11097     11100     11103     11095     11094     11097     11098
     11095     11094     11097     11099     11095     11094     11097     11100
     11096     11094     11097     11098     11096     11094     11097     11099
     11096     11094     11097     11100     11097     11100     11103     11104
     11097     11100     11103     11105     11097     11100     11103     11106
     11098     11097     11100     11101     11098     11097     11100     11102
     11098     11097     11100     11103     11099     11097     11100     11101
     11099     11097     11100     11102     11099     11097     11100     11103
     11100     11103     11106     11107     11100     11103     11106     11108
     11100     11103     11106     11109     11101     11100     11103     11104
     11101     11100     11103     11105     11101     11100     11103     11106
     11102     11100     11103     11104     11102     11100     11103     11105
     11102     11100     11103     11106     11103     11106     11109     11110
     11103     11106     11109     11111     11103     11106     11109     11112
     11104     11103     11106     11107     11104     11103     11106     11108
     11104     11103     11106     11109     11105     11103     11106     11107
     11105     11103     11106     11108     11105     11103     11106     11109
     11106     11109     11112     11113     11106     11109     11112     11114
     11106     11109     11112     11115     11107     11106     11109     11110
     11107     11106     11109     11111     11107     11106     11109     11112
     11108     11106     11109     11110     11108     11106     11109     11111
     11108     11106     11109     11112     11109     11112     11115     11116
     11109     11112     11115     11117     11109     11112     11115     11118
     11110     11109     11112     11113     11110     11109     11112     11114
     11110     11109     11112     11115     11111     11109     11112     11113
     11111     11109     11112     11114     11111     11109     11112     11115
     11113     11112     11115     11116     11113     11112     11115     11117
     11113     11112     11115     11118     11114     11112     11115     11116
     11114     11112     11115     11117     11114     11112     11115     11118
     11119     11123     11126     11127     11119     11123     11126     11128
     11119     11123     11126     11133     11120     11119     11123     11124
     11120     11119     11123     11125     11120     11119     11123     11126
     11121     11119     11123     11124     11121     11119     11123     11125
     11121     11119     11123     11126     11122     11119     11123     11124
     11122     11119     11123     11125     11122     11119     11123     11126
     11123     11126     11133     11129     11124     11123     11126     11127
     11124     11123     11126     11128     11124     11123     11126     11133
     11125     11123     11126     11127     11125     11123     11126     11128
     11125     11123     11126     11133     11126     11133     11129     11130
     11126     11133     11129     11131     11126     11133     11129     11132
     11127     11126     11133     11129     11128     11126     11133     11129
     11129     11132     11134     11135     11129     11132     11134     11136
     11129     11132     11134     11137     11130     11129     11132     11134
     11131     11129     11132     11134     11132     11134     11137     11138
     11132     11134     11137     11139     11132     11134     11137     11145
     11133     11129     11132     11134     11134     11137     11139     11140
     11134     11137     11145     11146     11134     11137     11145     11147
     11134     11137     11145     11148     11135     11134     11137     11138
     11135     11134     11137     11139     11135     11134     11137     11145
     11136     11134     11137     11138     11136     11134     11137     11139
     11136     11134     11137     11145     11137     11139     11140     11141
     11137     11139     11140     11142     11137     11145     11148     11149
     11138     11137     11139     11140     11138     11137     11145     11146
     11138     11137     11145     11147     11138     11137     11145     11148
     11139     11137     11145     11146     11139     11137     11145     11147
     11139     11137     11145     11148     11139     11140     11142     11143
     11139     11140     11142     11144     11139     11140     11142     11154
     11140     11139     11137     11145     11140     11142     11154     11155
     11140     11142     11154     11156     11140     11142     11154     11157
     11141     11140     11142     11143     11141     11140     11142     11144
     11141     11140     11142     11154     11142     11154     11157     11158
     11142     11154     11157     11159     11142     11154     11157     11160
     11143     11142     11154     11155     11143     11142     11154     11156
     11143     11142     11154     11157     11144     11142     11154     11155
     11144     11142     11154     11156     11144     11142     11154     11157
     11145     11148     11149     11150     11145     11148     11149     11151
     11146     11145     11148     11149     11147     11145     11148     11149
     11148     11149     11151     11152     11148     11149     11151     11153
     11148     11149     11151     11201     11149     11151     11201     11202
     11149     11151     11201     11203     11149     11151     11201     11204
     11150     11149     11151     11152     11150     11149     11151     11153
     11150     11149     11151     11201     11151     11201     11204     11205
     11151     11201     11204     11206     11151     11201     11204     11207
     11152     11151     11201     11202     11152     11151     11201     11203
     11152     11151     11201     11204     11153     11151     11201     11202
     11153     11151     11201     11203     11153     11151     11201     11204
     11154     11157     11160     11161     11154     11157     11160     11162
     11154     11157     11160     11163     11155     11154     11157     11158
     11155     11154     11157     11159     11155     11154     11157     11160
     11156     11154     11157     11158     11156     11154     11157     11159
     11156     11154     11157     11160     11157     11160     11163     11164
     11157     11160     11163     11165     11157     11160     11163     11166
     11158     11157     11160     11161     11158     11157     11160     11162
     11158     11157     11160     11163     11159     11157     11160     11161
     11159     11157     11160     11162     11159     11157     11160     11163
     11160     11163     11166     11167     11160     11163     11166     11168
     11160     11163     11166     11169     11161     11160     11163     11164
     11161     11160     11163     11165     11161     11160     11163     11166
     11162     11160     11163     11164     11162     11160     11163     11165
     11162     11160     11163     11166     11163     11166     11169     11170
     11163     11166     11169     11171     11163     11166     11169     11172
     11164     11163     11166     11167     11164     11163     11166     11168
     11164     11163     11166     11169     11165     11163     11166     11167
     11165     11163     11166     11168     11165     11163     11166     11169
     11166     11169     11172     11173     11166     11169     11172     11174
     11167     11166     11169     11170     11167     11166     11169     11171
     11167     11166     11169     11172     11168     11166     11169     11170
     11168     11166     11169     11171     11168     11166     11169     11172
     11169     11172     11174     11175     11169     11172     11174     11176
     11170     11169     11172     11173     11170     11169     11172     11174
     11171     11169     11172     11173     11171     11169     11172     11174
     11172     11174     11176     11177     11172     11174     11176     11178
     11172     11174     11176     11179     11173     11172     11174     11175
     11173     11172     11174     11176     11174     11176     11179     11180
     11174     11176     11179     11181     11174     11176     11179     11182
     11175     11174     11176     11177     11175     11174     11176     11178
     11175     11174     11176     11179     11176     11179     11182     11183
     11176     11179     11182     11184     11176     11179     11182     11185
     11177     11176     11179     11180     11177     11176     11179     11181
     11177     11176     11179     11182     11178     11176     11179     11180
     11178     11176     11179     11181     11178     11176     11179     11182
     11179     11182     11185     11186     11179     11182     11185     11187
     11179     11182     11185     11188     11180     11179     11182     11183
     11180     11179     11182     11184     11180     11179     11182     11185
     11181     11179     11182     11183     11181     11179     11182     11184
     11181     11179     11182     11185     11182     11185     11188     11189
     11182     11185     11188     11190     11182     11185     11188     11191
     11183     11182     11185     11186     11183     11182     11185     11187
     11183     11182     11185     11188     11184     11182     11185     11186
     11184     11182     11185     11187     11184     11182     11185     11188
     11185     11188     11191     11192     11185     11188     11191     11193
     11185     11188     11191     11194     11186     11185     11188     11189
     11186     11185     11188     11190     11186     11185     11188     11191
     11187     11185     11188     11189     11187     11185     11188     11190
     11187     11185     11188     11191     11188     11191     11194     11195
     11188     11191     11194     11196     11188     11191     11194     11197
     11189     11188     11191     11192     11189     11188     11191     11193
     11189     11188     11191     11194     11190     11188     11191     11192
     11190     11188     11191     11193     11190     11188     11191     11194
     11191     11194     11197     11198     11191     11194     11197     11199
     11191     11194     11197     11200     11192     11191     11194     11195
     11192     11191     11194     11196     11192     11191     11194     11197
     11193     11191     11194     11195     11193     11191     11194     11196
     11193     11191     11194     11197     11195     11194     11197     11198
     11195     11194     11197     11199     11195     11194     11197     11200
     11196     11194     11197     11198     11196     11194     11197     11199
     11196     11194     11197     11200     11201     11204     11207     11208
     11201     11204     11207     11209     11201     11204     11207     11210
     11202     11201     11204     11205     11202     11201     11204     11206
     11202     11201     11204     11207     11203     11201     11204     11205
     11203     11201     11204     11206     11203     11201     11204     11207
     11204     11207     11210     11211     11204     11207     11210     11212
     11204     11207     11210     11213     11205     11204     11207     11208
     11205     11204     11207     11209     11205     11204     11207     11210
     11206     11204     11207     11208     11206     11204     11207     11209
     11206     11204     11207     11210     11207     11210     11213     11214
     11207     11210     11213     11215     11207     11210     11213     11216
     11208     11207     11210     11211     11208     11207     11210     11212
     11208     11207     11210     11213     11209     11207     11210     11211
     11209     11207     11210     11212     11209     11207     11210     11213
     11210     11213     11216     11217     11210     11213     11216     11218
     11210     11213     11216     11219     11211     11210     11213     11214
     11211     11210     11213     11215     11211     11210     11213     11216
     11212     11210     11213     11214     11212     11210     11213     11215
     11212     11210     11213     11216     11213     11216     11219     11220
     11213     11216     11219     11221     11213     11216     11219     11222
     11214     11213     11216     11217     11214     11213     11216     11218
     11214     11213     11216     11219     11215     11213     11216     11217
     11215     11213     11216     11218     11215     11213     11216     11219
     11216     11219     11222     11223     11216     11219     11222     11224
     11216     11219     11222     11225     11217     11216     11219     11220
     11217     11216     11219     11221     11217     11216     11219     11222
     11218     11216     11219     11220     11218     11216     11219     11221
     11218     11216     11219     11222     11219     11222     11225     11226
     11219     11222     11225     11227     11219     11222     11225     11228
     11220     11219     11222     11223     11220     11219     11222     11224
     11220     11219     11222     11225     11221     11219     11222     11223
     11221     11219     11222     11224     11221     11219     11222     11225
     11222     11225     11228     11229     11222     11225     11228     11230
     11222     11225     11228     11231     11223     11222     11225     11226
     11223     11222     11225     11227     11223     11222     11225     11228
     11224     11222     11225     11226     11224     11222     11225     11227
     11224     11222     11225     11228     11225     11228     11231     11232
     11225     11228     11231     11233     11225     11228     11231     11234
     11226     11225     11228     11229     11226     11225     11228     11230
     11226     11225     11228     11231     11227     11225     11228     11229
     11227     11225     11228     11230     11227     11225     11228     11231
     11228     11231     11234     11235     11228     11231     11234     11236
     11228     11231     11234     11237     11229     11228     11231     11232
     11229     11228     11231     11233     11229     11228     11231     11234
     11230     11228     11231     11232     11230     11228     11231     11233
     11230     11228     11231     11234     11231     11234     11237     11238
     11231     11234     11237     11239     11231     11234     11237     11240
     11232     11231     11234     11235     11232     11231     11234     11236
     11232     11231     11234     11237     11233     11231     11234     11235
     11233     11231     11234     11236     11233     11231     11234     11237
     11234     11237     11240     11241     11234     11237     11240     11242
     11234     11237     11240     11243     11235     11234     11237     11238
     11235     11234     11237     11239     11235     11234     11237     11240
     11236     11234     11237     11238     11236     11234     11237     11239
     11236     11234     11237     11240     11238     11237     11240     11241
     11238     11237     11240     11242     11238     11237     11240     11243
     11239     11237     11240     11241     11239     11237     11240     11242
     11239     11237     11240     11243     11244     11245     11260     11261
     11244     11245     11260     11262     11244     11245     11260     11266
     11245     11244     11248     11249     11245     11244     11248     11250
     11245     11244     11248     11251     11245     11244     11252     11253
     11245     11244     11252     11254     11245     11244     11252     11255
     11245     11244     11256     11257     11245     11244     11256     11258
     11245     11244     11256     11259     11245     11260     11266     11263
     11246     11245     11244     11248     11246     11245     11244     11252
     11246     11245     11244     11256     11246     11245     11260     11261
     11246     11245     11260     11262     11246     11245     11260     11266
     11247     11245     11244     11248     11247     11245     11244     11252
     11247     11245     11244     11256     11247     11245     11260     11261
     11247     11245     11260     11262     11247     11245     11260     11266
     11248     11244     11245     11260     11248     11244     11252     11253
     11248     11244     11252     11254     11248     11244     11252     11255
     11248     11244     11256     11257     11248     11244     11256     11258
     11248     11244     11256     11259     11249     11248     11244     11252
     11249     11248     11244     11256     11250     11248     11244     11252
     11250     11248     11244     11256     11251     11248     11244     11252
     11251     11248     11244     11256     11252     11244     11245     11260
     11252     11244     11256     11257     11252     11244     11256     11258
     11252     11244     11256     11259     11253     11252     11244     11256
     11254     11252     11244     11256     11255     11252     11244     11256
     11256     11244     11245     11260     11260     11266     11263     11264
     11260     11266     11263     11265     11260     11266     11263     11267
     11261     11260     11266     11263     11262     11260     11266     11263
     11263     11267     11268     11269     11263     11267     11268     11270
     11263     11267     11268     11271     11264     11263     11267     11268
     11265     11263     11267     11268     11266     11263     11267     11268
     11267     11268     11271     11272     11267     11268     11271     11273
     11267     11268     11271     11279     11268     11271     11273     11274
     11268     11271     11279     11280     11268     11271     11279     11281
     11268     11271     11279     11282     11269     11268     11271     11272
     11269     11268     11271     11273     11269     11268     11271     11279
     11270     11268     11271     11272     11270     11268     11271     11273
     11270     11268     11271     11279     11271     11273     11274     11275
     11271     11273     11274     11276     11271     11279     11282     11283
     11272     11271     11273     11274     11272     11271     11279     11280
     11272     11271     11279     11281     11272     11271     11279     11282
     11273     11271     11279     11280     11273     11271     11279     11281
     11273     11271     11279     11282     11273     11274     11276     11277
     11273     11274     11276     11278     11273     11274     11276     11288
     11274     11273     11271     11279     11274     11276     11288     11289
     11274     11276     11288     11290     11274     11276     11288     11291
     11275     11274     11276     11277     11275     11274     11276     11278
     11275     11274     11276     11288     11276     11288     11291     11292
     11276     11288     11291     11293     11276     11288     11291     11294
     11277     11276     11288     11289     11277     11276     11288     11290
     11277     11276     11288     11291     11278     11276     11288     11289
     11278     11276     11288     11290     11278     11276     11288     11291
     11279     11282     11283     11284     11279     11282     11283     11285
     11280     11279     11282     11283     11281     11279     11282     11283
     11282     11283     11285     11286     11282     11283     11285     11287
     11282     11283     11285     11335     11283     11285     11335     11336
     11283     11285     11335     11337     11283     11285     11335     11338
     11284     11283     11285     11286     11284     11283     11285     11287
     11284     11283     11285     11335     11285     11335     11338     11339
     11285     11335     11338     11340     11285     11335     11338     11341
     11286     11285     11335     11336     11286     11285     11335     11337
     11286     11285     11335     11338     11287     11285     11335     11336
     11287     11285     11335     11337     11287     11285     11335     11338
     11288     11291     11294     11295     11288     11291     11294     11296
     11288     11291     11294     11297     11289     11288     11291     11292
     11289     11288     11291     11293     11289     11288     11291     11294
     11290     11288     11291     11292     11290     11288     11291     11293
     11290     11288     11291     11294     11291     11294     11297     11298
     11291     11294     11297     11299     11291     11294     11297     11300
     11292     11291     11294     11295     11292     11291     11294     11296
     11292     11291     11294     11297     11293     11291     11294     11295
     11293     11291     11294     11296     11293     11291     11294     11297
     11294     11297     11300     11301     11294     11297     11300     11302
     11294     11297     11300     11303     11295     11294     11297     11298
     11295     11294     11297     11299     11295     11294     11297     11300
     11296     11294     11297     11298     11296     11294     11297     11299
     11296     11294     11297     11300     11297     11300     11303     11304
     11297     11300     11303     11305     11297     11300     11303     11306
     11298     11297     11300     11301     11298     11297     11300     11302
     11298     11297     11300     11303     11299     11297     11300     11301
     11299     11297     11300     11302     11299     11297     11300     11303
     11300     11303     11306     11307     11300     11303     11306     11308
     11301     11300     11303     11304     11301     11300     11303     11305
     11301     11300     11303     11306     11302     11300     11303     11304
     11302     11300     11303     11305     11302     11300     11303     11306
     11303     11306     11308     11309     11303     11306     11308     11310
     11304     11303     11306     11307     11304     11303     11306     11308
     11305     11303     11306     11307     11305     11303     11306     11308
     11306     11308     11310     11311     11306     11308     11310     11312
     11306     11308     11310     11313     11307     11306     11308     11309
     11307     11306     11308     11310     11308     11310     11313     11314
     11308     11310     11313     11315     11308     11310     11313     11316
     11309     11308     11310     11311     11309     11308     11310     11312
     11309     11308     11310     11313     11310     11313     11316     11317
     11310     11313     11316     11318     11310     11313     11316     11319
     11311     11310     11313     11314     11311     11310     11313     11315
     11311     11310     11313     11316     11312     11310     11313     11314
     11312     11310     11313     11315     11312     11310     11313     11316
     11313     11316     11319     11320     11313     11316     11319     11321
     11313     11316     11319     11322     11314     11313     11316     11317
     11314     11313     11316     11318     11314     11313     11316     11319
     11315     11313     11316     11317     11315     11313     11316     11318
     11315     11313     11316     11319     11316     11319     11322     11323
     11316     11319     11322     11324     11316     11319     11322     11325
     11317     11316     11319     11320     11317     11316     11319     11321
     11317     11316     11319     11322     11318     11316     11319     11320
     11318     11316     11319     11321     11318     11316     11319     11322
     11319     11322     11325     11326     11319     11322     11325     11327
     11319     11322     11325     11328     11320     11319     11322     11323
     11320     11319     11322     11324     11320     11319     11322     11325
     11321     11319     11322     11323     11321     11319     11322     11324
     11321     11319     11322     11325     11322     11325     11328     11329
     11322     11325     11328     11330     11322     11325     11328     11331
     11323     11322     11325     11326     11323     11322     11325     11327
     11323     11322     11325     11328     11324     11322     11325     11326
     11324     11322     11325     11327     11324     11322     11325     11328
     11325     11328     11331     11332     11325     11328     11331     11333
     11325     11328     11331     11334     11326     11325     11328     11329
     11326     11325     11328     11330     11326     11325     11328     11331
     11327     11325     11328     11329     11327     11325     11328     11330
     11327     11325     11328     11331     11329     11328     11331     11332
     11329     11328     11331     11333     11329     11328     11331     11334
     11330     11328     11331     11332     11330     11328     11331     11333
     11330     11328     11331     11334     11335     11338     11341     11342
     11335     11338     11341     11343     11335     11338     11341     11344
     11336     11335     11338     11339     11336     11335     11338     11340
     11336     11335     11338     11341     11337     11335     11338     11339
     11337     11335     11338     11340     11337     11335     11338     11341
     11338     11341     11344     11345     11338     11341     11344     11346
     11338     11341     11344     11347     11339     11338     11341     11342
     11339     11338     11341     11343     11339     11338     11341     11344
     11340     11338     11341     11342     11340     11338     11341     11343
     11340     11338     11341     11344     11341     11344     11347     11348
     11341     11344     11347     11349     11341     11344     11347     11350
     11342     11341     11344     11345     11342     11341     11344     11346
     11342     11341     11344     11347     11343     11341     11344     11345
     11343     11341     11344     11346     11343     11341     11344     11347
     11344     11347     11350     11351     11344     11347     11350     11352
     11344     11347     11350     11353     11345     11344     11347     11348
     11345     11344     11347     11349     11345     11344     11347     11350
     11346     11344     11347     11348     11346     11344     11347     11349
     11346     11344     11347     11350     11347     11350     11353     11354
     11347     11350     11353     11355     11347     11350     11353     11356
     11348     11347     11350     11351     11348     11347     11350     11352
     11348     11347     11350     11353     11349     11347     11350     11351
     11349     11347     11350     11352     11349     11347     11350     11353
     11350     11353     11356     11357     11350     11353     11356     11358
     11350     11353     11356     11359     11351     11350     11353     11354
     11351     11350     11353     11355     11351     11350     11353     11356
     11352     11350     11353     11354     11352     11350     11353     11355
     11352     11350     11353     11356     11353     11356     11359     11360
     11353     11356     11359     11361     11353     11356     11359     11362
     11354     11353     11356     11357     11354     11353     11356     11358
     11354     11353     11356     11359     11355     11353     11356     11357
     11355     11353     11356     11358     11355     11353     11356     11359
     11356     11359     11362     11363     11356     11359     11362     11364
     11356     11359     11362     11365     11357     11356     11359     11360
     11357     11356     11359     11361     11357     11356     11359     11362
     11358     11356     11359     11360     11358     11356     11359     11361
     11358     11356     11359     11362     11359     11362     11365     11366
     11359     11362     11365     11367     11359     11362     11365     11368
     11360     11359     11362     11363     11360     11359     11362     11364
     11360     11359     11362     11365     11361     11359     11362     11363
     11361     11359     11362     11364     11361     11359     11362     11365
     11362     11365     11368     11369     11362     11365     11368     11370
     11362     11365     11368     11371     11363     11362     11365     11366
     11363     11362     11365     11367     11363     11362     11365     11368
     11364     11362     11365     11366     11364     11362     11365     11367
     11364     11362     11365     11368     11365     11368     11371     11372
     11365     11368     11371     11373     11365     11368     11371     11374
     11366     11365     11368     11369     11366     11365     11368     11370
     11366     11365     11368     11371     11367     11365     11368     11369
     11367     11365     11368     11370     11367     11365     11368     11371
     11368     11371     11374     11375     11368     11371     11374     11376
     11368     11371     11374     11377     11369     11368     11371     11372
     11369     11368     11371     11373     11369     11368     11371     11374
     11370     11368     11371     11372     11370     11368     11371     11373
     11370     11368     11371     11374     11372     11371     11374     11375
     11372     11371     11374     11376     11372     11371     11374     11377
     11373     11371     11374     11375     11373     11371     11374     11376
     11373     11371     11374     11377     11378     11379     11394     11395
     11378     11379     11394     11396     11378     11379     11394     11400
     11379     11378     11382     11383     11379     11378     11382     11384
     11379     11378     11382     11385     11379     11378     11386     11387
     11379     11378     11386     11388     11379     11378     11386     11389
     11379     11378     11390     11391     11379     11378     11390     11392
     11379     11378     11390     11393     11379     11394     11400     11397
     11380     11379     11378     11382     11380     11379     11378     11386
     11380     11379     11378     11390     11380     11379     11394     11395
     11380     11379     11394     11396     11380     11379     11394     11400
     11381     11379     11378     11382     11381     11379     11378     11386
     11381     11379     11378     11390     11381     11379     11394     11395
     11381     11379     11394     11396     11381     11379     11394     11400
     11382     11378     11379     11394     11382     11378     11386     11387
     11382     11378     11386     11388     11382     11378     11386     11389
     11382     11378     11390     11391     11382     11378     11390     11392
     11382     11378     11390     11393     11383     11382     11378     11386
     11383     11382     11378     11390     11384     11382     11378     11386
     11384     11382     11378     11390     11385     11382     11378     11386
     11385     11382     11378     11390     11386     11378     11379     11394
     11386     11378     11390     11391     11386     11378     11390     11392
     11386     11378     11390     11393     11387     11386     11378     11390
     11388     11386     11378     11390     11389     11386     11378     11390
     11390     11378     11379     11394     11394     11400     11397     11398
     11394     11400     11397     11399     11394     11400     11397     11401
     11395     11394     11400     11397     11396     11394     11400     11397
     11397     11401     11402     11403     11397     11401     11402     11404
     11397     11401     11402     11405     11398     11397     11401     11402
     11399     11397     11401     11402     11400     11397     11401     11402
     11401     11402     11405     11406     11401     11402     11405     11407
     11401     11402     11405     11413     11402     11405     11407     11408
     11402     11405     11413     11414     11402     11405     11413     11415
     11402     11405     11413     11416     11403     11402     11405     11406
     11403     11402     11405     11407     11403     11402     11405     11413
     11404     11402     11405     11406     11404     11402     11405     11407
     11404     11402     11405     11413     11405     11407     11408     11409
     11405     11407     11408     11410     11405     11413     11416     11417
     11406     11405     11407     11408     11406     11405     11413     11414
     11406     11405     11413     11415     11406     11405     11413     11416
     11407     11405     11413     11414     11407     11405     11413     11415
     11407     11405     11413     11416     11407     11408     11410     11411
     11407     11408     11410     11412     11407     11408     11410     11422
     11408     11407     11405     11413     11408     11410     11422     11423
     11408     11410     11422     11424     11408     11410     11422     11425
     11409     11408     11410     11411     11409     11408     11410     11412
     11409     11408     11410     11422     11410     11422     11425     11426
     11410     11422     11425     11427     11410     11422     11425     11428
     11411     11410     11422     11423     11411     11410     11422     11424
     11411     11410     11422     11425     11412     11410     11422     11423
     11412     11410     11422     11424     11412     11410     11422     11425
     11413     11416     11417     11418     11413     11416     11417     11419
     11414     11413     11416     11417     11415     11413     11416     11417
     11416     11417     11419     11420     11416     11417     11419     11421
     11416     11417     11419     11469     11417     11419     11469     11470
     11417     11419     11469     11471     11417     11419     11469     11472
     11418     11417     11419     11420     11418     11417     11419     11421
     11418     11417     11419     11469     11419     11469     11472     11473
     11419     11469     11472     11474     11419     11469     11472     11475
     11420     11419     11469     11470     11420     11419     11469     11471
     11420     11419     11469     11472     11421     11419     11469     11470
     11421     11419     11469     11471     11421     11419     11469     11472
     11422     11425     11428     11429     11422     11425     11428     11430
     11422     11425     11428     11431     11423     11422     11425     11426
     11423     11422     11425     11427     11423     11422     11425     11428
     11424     11422     11425     11426     11424     11422     11425     11427
     11424     11422     11425     11428     11425     11428     11431     11432
     11425     11428     11431     11433     11425     11428     11431     11434
     11426     11425     11428     11429     11426     11425     11428     11430
     11426     11425     11428     11431     11427     11425     11428     11429
     11427     11425     11428     11430     11427     11425     11428     11431
     11428     11431     11434     11435     11428     11431     11434     11436
     11428     11431     11434     11437     11429     11428     11431     11432
     11429     11428     11431     11433     11429     11428     11431     11434
     11430     11428     11431     11432     11430     11428     11431     11433
     11430     11428     11431     11434     11431     11434     11437     11438
     11431     11434     11437     11439     11431     11434     11437     11440
     11432     11431     11434     11435     11432     11431     11434     11436
     11432     11431     11434     11437     11433     11431     11434     11435
     11433     11431     11434     11436     11433     11431     11434     11437
     11434     11437     11440     11441     11434     11437     11440     11442
     11435     11434     11437     11438     11435     11434     11437     11439
     11435     11434     11437     11440     11436     11434     11437     11438
     11436     11434     11437     11439     11436     11434     11437     11440
     11437     11440     11442     11443     11437     11440     11442     11444
     11438     11437     11440     11441     11438     11437     11440     11442
     11439     11437     11440     11441     11439     11437     11440     11442
     11440     11442     11444     11445     11440     11442     11444     11446
     11440     11442     11444     11447     11441     11440     11442     11443
     11441     11440     11442     11444     11442     11444     11447     11448
     11442     11444     11447     11449     11442     11444     11447     11450
     11443     11442     11444     11445     11443     11442     11444     11446
     11443     11442     11444     11447     11444     11447     11450     11451
     11444     11447     11450     11452     11444     11447     11450     11453
     11445     11444     11447     11448     11445     11444     11447     11449
     11445     11444     11447     11450     11446     11444     11447     11448
     11446     11444     11447     11449     11446     11444     11447     11450
     11447     11450     11453     11454     11447     11450     11453     11455
     11447     11450     11453     11456     11448     11447     11450     11451
     11448     11447     11450     11452     11448     11447     11450     11453
     11449     11447     11450     11451     11449     11447     11450     11452
     11449     11447     11450     11453     11450     11453     11456     11457
     11450     11453     11456     11458     11450     11453     11456     11459
     11451     11450     11453     11454     11451     11450     11453     11455
     11451     11450     11453     11456     11452     11450     11453     11454
     11452     11450     11453     11455     11452     11450     11453     11456
     11453     11456     11459     11460     11453     11456     11459     11461
     11453     11456     11459     11462     11454     11453     11456     11457
     11454     11453     11456     11458     11454     11453     11456     11459
     11455     11453     11456     11457     11455     11453     11456     11458
     11455     11453     11456     11459     11456     11459     11462     11463
     11456     11459     11462     11464     11456     11459     11462     11465
     11457     11456     11459     11460     11457     11456     11459     11461
     11457     11456     11459     11462     11458     11456     11459     11460
     11458     11456     11459     11461     11458     11456     11459     11462
     11459     11462     11465     11466     11459     11462     11465     11467
     11459     11462     11465     11468     11460     11459     11462     11463
     11460     11459     11462     11464     11460     11459     11462     11465
     11461     11459     11462     11463     11461     11459     11462     11464
     11461     11459     11462     11465     11463     11462     11465     11466
     11463     11462     11465     11467     11463     11462     11465     11468
     11464     11462     11465     11466     11464     11462     11465     11467
     11464     11462     11465     11468     11469     11472     11475     11476
     11469     11472     11475     11477     11469     11472     11475     11478
     11470     11469     11472     11473     11470     11469     11472     11474
     11470     11469     11472     11475     11471     11469     11472     11473
     11471     11469     11472     11474     11471     11469     11472     11475
     11472     11475     11478     11479     11472     11475     11478     11480
     11472     11475     11478     11481     11473     11472     11475     11476
     11473     11472     11475     11477     11473     11472     11475     11478
     11474     11472     11475     11476     11474     11472     11475     11477
     11474     11472     11475     11478     11475     11478     11481     11482
     11475     11478     11481     11483     11475     11478     11481     11484
     11476     11475     11478     11479     11476     11475     11478     11480
     11476     11475     11478     11481     11477     11475     11478     11479
     11477     11475     11478     11480     11477     11475     11478     11481
     11478     11481     11484     11485     11478     11481     11484     11486
     11478     11481     11484     11487     11479     11478     11481     11482
     11479     11478     11481     11483     11479     11478     11481     11484
     11480     11478     11481     11482     11480     11478     11481     11483
     11480     11478     11481     11484     11481     11484     11487     11488
     11481     11484     11487     11489     11481     11484     11487     11490
     11482     11481     11484     11485     11482     11481     11484     11486
     11482     11481     11484     11487     11483     11481     11484     11485
     11483     11481     11484     11486     11483     11481     11484     11487
     11484     11487     11490     11491     11484     11487     11490     11492
     11484     11487     11490     11493     11485     11484     11487     11488
     11485     11484     11487     11489     11485     11484     11487     11490
     11486     11484     11487     11488     11486     11484     11487     11489
     11486     11484     11487     11490     11487     11490     11493     11494
     11487     11490     11493     11495     11487     11490     11493     11496
     11488     11487     11490     11491     11488     11487     11490     11492
     11488     11487     11490     11493     11489     11487     11490     11491
     11489     11487     11490     11492     11489     11487     11490     11493
     11490     11493     11496     11497     11490     11493     11496     11498
     11490     11493     11496     11499     11491     11490     11493     11494
     11491     11490     11493     11495     11491     11490     11493     11496
     11492     11490     11493     11494     11492     11490     11493     11495
     11492     11490     11493     11496     11493     11496     11499     11500
     11493     11496     11499     11501     11493     11496     11499     11502
     11494     11493     11496     11497     11494     11493     11496     11498
     11494     11493     11496     11499     11495     11493     11496     11497
     11495     11493     11496     11498     11495     11493     11496     11499
     11496     11499     11502     11503     11496     11499     11502     11504
     11496     11499     11502     11505     11497     11496     11499     11500
     11497     11496     11499     11501     11497     11496     11499     11502
     11498     11496     11499     11500     11498     11496     11499     11501
     11498     11496     11499     11502     11499     11502     11505     11506
     11499     11502     11505     11507     11499     11502     11505     11508
     11500     11499     11502     11503     11500     11499     11502     11504
     11500     11499     11502     11505     11501     11499     11502     11503
     11501     11499     11502     11504     11501     11499     11502     11505
     11502     11505     11508     11509     11502     11505     11508     11510
     11502     11505     11508     11511     11503     11502     11505     11506
     11503     11502     11505     11507     11503     11502     11505     11508
     11504     11502     11505     11506     11504     11502     11505     11507
     11504     11502     11505     11508     11506     11505     11508     11509
     11506     11505     11508     11510     11506     11505     11508     11511
     11507     11505     11508     11509     11507     11505     11508     11510
     11507     11505     11508     11511     11512     11513     11528     11529
     11512     11513     11528     11530     11512     11513     11528     11534
     11513     11512     11516     11517     11513     11512     11516     11518
     11513     11512     11516     11519     11513     11512     11520     11521
     11513     11512     11520     11522     11513     11512     11520     11523
     11513     11512     11524     11525     11513     11512     11524     11526
     11513     11512     11524     11527     11513     11528     11534     11531
     11514     11513     11512     11516     11514     11513     11512     11520
     11514     11513     11512     11524     11514     11513     11528     11529
     11514     11513     11528     11530     11514     11513     11528     11534
     11515     11513     11512     11516     11515     11513     11512     11520
     11515     11513     11512     11524     11515     11513     11528     11529
     11515     11513     11528     11530     11515     11513     11528     11534
     11516     11512     11513     11528     11516     11512     11520     11521
     11516     11512     11520     11522     11516     11512     11520     11523
     11516     11512     11524     11525     11516     11512     11524     11526
     11516     11512     11524     11527     11517     11516     11512     11520
     11517     11516     11512     11524     11518     11516     11512     11520
     11518     11516     11512     11524     11519     11516     11512     11520
     11519     11516     11512     11524     11520     11512     11513     11528
     11520     11512     11524     11525     11520     11512     11524     11526
     11520     11512     11524     11527     11521     11520     11512     11524
     11522     11520     11512     11524     11523     11520     11512     11524
     11524     11512     11513     11528     11528     11534     11531     11532
     11528     11534     11531     11533     11528     11534     11531     11535
     11529     11528     11534     11531     11530     11528     11534     11531
     11531     11535     11536     11537     11531     11535     11536     11538
     11531     11535     11536     11539     11532     11531     11535     11536
     11533     11531     11535     11536     11534     11531     11535     11536
     11535     11536     11539     11540     11535     11536     11539     11541
     11535     11536     11539     11547     11536     11539     11541     11542
     11536     11539     11547     11548     11536     11539     11547     11549
     11536     11539     11547     11550     11537     11536     11539     11540
     11537     11536     11539     11541     11537     11536     11539     11547
     11538     11536     11539     11540     11538     11536     11539     11541
     11538     11536     11539     11547     11539     11541     11542     11543
     11539     11541     11542     11544     11539     11547     11550     11551
     11540     11539     11541     11542     11540     11539     11547     11548
     11540     11539     11547     11549     11540     11539     11547     11550
     11541     11539     11547     11548     11541     11539     11547     11549
     11541     11539     11547     11550     11541     11542     11544     11545
     11541     11542     11544     11546     11541     11542     11544     11556
     11542     11541     11539     11547     11542     11544     11556     11557
     11542     11544     11556     11558     11542     11544     11556     11559
     11543     11542     11544     11545     11543     11542     11544     11546
     11543     11542     11544     11556     11544     11556     11559     11560
     11544     11556     11559     11561     11544     11556     11559     11562
     11545     11544     11556     11557     11545     11544     11556     11558
     11545     11544     11556     11559     11546     11544     11556     11557
     11546     11544     11556     11558     11546     11544     11556     11559
     11547     11550     11551     11552     11547     11550     11551     11553
     11548     11547     11550     11551     11549     11547     11550     11551
     11550     11551     11553     11554     11550     11551     11553     11555
     11550     11551     11553     11603     11551     11553     11603     11604
     11551     11553     11603     11605     11551     11553     11603     11606
     11552     11551     11553     11554     11552     11551     11553     11555
     11552     11551     11553     11603     11553     11603     11606     11607
     11553     11603     11606     11608     11553     11603     11606     11609
     11554     11553     11603     11604     11554     11553     11603     11605
     11554     11553     11603     11606     11555     11553     11603     11604
     11555     11553     11603     11605     11555     11553     11603     11606
     11556     11559     11562     11563     11556     11559     11562     11564
     11556     11559     11562     11565     11557     11556     11559     11560
     11557     11556     11559     11561     11557     11556     11559     11562
     11558     11556     11559     11560     11558     11556     11559     11561
     11558     11556     11559     11562     11559     11562     11565     11566
     11559     11562     11565     11567     11559     11562     11565     11568
     11560     11559     11562     11563     11560     11559     11562     11564
     11560     11559     11562     11565     11561     11559     11562     11563
     11561     11559     11562     11564     11561     11559     11562     11565
     11562     11565     11568     11569     11562     11565     11568     11570
     11562     11565     11568     11571     11563     11562     11565     11566
     11563     11562     11565     11567     11563     11562     11565     11568
     11564     11562     11565     11566     11564     11562     11565     11567
     11564     11562     11565     11568     11565     11568     11571     11572
     11565     11568     11571     11573     11565     11568     11571     11574
     11566     11565     11568     11569     11566     11565     11568     11570
     11566     11565     11568     11571     11567     11565     11568     11569
     11567     11565     11568     11570     11567     11565     11568     11571
     11568     11571     11574     11575     11568     11571     11574     11576
     11569     11568     11571     11572     11569     11568     11571     11573
     11569     11568     11571     11574     11570     11568     11571     11572
     11570     11568     11571     11573     11570     11568     11571     11574
     11571     11574     11576     11577     11571     11574     11576     11578
     11572     11571     11574     11575     11572     11571     11574     11576
     11573     11571     11574     11575     11573     11571     11574     11576
     11574     11576     11578     11579     11574     11576     11578     11580
     11574     11576     11578     11581     11575     11574     11576     11577
     11575     11574     11576     11578     11576     11578     11581     11582
     11576     11578     11581     11583     11576     11578     11581     11584
     11577     11576     11578     11579     11577     11576     11578     11580
     11577     11576     11578     11581     11578     11581     11584     11585
     11578     11581     11584     11586     11578     11581     11584     11587
     11579     11578     11581     11582     11579     11578     11581     11583
     11579     11578     11581     11584     11580     11578     11581     11582
     11580     11578     11581     11583     11580     11578     11581     11584
     11581     11584     11587     11588     11581     11584     11587     11589
     11581     11584     11587     11590     11582     11581     11584     11585
     11582     11581     11584     11586     11582     11581     11584     11587
     11583     11581     11584     11585     11583     11581     11584     11586
     11583     11581     11584     11587     11584     11587     11590     11591
     11584     11587     11590     11592     11584     11587     11590     11593
     11585     11584     11587     11588     11585     11584     11587     11589
     11585     11584     11587     11590     11586     11584     11587     11588
     11586     11584     11587     11589     11586     11584     11587     11590
     11587     11590     11593     11594     11587     11590     11593     11595
     11587     11590     11593     11596     11588     11587     11590     11591
     11588     11587     11590     11592     11588     11587     11590     11593
     11589     11587     11590     11591     11589     11587     11590     11592
     11589     11587     11590     11593     11590     11593     11596     11597
     11590     11593     11596     11598     11590     11593     11596     11599
     11591     11590     11593     11594     11591     11590     11593     11595
     11591     11590     11593     11596     11592     11590     11593     11594
     11592     11590     11593     11595     11592     11590     11593     11596
     11593     11596     11599     11600     11593     11596     11599     11601
     11593     11596     11599     11602     11594     11593     11596     11597
     11594     11593     11596     11598     11594     11593     11596     11599
     11595     11593     11596     11597     11595     11593     11596     11598
     11595     11593     11596     11599     11597     11596     11599     11600
     11597     11596     11599     11601     11597     11596     11599     11602
     11598     11596     11599     11600     11598     11596     11599     11601
     11598     11596     11599     11602     11603     11606     11609     11610
     11603     11606     11609     11611     11603     11606     11609     11612
     11604     11603     11606     11607     11604     11603     11606     11608
     11604     11603     11606     11609     11605     11603     11606     11607
     11605     11603     11606     11608     11605     11603     11606     11609
     11606     11609     11612     11613     11606     11609     11612     11614
     11606     11609     11612     11615     11607     11606     11609     11610
     11607     11606     11609     11611     11607     11606     11609     11612
     11608     11606     11609     11610     11608     11606     11609     11611
     11608     11606     11609     11612     11609     11612     11615     11616
     11609     11612     11615     11617     11609     11612     11615     11618
     11610     11609     11612     11613     11610     11609     11612     11614
     11610     11609     11612     11615     11611     11609     11612     11613
     11611     11609     11612     11614     11611     11609     11612     11615
     11612     11615     11618     11619     11612     11615     11618     11620
     11612     11615     11618     11621     11613     11612     11615     11616
     11613     11612     11615     11617     11613     11612     11615     11618
     11614     11612     11615     11616     11614     11612     11615     11617
     11614     11612     11615     11618     11615     11618     11621     11622
     11615     11618     11621     11623     11615     11618     11621     11624
     11616     11615     11618     11619     11616     11615     11618     11620
     11616     11615     11618     11621     11617     11615     11618     11619
     11617     11615     11618     11620     11617     11615     11618     11621
     11618     11621     11624     11625     11618     11621     11624     11626
     11618     11621     11624     11627     11619     11618     11621     11622
     11619     11618     11621     11623     11619     11618     11621     11624
     11620     11618     11621     11622     11620     11618     11621     11623
     11620     11618     11621     11624     11621     11624     11627     11628
     11621     11624     11627     11629     11621     11624     11627     11630
     11622     11621     11624     11625     11622     11621     11624     11626
     11622     11621     11624     11627     11623     11621     11624     11625
     11623     11621     11624     11626     11623     11621     11624     11627
     11624     11627     11630     11631     11624     11627     11630     11632
     11624     11627     11630     11633     11625     11624     11627     11628
     11625     11624     11627     11629     11625     11624     11627     11630
     11626     11624     11627     11628     11626     11624     11627     11629
     11626     11624     11627     11630     11627     11630     11633     11634
     11627     11630     11633     11635     11627     11630     11633     11636
     11628     11627     11630     11631     11628     11627     11630     11632
     11628     11627     11630     11633     11629     11627     11630     11631
     11629     11627     11630     11632     11629     11627     11630     11633
     11630     11633     11636     11637     11630     11633     11636     11638
     11630     11633     11636     11639     11631     11630     11633     11634
     11631     11630     11633     11635     11631     11630     11633     11636
     11632     11630     11633     11634     11632     11630     11633     11635
     11632     11630     11633     11636     11633     11636     11639     11640
     11633     11636     11639     11641     11633     11636     11639     11642
     11634     11633     11636     11637     11634     11633     11636     11638
     11634     11633     11636     11639     11635     11633     11636     11637
     11635     11633     11636     11638     11635     11633     11636     11639
     11636     11639     11642     11643     11636     11639     11642     11644
     11636     11639     11642     11645     11637     11636     11639     11640
     11637     11636     11639     11641     11637     11636     11639     11642
     11638     11636     11639     11640     11638     11636     11639     11641
     11638     11636     11639     11642     11640     11639     11642     11643
     11640     11639     11642     11644     11640     11639     11642     11645
     11641     11639     11642     11643     11641     11639     11642     11644
     11641     11639     11642     11645     11646     11650     11653     11654
     11646     11650     11653     11655     11646     11650     11653     11660
     11647     11646     11650     11651     11647     11646     11650     11652
     11647     11646     11650     11653     11648     11646     11650     11651
     11648     11646     11650     11652     11648     11646     11650     11653
     11649     11646     11650     11651     11649     11646     11650     11652
     11649     11646     11650     11653     11650     11653     11660     11656
     11651     11650     11653     11654     11651     11650     11653     11655
     11651     11650     11653     11660     11652     11650     11653     11654
     11652     11650     11653     11655     11652     11650     11653     11660
     11653     11660     11656     11657     11653     11660     11656     11658
     11653     11660     11656     11659     11654     11653     11660     11656
     11655     11653     11660     11656     11656     11659     11661     11662
     11656     11659     11661     11663     11656     11659     11661     11664
     11657     11656     11659     11661     11658     11656     11659     11661
     11659     11661     11664     11665     11659     11661     11664     11666
     11659     11661     11664     11672     11660     11656     11659     11661
     11661     11664     11666     11667     11661     11664     11672     11673
     11661     11664     11672     11674     11661     11664     11672     11675
     11662     11661     11664     11665     11662     11661     11664     11666
     11662     11661     11664     11672     11663     11661     11664     11665
     11663     11661     11664     11666     11663     11661     11664     11672
     11664     11666     11667     11668     11664     11666     11667     11669
     11664     11672     11675     11676     11665     11664     11666     11667
     11665     11664     11672     11673     11665     11664     11672     11674
     11665     11664     11672     11675     11666     11664     11672     11673
     11666     11664     11672     11674     11666     11664     11672     11675
     11666     11667     11669     11670     11666     11667     11669     11671
     11666     11667     11669     11681     11667     11666     11664     11672
     11667     11669     11681     11682     11667     11669     11681     11683
     11667     11669     11681     11684     11668     11667     11669     11670
     11668     11667     11669     11671     11668     11667     11669     11681
     11669     11681     11684     11685     11669     11681     11684     11686
     11669     11681     11684     11687     11670     11669     11681     11682
     11670     11669     11681     11683     11670     11669     11681     11684
     11671     11669     11681     11682     11671     11669     11681     11683
     11671     11669     11681     11684     11672     11675     11676     11677
     11672     11675     11676     11678     11673     11672     11675     11676
     11674     11672     11675     11676     11675     11676     11678     11679
     11675     11676     11678     11680     11675     11676     11678     11728
     11676     11678     11728     11729     11676     11678     11728     11730
     11676     11678     11728     11731     11677     11676     11678     11679
     11677     11676     11678     11680     11677     11676     11678     11728
     11678     11728     11731     11732     11678     11728     11731     11733
     11678     11728     11731     11734     11679     11678     11728     11729
     11679     11678     11728     11730     11679     11678     11728     11731
     11680     11678     11728     11729     11680     11678     11728     11730
     11680     11678     11728     11731     11681     11684     11687     11688
     11681     11684     11687     11689     11681     11684     11687     11690
     11682     11681     11684     11685     11682     11681     11684     11686
     11682     11681     11684     11687     11683     11681     11684     11685
     11683     11681     11684     11686     11683     11681     11684     11687
     11684     11687     11690     11691     11684     11687     11690     11692
     11684     11687     11690     11693     11685     11684     11687     11688
     11685     11684     11687     11689     11685     11684     11687     11690
     11686     11684     11687     11688     11686     11684     11687     11689
     11686     11684     11687     11690     11687     11690     11693     11694
     11687     11690     11693     11695     11687     11690     11693     11696
     11688     11687     11690     11691     11688     11687     11690     11692
     11688     11687     11690     11693     11689     11687     11690     11691
     11689     11687     11690     11692     11689     11687     11690     11693
     11690     11693     11696     11697     11690     11693     11696     11698
     11690     11693     11696     11699     11691     11690     11693     11694
     11691     11690     11693     11695     11691     11690     11693     11696
     11692     11690     11693     11694     11692     11690     11693     11695
     11692     11690     11693     11696     11693     11696     11699     11700
     11693     11696     11699     11701     11694     11693     11696     11697
     11694     11693     11696     11698     11694     11693     11696     11699
     11695     11693     11696     11697     11695     11693     11696     11698
     11695     11693     11696     11699     11696     11699     11701     11702
     11696     11699     11701     11703     11697     11696     11699     11700
     11697     11696     11699     11701     11698     11696     11699     11700
     11698     11696     11699     11701     11699     11701     11703     11704
     11699     11701     11703     11705     11699     11701     11703     11706
     11700     11699     11701     11702     11700     11699     11701     11703
     11701     11703     11706     11707     11701     11703     11706     11708
     11701     11703     11706     11709     11702     11701     11703     11704
     11702     11701     11703     11705     11702     11701     11703     11706
     11703     11706     11709     11710     11703     11706     11709     11711
     11703     11706     11709     11712     11704     11703     11706     11707
     11704     11703     11706     11708     11704     11703     11706     11709
     11705     11703     11706     11707     11705     11703     11706     11708
     11705     11703     11706     11709     11706     11709     11712     11713
     11706     11709     11712     11714     11706     11709     11712     11715
     11707     11706     11709     11710     11707     11706     11709     11711
     11707     11706     11709     11712     11708     11706     11709     11710
     11708     11706     11709     11711     11708     11706     11709     11712
     11709     11712     11715     11716     11709     11712     11715     11717
     11709     11712     11715     11718     11710     11709     11712     11713
     11710     11709     11712     11714     11710     11709     11712     11715
     11711     11709     11712     11713     11711     11709     11712     11714
     11711     11709     11712     11715     11712     11715     11718     11719
     11712     11715     11718     11720     11712     11715     11718     11721
     11713     11712     11715     11716     11713     11712     11715     11717
     11713     11712     11715     11718     11714     11712     11715     11716
     11714     11712     11715     11717     11714     11712     11715     11718
     11715     11718     11721     11722     11715     11718     11721     11723
     11715     11718     11721     11724     11716     11715     11718     11719
     11716     11715     11718     11720     11716     11715     11718     11721
     11717     11715     11718     11719     11717     11715     11718     11720
     11717     11715     11718     11721     11718     11721     11724     11725
     11718     11721     11724     11726     11718     11721     11724     11727
     11719     11718     11721     11722     11719     11718     11721     11723
     11719     11718     11721     11724     11720     11718     11721     11722
     11720     11718     11721     11723     11720     11718     11721     11724
     11722     11721     11724     11725     11722     11721     11724     11726
     11722     11721     11724     11727     11723     11721     11724     11725
     11723     11721     11724     11726     11723     11721     11724     11727
     11728     11731     11734     11735     11728     11731     11734     11736
     11728     11731     11734     11737     11729     11728     11731     11732
     11729     11728     11731     11733     11729     11728     11731     11734
     11730     11728     11731     11732     11730     11728     11731     11733
     11730     11728     11731     11734     11731     11734     11737     11738
     11731     11734     11737     11739     11731     11734     11737     11740
     11732     11731     11734     11735     11732     11731     11734     11736
     11732     11731     11734     11737     11733     11731     11734     11735
     11733     11731     11734     11736     11733     11731     11734     11737
     11734     11737     11740     11741     11734     11737     11740     11742
     11734     11737     11740     11743     11735     11734     11737     11738
     11735     11734     11737     11739     11735     11734     11737     11740
     11736     11734     11737     11738     11736     11734     11737     11739
     11736     11734     11737     11740     11737     11740     11743     11744
     11737     11740     11743     11745     11737     11740     11743     11746
     11738     11737     11740     11741     11738     11737     11740     11742
     11738     11737     11740     11743     11739     11737     11740     11741
     11739     11737     11740     11742     11739     11737     11740     11743
     11740     11743     11746     11747     11740     11743     11746     11748
     11740     11743     11746     11749     11741     11740     11743     11744
     11741     11740     11743     11745     11741     11740     11743     11746
     11742     11740     11743     11744     11742     11740     11743     11745
     11742     11740     11743     11746     11743     11746     11749     11750
     11743     11746     11749     11751     11743     11746     11749     11752
     11744     11743     11746     11747     11744     11743     11746     11748
     11744     11743     11746     11749     11745     11743     11746     11747
     11745     11743     11746     11748     11745     11743     11746     11749
     11746     11749     11752     11753     11746     11749     11752     11754
     11746     11749     11752     11755     11747     11746     11749     11750
     11747     11746     11749     11751     11747     11746     11749     11752
     11748     11746     11749     11750     11748     11746     11749     11751
     11748     11746     11749     11752     11749     11752     11755     11756
     11749     11752     11755     11757     11749     11752     11755     11758
     11750     11749     11752     11753     11750     11749     11752     11754
     11750     11749     11752     11755     11751     11749     11752     11753
     11751     11749     11752     11754     11751     11749     11752     11755
     11752     11755     11758     11759     11752     11755     11758     11760
     11752     11755     11758     11761     11753     11752     11755     11756
     11753     11752     11755     11757     11753     11752     11755     11758
     11754     11752     11755     11756     11754     11752     11755     11757
     11754     11752     11755     11758     11755     11758     11761     11762
     11755     11758     11761     11763     11755     11758     11761     11764
     11756     11755     11758     11759     11756     11755     11758     11760
     11756     11755     11758     11761     11757     11755     11758     11759
     11757     11755     11758     11760     11757     11755     11758     11761
     11758     11761     11764     11765     11758     11761     11764     11766
     11758     11761     11764     11767     11759     11758     11761     11762
     11759     11758     11761     11763     11759     11758     11761     11764
     11760     11758     11761     11762     11760     11758     11761     11763
     11760     11758     11761     11764     11761     11764     11767     11768
     11761     11764     11767     11769     11761     11764     11767     11770
     11762     11761     11764     11765     11762     11761     11764     11766
     11762     11761     11764     11767     11763     11761     11764     11765
     11763     11761     11764     11766     11763     11761     11764     11767
     11765     11764     11767     11768     11765     11764     11767     11769
     11765     11764     11767     11770     11766     11764     11767     11768
     11766     11764     11767     11769     11766     11764     11767     11770
     11771     11772     11787     11788     11771     11772     11787     11789
     11771     11772     11787     11793     11772     11771     11775     11776
     11772     11771     11775     11777     11772     11771     11775     11778
     11772     11771     11779     11780     11772     11771     11779     11781
     11772     11771     11779     11782     11772     11771     11783     11784
     11772     11771     11783     11785     11772     11771     11783     11786
     11772     11787     11793     11790     11773     11772     11771     11775
     11773     11772     11771     11779     11773     11772     11771     11783
     11773     11772     11787     11788     11773     11772     11787     11789
     11773     11772     11787     11793     11774     11772     11771     11775
     11774     11772     11771     11779     11774     11772     11771     11783
     11774     11772     11787     11788     11774     11772     11787     11789
     11774     11772     11787     11793     11775     11771     11772     11787
     11775     11771     11779     11780     11775     11771     11779     11781
     11775     11771     11779     11782     11775     11771     11783     11784
     11775     11771     11783     11785     11775     11771     11783     11786
     11776     11775     11771     11779     11776     11775     11771     11783
     11777     11775     11771     11779     11777     11775     11771     11783
     11778     11775     11771     11779     11778     11775     11771     11783
     11779     11771     11772     11787     11779     11771     11783     11784
     11779     11771     11783     11785     11779     11771     11783     11786
     11780     11779     11771     11783     11781     11779     11771     11783
     11782     11779     11771     11783     11783     11771     11772     11787
     11787     11793     11790     11791     11787     11793     11790     11792
     11787     11793     11790     11794     11788     11787     11793     11790
     11789     11787     11793     11790     11790     11794     11795     11796
     11790     11794     11795     11797     11790     11794     11795     11798
     11791     11790     11794     11795     11792     11790     11794     11795
     11793     11790     11794     11795     11794     11795     11798     11799
     11794     11795     11798     11800     11794     11795     11798     11806
     11795     11798     11800     11801     11795     11798     11806     11807
     11795     11798     11806     11808     11795     11798     11806     11809
     11796     11795     11798     11799     11796     11795     11798     11800
     11796     11795     11798     11806     11797     11795     11798     11799
     11797     11795     11798     11800     11797     11795     11798     11806
     11798     11800     11801     11802     11798     11800     11801     11803
     11798     11806     11809     11810     11799     11798     11800     11801
     11799     11798     11806     11807     11799     11798     11806     11808
     11799     11798     11806     11809     11800     11798     11806     11807
     11800     11798     11806     11808     11800     11798     11806     11809
     11800     11801     11803     11804     11800     11801     11803     11805
     11800     11801     11803     11815     11801     11800     11798     11806
     11801     11803     11815     11816     11801     11803     11815     11817
     11801     11803     11815     11818     11802     11801     11803     11804
     11802     11801     11803     11805     11802     11801     11803     11815
     11803     11815     11818     11819     11803     11815     11818     11820
     11803     11815     11818     11821     11804     11803     11815     11816
     11804     11803     11815     11817     11804     11803     11815     11818
     11805     11803     11815     11816     11805     11803     11815     11817
     11805     11803     11815     11818     11806     11809     11810     11811
     11806     11809     11810     11812     11807     11806     11809     11810
     11808     11806     11809     11810     11809     11810     11812     11813
     11809     11810     11812     11814     11809     11810     11812     11862
     11810     11812     11862     11863     11810     11812     11862     11864
     11810     11812     11862     11865     11811     11810     11812     11813
     11811     11810     11812     11814     11811     11810     11812     11862
     11812     11862     11865     11866     11812     11862     11865     11867
     11812     11862     11865     11868     11813     11812     11862     11863
     11813     11812     11862     11864     11813     11812     11862     11865
     11814     11812     11862     11863     11814     11812     11862     11864
     11814     11812     11862     11865     11815     11818     11821     11822
     11815     11818     11821     11823     11815     11818     11821     11824
     11816     11815     11818     11819     11816     11815     11818     11820
     11816     11815     11818     11821     11817     11815     11818     11819
     11817     11815     11818     11820     11817     11815     11818     11821
     11818     11821     11824     11825     11818     11821     11824     11826
     11818     11821     11824     11827     11819     11818     11821     11822
     11819     11818     11821     11823     11819     11818     11821     11824
     11820     11818     11821     11822     11820     11818     11821     11823
     11820     11818     11821     11824     11821     11824     11827     11828
     11821     11824     11827     11829     11821     11824     11827     11830
     11822     11821     11824     11825     11822     11821     11824     11826
     11822     11821     11824     11827     11823     11821     11824     11825
     11823     11821     11824     11826     11823     11821     11824     11827
     11824     11827     11830     11831     11824     11827     11830     11832
     11824     11827     11830     11833     11825     11824     11827     11828
     11825     11824     11827     11829     11825     11824     11827     11830
     11826     11824     11827     11828     11826     11824     11827     11829
     11826     11824     11827     11830     11827     11830     11833     11834
     11827     11830     11833     11835     11828     11827     11830     11831
     11828     11827     11830     11832     11828     11827     11830     11833
     11829     11827     11830     11831     11829     11827     11830     11832
     11829     11827     11830     11833     11830     11833     11835     11836
     11830     11833     11835     11837     11831     11830     11833     11834
     11831     11830     11833     11835     11832     11830     11833     11834
     11832     11830     11833     11835     11833     11835     11837     11838
     11833     11835     11837     11839     11833     11835     11837     11840
     11834     11833     11835     11836     11834     11833     11835     11837
     11835     11837     11840     11841     11835     11837     11840     11842
     11835     11837     11840     11843     11836     11835     11837     11838
     11836     11835     11837     11839     11836     11835     11837     11840
     11837     11840     11843     11844     11837     11840     11843     11845
     11837     11840     11843     11846     11838     11837     11840     11841
     11838     11837     11840     11842     11838     11837     11840     11843
     11839     11837     11840     11841     11839     11837     11840     11842
     11839     11837     11840     11843     11840     11843     11846     11847
     11840     11843     11846     11848     11840     11843     11846     11849
     11841     11840     11843     11844     11841     11840     11843     11845
     11841     11840     11843     11846     11842     11840     11843     11844
     11842     11840     11843     11845     11842     11840     11843     11846
     11843     11846     11849     11850     11843     11846     11849     11851
     11843     11846     11849     11852     11844     11843     11846     11847
     11844     11843     11846     11848     11844     11843     11846     11849
     11845     11843     11846     11847     11845     11843     11846     11848
     11845     11843     11846     11849     11846     11849     11852     11853
     11846     11849     11852     11854     11846     11849     11852     11855
     11847     11846     11849     11850     11847     11846     11849     11851
     11847     11846     11849     11852     11848     11846     11849     11850
     11848     11846     11849     11851     11848     11846     11849     11852
     11849     11852     11855     11856     11849     11852     11855     11857
     11849     11852     11855     11858     11850     11849     11852     11853
     11850     11849     11852     11854     11850     11849     11852     11855
     11851     11849     11852     11853     11851     11849     11852     11854
     11851     11849     11852     11855     11852     11855     11858     11859
     11852     11855     11858     11860     11852     11855     11858     11861
     11853     11852     11855     11856     11853     11852     11855     11857
     11853     11852     11855     11858     11854     11852     11855     11856
     11854     11852     11855     11857     11854     11852     11855     11858
     11856     11855     11858     11859     11856     11855     11858     11860
     11856     11855     11858     11861     11857     11855     11858     11859
     11857     11855     11858     11860     11857     11855     11858     11861
     11862     11865     11868     11869     11862     11865     11868     11870
     11862     11865     11868     11871     11863     11862     11865     11866
     11863     11862     11865     11867     11863     11862     11865     11868
     11864     11862     11865     11866     11864     11862     11865     11867
     11864     11862     11865     11868     11865     11868     11871     11872
     11865     11868     11871     11873     11865     11868     11871     11874
     11866     11865     11868     11869     11866     11865     11868     11870
     11866     11865     11868     11871     11867     11865     11868     11869
     11867     11865     11868     11870     11867     11865     11868     11871
     11868     11871     11874     11875     11868     11871     11874     11876
     11868     11871     11874     11877     11869     11868     11871     11872
     11869     11868     11871     11873     11869     11868     11871     11874
     11870     11868     11871     11872     11870     11868     11871     11873
     11870     11868     11871     11874     11871     11874     11877     11878
     11871     11874     11877     11879     11871     11874     11877     11880
     11872     11871     11874     11875     11872     11871     11874     11876
     11872     11871     11874     11877     11873     11871     11874     11875
     11873     11871     11874     11876     11873     11871     11874     11877
     11874     11877     11880     11881     11874     11877     11880     11882
     11874     11877     11880     11883     11875     11874     11877     11878
     11875     11874     11877     11879     11875     11874     11877     11880
     11876     11874     11877     11878     11876     11874     11877     11879
     11876     11874     11877     11880     11877     11880     11883     11884
     11877     11880     11883     11885     11877     11880     11883     11886
     11878     11877     11880     11881     11878     11877     11880     11882
     11878     11877     11880     11883     11879     11877     11880     11881
     11879     11877     11880     11882     11879     11877     11880     11883
     11880     11883     11886     11887     11880     11883     11886     11888
     11880     11883     11886     11889     11881     11880     11883     11884
     11881     11880     11883     11885     11881     11880     11883     11886
     11882     11880     11883     11884     11882     11880     11883     11885
     11882     11880     11883     11886     11883     11886     11889     11890
     11883     11886     11889     11891     11883     11886     11889     11892
     11884     11883     11886     11887     11884     11883     11886     11888
     11884     11883     11886     11889     11885     11883     11886     11887
     11885     11883     11886     11888     11885     11883     11886     11889
     11886     11889     11892     11893     11886     11889     11892     11894
     11886     11889     11892     11895     11887     11886     11889     11890
     11887     11886     11889     11891     11887     11886     11889     11892
     11888     11886     11889     11890     11888     11886     11889     11891
     11888     11886     11889     11892     11889     11892     11895     11896
     11889     11892     11895     11897     11889     11892     11895     11898
     11890     11889     11892     11893     11890     11889     11892     11894
     11890     11889     11892     11895     11891     11889     11892     11893
     11891     11889     11892     11894     11891     11889     11892     11895
     11892     11895     11898     11899     11892     11895     11898     11900
     11892     11895     11898     11901     11893     11892     11895     11896
     11893     11892     11895     11897     11893     11892     11895     11898
     11894     11892     11895     11896     11894     11892     11895     11897
     11894     11892     11895     11898     11895     11898     11901     11902
     11895     11898     11901     11903     11895     11898     11901     11904
     11896     11895     11898     11899     11896     11895     11898     11900
     11896     11895     11898     11901     11897     11895     11898     11899
     11897     11895     11898     11900     11897     11895     11898     11901
     11899     11898     11901     11902     11899     11898     11901     11903
     11899     11898     11901     11904     11900     11898     11901     11902
     11900     11898     11901     11903     11900     11898     11901     11904
     11905     11906     11921     11922     11905     11906     11921     11923
     11905     11906     11921     11927     11906     11905     11909     11910
     11906     11905     11909     11911     11906     11905     11909     11912
     11906     11905     11913     11914     11906     11905     11913     11915
     11906     11905     11913     11916     11906     11905     11917     11918
     11906     11905     11917     11919     11906     11905     11917     11920
     11906     11921     11927     11924     11907     11906     11905     11909
     11907     11906     11905     11913     11907     11906     11905     11917
     11907     11906     11921     11922     11907     11906     11921     11923
     11907     11906     11921     11927     11908     11906     11905     11909
     11908     11906     11905     11913     11908     11906     11905     11917
     11908     11906     11921     11922     11908     11906     11921     11923
     11908     11906     11921     11927     11909     11905     11906     11921
     11909     11905     11913     11914     11909     11905     11913     11915
     11909     11905     11913     11916     11909     11905     11917     11918
     11909     11905     11917     11919     11909     11905     11917     11920
     11910     11909     11905     11913     11910     11909     11905     11917
     11911     11909     11905     11913     11911     11909     11905     11917
     11912     11909     11905     11913     11912     11909     11905     11917
     11913     11905     11906     11921     11913     11905     11917     11918
     11913     11905     11917     11919     11913     11905     11917     11920
     11914     11913     11905     11917     11915     11913     11905     11917
     11916     11913     11905     11917     11917     11905     11906     11921
     11921     11927     11924     11925     11921     11927     11924     11926
     11921     11927     11924     11928     11922     11921     11927     11924
     11923     11921     11927     11924     11924     11928     11929     11930
     11924     11928     11929     11931     11924     11928     11929     11932
     11925     11924     11928     11929     11926     11924     11928     11929
     11927     11924     11928     11929     11928     11929     11932     11933
     11928     11929     11932     11934     11928     11929     11932     11940
     11929     11932     11934     11935     11929     11932     11940     11941
     11929     11932     11940     11942     11929     11932     11940     11943
     11930     11929     11932     11933     11930     11929     11932     11934
     11930     11929     11932     11940     11931     11929     11932     11933
     11931     11929     11932     11934     11931     11929     11932     11940
     11932     11934     11935     11936     11932     11934     11935     11937
     11932     11940     11943     11944     11933     11932     11934     11935
     11933     11932     11940     11941     11933     11932     11940     11942
     11933     11932     11940     11943     11934     11932     11940     11941
     11934     11932     11940     11942     11934     11932     11940     11943
     11934     11935     11937     11938     11934     11935     11937     11939
     11934     11935     11937     11949     11935     11934     11932     11940
     11935     11937     11949     11950     11935     11937     11949     11951
     11935     11937     11949     11952     11936     11935     11937     11938
     11936     11935     11937     11939     11936     11935     11937     11949
     11937     11949     11952     11953     11937     11949     11952     11954
     11937     11949     11952     11955     11938     11937     11949     11950
     11938     11937     11949     11951     11938     11937     11949     11952
     11939     11937     11949     11950     11939     11937     11949     11951
     11939     11937     11949     11952     11940     11943     11944     11945
     11940     11943     11944     11946     11941     11940     11943     11944
     11942     11940     11943     11944     11943     11944     11946     11947
     11943     11944     11946     11948     11943     11944     11946     11996
     11944     11946     11996     11997     11944     11946     11996     11998
     11944     11946     11996     11999     11945     11944     11946     11947
     11945     11944     11946     11948     11945     11944     11946     11996
     11946     11996     11999     12000     11946     11996     11999     12001
     11946     11996     11999     12002     11947     11946     11996     11997
     11947     11946     11996     11998     11947     11946     11996     11999
     11948     11946     11996     11997     11948     11946     11996     11998
     11948     11946     11996     11999     11949     11952     11955     11956
     11949     11952     11955     11957     11949     11952     11955     11958
     11950     11949     11952     11953     11950     11949     11952     11954
     11950     11949     11952     11955     11951     11949     11952     11953
     11951     11949     11952     11954     11951     11949     11952     11955
     11952     11955     11958     11959     11952     11955     11958     11960
     11952     11955     11958     11961     11953     11952     11955     11956
     11953     11952     11955     11957     11953     11952     11955     11958
     11954     11952     11955     11956     11954     11952     11955     11957
     11954     11952     11955     11958     11955     11958     11961     11962
     11955     11958     11961     11963     11955     11958     11961     11964
     11956     11955     11958     11959     11956     11955     11958     11960
     11956     11955     11958     11961     11957     11955     11958     11959
     11957     11955     11958     11960     11957     11955     11958     11961
     11958     11961     11964     11965     11958     11961     11964     11966
     11958     11961     11964     11967     11959     11958     11961     11962
     11959     11958     11961     11963     11959     11958     11961     11964
     11960     11958     11961     11962     11960     11958     11961     11963
     11960     11958     11961     11964     11961     11964     11967     11968
     11961     11964     11967     11969     11962     11961     11964     11965
     11962     11961     11964     11966     11962     11961     11964     11967
     11963     11961     11964     11965     11963     11961     11964     11966
     11963     11961     11964     11967     11964     11967     11969     11970
     11964     11967     11969     11971     11965     11964     11967     11968
     11965     11964     11967     11969     11966     11964     11967     11968
     11966     11964     11967     11969     11967     11969     11971     11972
     11967     11969     11971     11973     11967     11969     11971     11974
     11968     11967     11969     11970     11968     11967     11969     11971
     11969     11971     11974     11975     11969     11971     11974     11976
     11969     11971     11974     11977     11970     11969     11971     11972
     11970     11969     11971     11973     11970     11969     11971     11974
     11971     11974     11977     11978     11971     11974     11977     11979
     11971     11974     11977     11980     11972     11971     11974     11975
     11972     11971     11974     11976     11972     11971     11974     11977
     11973     11971     11974     11975     11973     11971     11974     11976
     11973     11971     11974     11977     11974     11977     11980     11981
     11974     11977     11980     11982     11974     11977     11980     11983
     11975     11974     11977     11978     11975     11974     11977     11979
     11975     11974     11977     11980     11976     11974     11977     11978
     11976     11974     11977     11979     11976     11974     11977     11980
     11977     11980     11983     11984     11977     11980     11983     11985
     11977     11980     11983     11986     11978     11977     11980     11981
     11978     11977     11980     11982     11978     11977     11980     11983
     11979     11977     11980     11981     11979     11977     11980     11982
     11979     11977     11980     11983     11980     11983     11986     11987
     11980     11983     11986     11988     11980     11983     11986     11989
     11981     11980     11983     11984     11981     11980     11983     11985
     11981     11980     11983     11986     11982     11980     11983     11984
     11982     11980     11983     11985     11982     11980     11983     11986
     11983     11986     11989     11990     11983     11986     11989     11991
     11983     11986     11989     11992     11984     11983     11986     11987
     11984     11983     11986     11988     11984     11983     11986     11989
     11985     11983     11986     11987     11985     11983     11986     11988
     11985     11983     11986     11989     11986     11989     11992     11993
     11986     11989     11992     11994     11986     11989     11992     11995
     11987     11986     11989     11990     11987     11986     11989     11991
     11987     11986     11989     11992     11988     11986     11989     11990
     11988     11986     11989     11991     11988     11986     11989     11992
     11990     11989     11992     11993     11990     11989     11992     11994
     11990     11989     11992     11995     11991     11989     11992     11993
     11991     11989     11992     11994     11991     11989     11992     11995
     11996     11999     12002     12003     11996     11999     12002     12004
     11996     11999     12002     12005     11997     11996     11999     12000
     11997     11996     11999     12001     11997     11996     11999     12002
     11998     11996     11999     12000     11998     11996     11999     12001
     11998     11996     11999     12002     11999     12002     12005     12006
     11999     12002     12005     12007     11999     12002     12005     12008
     12000     11999     12002     12003     12000     11999     12002     12004
     12000     11999     12002     12005     12001     11999     12002     12003
     12001     11999     12002     12004     12001     11999     12002     12005
     12002     12005     12008     12009     12002     12005     12008     12010
     12002     12005     12008     12011     12003     12002     12005     12006
     12003     12002     12005     12007     12003     12002     12005     12008
     12004     12002     12005     12006     12004     12002     12005     12007
     12004     12002     12005     12008     12005     12008     12011     12012
     12005     12008     12011     12013     12005     12008     12011     12014
     12006     12005     12008     12009     12006     12005     12008     12010
     12006     12005     12008     12011     12007     12005     12008     12009
     12007     12005     12008     12010     12007     12005     12008     12011
     12008     12011     12014     12015     12008     12011     12014     12016
     12008     12011     12014     12017     12009     12008     12011     12012
     12009     12008     12011     12013     12009     12008     12011     12014
     12010     12008     12011     12012     12010     12008     12011     12013
     12010     12008     12011     12014     12011     12014     12017     12018
     12011     12014     12017     12019     12011     12014     12017     12020
     12012     12011     12014     12015     12012     12011     12014     12016
     12012     12011     12014     12017     12013     12011     12014     12015
     12013     12011     12014     12016     12013     12011     12014     12017
     12014     12017     12020     12021     12014     12017     12020     12022
     12014     12017     12020     12023     12015     12014     12017     12018
     12015     12014     12017     12019     12015     12014     12017     12020
     12016     12014     12017     12018     12016     12014     12017     12019
     12016     12014     12017     12020     12017     12020     12023     12024
     12017     12020     12023     12025     12017     12020     12023     12026
     12018     12017     12020     12021     12018     12017     12020     12022
     12018     12017     12020     12023     12019     12017     12020     12021
     12019     12017     12020     12022     12019     12017     12020     12023
     12020     12023     12026     12027     12020     12023     12026     12028
     12020     12023     12026     12029     12021     12020     12023     12024
     12021     12020     12023     12025     12021     12020     12023     12026
     12022     12020     12023     12024     12022     12020     12023     12025
     12022     12020     12023     12026     12023     12026     12029     12030
     12023     12026     12029     12031     12023     12026     12029     12032
     12024     12023     12026     12027     12024     12023     12026     12028
     12024     12023     12026     12029     12025     12023     12026     12027
     12025     12023     12026     12028     12025     12023     12026     12029
     12026     12029     12032     12033     12026     12029     12032     12034
     12026     12029     12032     12035     12027     12026     12029     12030
     12027     12026     12029     12031     12027     12026     12029     12032
     12028     12026     12029     12030     12028     12026     12029     12031
     12028     12026     12029     12032     12029     12032     12035     12036
     12029     12032     12035     12037     12029     12032     12035     12038
     12030     12029     12032     12033     12030     12029     12032     12034
     12030     12029     12032     12035     12031     12029     12032     12033
     12031     12029     12032     12034     12031     12029     12032     12035
     12033     12032     12035     12036     12033     12032     12035     12037
     12033     12032     12035     12038     12034     12032     12035     12036
     12034     12032     12035     12037     12034     12032     12035     12038
     12039     12043     12046     12047     12039     12043     12046     12048
     12039     12043     12046     12053     12040     12039     12043     12044
     12040     12039     12043     12045     12040     12039     12043     12046
     12041     12039     12043     12044     12041     12039     12043     12045
     12041     12039     12043     12046     12042     12039     12043     12044
     12042     12039     12043     12045     12042     12039     12043     12046
     12043     12046     12053     12049     12044     12043     12046     12047
     12044     12043     12046     12048     12044     12043     12046     12053
     12045     12043     12046     12047     12045     12043     12046     12048
     12045     12043     12046     12053     12046     12053     12049     12050
     12046     12053     12049     12051     12046     12053     12049     12052
     12047     12046     12053     12049     12048     12046     12053     12049
     12049     12052     12054     12055     12049     12052     12054     12056
     12049     12052     12054     12057     12050     12049     12052     12054
     12051     12049     12052     12054     12052     12054     12057     12058
     12052     12054     12057     12059     12052     12054     12057     12065
     12053     12049     12052     12054     12054     12057     12059     12060
     12054     12057     12065     12066     12054     12057     12065     12067
     12054     12057     12065     12068     12055     12054     12057     12058
     12055     12054     12057     12059     12055     12054     12057     12065
     12056     12054     12057     12058     12056     12054     12057     12059
     12056     12054     12057     12065     12057     12059     12060     12061
     12057     12059     12060     12062     12057     12065     12068     12069
     12058     12057     12059     12060     12058     12057     12065     12066
     12058     12057     12065     12067     12058     12057     12065     12068
     12059     12057     12065     12066     12059     12057     12065     12067
     12059     12057     12065     12068     12059     12060     12062     12063
     12059     12060     12062     12064     12059     12060     12062     12074
     12060     12059     12057     12065     12060     12062     12074     12075
     12060     12062     12074     12076     12060     12062     12074     12077
     12061     12060     12062     12063     12061     12060     12062     12064
     12061     12060     12062     12074     12062     12074     12077     12078
     12062     12074     12077     12079     12062     12074     12077     12080
     12063     12062     12074     12075     12063     12062     12074     12076
     12063     12062     12074     12077     12064     12062     12074     12075
     12064     12062     12074     12076     12064     12062     12074     12077
     12065     12068     12069     12070     12065     12068     12069     12071
     12066     12065     12068     12069     12067     12065     12068     12069
     12068     12069     12071     12072     12068     12069     12071     12073
     12068     12069     12071     12121     12069     12071     12121     12122
     12069     12071     12121     12123     12069     12071     12121     12124
     12070     12069     12071     12072     12070     12069     12071     12073
     12070     12069     12071     12121     12071     12121     12124     12125
     12071     12121     12124     12126     12071     12121     12124     12127
     12072     12071     12121     12122     12072     12071     12121     12123
     12072     12071     12121     12124     12073     12071     12121     12122
     12073     12071     12121     12123     12073     12071     12121     12124
     12074     12077     12080     12081     12074     12077     12080     12082
     12074     12077     12080     12083     12075     12074     12077     12078
     12075     12074     12077     12079     12075     12074     12077     12080
     12076     12074     12077     12078     12076     12074     12077     12079
     12076     12074     12077     12080     12077     12080     12083     12084
     12077     12080     12083     12085     12077     12080     12083     12086
     12078     12077     12080     12081     12078     12077     12080     12082
     12078     12077     12080     12083     12079     12077     12080     12081
     12079     12077     12080     12082     12079     12077     12080     12083
     12080     12083     12086     12087     12080     12083     12086     12088
     12080     12083     12086     12089     12081     12080     12083     12084
     12081     12080     12083     12085     12081     12080     12083     12086
     12082     12080     12083     12084     12082     12080     12083     12085
     12082     12080     12083     12086     12083     12086     12089     12090
     12083     12086     12089     12091     12083     12086     12089     12092
     12084     12083     12086     12087     12084     12083     12086     12088
     12084     12083     12086     12089     12085     12083     12086     12087
     12085     12083     12086     12088     12085     12083     12086     12089
     12086     12089     12092     12093     12086     12089     12092     12094
     12087     12086     12089     12090     12087     12086     12089     12091
     12087     12086     12089     12092     12088     12086     12089     12090
     12088     12086     12089     12091     12088     12086     12089     12092
     12089     12092     12094     12095     12089     12092     12094     12096
     12090     12089     12092     12093     12090     12089     12092     12094
     12091     12089     12092     12093     12091     12089     12092     12094
     12092     12094     12096     12097     12092     12094     12096     12098
     12092     12094     12096     12099     12093     12092     12094     12095
     12093     12092     12094     12096     12094     12096     12099     12100
     12094     12096     12099     12101     12094     12096     12099     12102
     12095     12094     12096     12097     12095     12094     12096     12098
     12095     12094     12096     12099     12096     12099     12102     12103
     12096     12099     12102     12104     12096     12099     12102     12105
     12097     12096     12099     12100     12097     12096     12099     12101
     12097     12096     12099     12102     12098     12096     12099     12100
     12098     12096     12099     12101     12098     12096     12099     12102
     12099     12102     12105     12106     12099     12102     12105     12107
     12099     12102     12105     12108     12100     12099     12102     12103
     12100     12099     12102     12104     12100     12099     12102     12105
     12101     12099     12102     12103     12101     12099     12102     12104
     12101     12099     12102     12105     12102     12105     12108     12109
     12102     12105     12108     12110     12102     12105     12108     12111
     12103     12102     12105     12106     12103     12102     12105     12107
     12103     12102     12105     12108     12104     12102     12105     12106
     12104     12102     12105     12107     12104     12102     12105     12108
     12105     12108     12111     12112     12105     12108     12111     12113
     12105     12108     12111     12114     12106     12105     12108     12109
     12106     12105     12108     12110     12106     12105     12108     12111
     12107     12105     12108     12109     12107     12105     12108     12110
     12107     12105     12108     12111     12108     12111     12114     12115
     12108     12111     12114     12116     12108     12111     12114     12117
     12109     12108     12111     12112     12109     12108     12111     12113
     12109     12108     12111     12114     12110     12108     12111     12112
     12110     12108     12111     12113     12110     12108     12111     12114
     12111     12114     12117     12118     12111     12114     12117     12119
     12111     12114     12117     12120     12112     12111     12114     12115
     12112     12111     12114     12116     12112     12111     12114     12117
     12113     12111     12114     12115     12113     12111     12114     12116
     12113     12111     12114     12117     12115     12114     12117     12118
     12115     12114     12117     12119     12115     12114     12117     12120
     12116     12114     12117     12118     12116     12114     12117     12119
     12116     12114     12117     12120     12121     12124     12127     12128
     12121     12124     12127     12129     12121     12124     12127     12130
     12122     12121     12124     12125     12122     12121     12124     12126
     12122     12121     12124     12127     12123     12121     12124     12125
     12123     12121     12124     12126     12123     12121     12124     12127
     12124     12127     12130     12131     12124     12127     12130     12132
     12124     12127     12130     12133     12125     12124     12127     12128
     12125     12124     12127     12129     12125     12124     12127     12130
     12126     12124     12127     12128     12126     12124     12127     12129
     12126     12124     12127     12130     12127     12130     12133     12134
     12127     12130     12133     12135     12127     12130     12133     12136
     12128     12127     12130     12131     12128     12127     12130     12132
     12128     12127     12130     12133     12129     12127     12130     12131
     12129     12127     12130     12132     12129     12127     12130     12133
     12130     12133     12136     12137     12130     12133     12136     12138
     12130     12133     12136     12139     12131     12130     12133     12134
     12131     12130     12133     12135     12131     12130     12133     12136
     12132     12130     12133     12134     12132     12130     12133     12135
     12132     12130     12133     12136     12133     12136     12139     12140
     12133     12136     12139     12141     12133     12136     12139     12142
     12134     12133     12136     12137     12134     12133     12136     12138
     12134     12133     12136     12139     12135     12133     12136     12137
     12135     12133     12136     12138     12135     12133     12136     12139
     12136     12139     12142     12143     12136     12139     12142     12144
     12136     12139     12142     12145     12137     12136     12139     12140
     12137     12136     12139     12141     12137     12136     12139     12142
     12138     12136     12139     12140     12138     12136     12139     12141
     12138     12136     12139     12142     12139     12142     12145     12146
     12139     12142     12145     12147     12139     12142     12145     12148
     12140     12139     12142     12143     12140     12139     12142     12144
     12140     12139     12142     12145     12141     12139     12142     12143
     12141     12139     12142     12144     12141     12139     12142     12145
     12142     12145     12148     12149     12142     12145     12148     12150
     12142     12145     12148     12151     12143     12142     12145     12146
     12143     12142     12145     12147     12143     12142     12145     12148
     12144     12142     12145     12146     12144     12142     12145     12147
     12144     12142     12145     12148     12145     12148     12151     12152
     12145     12148     12151     12153     12145     12148     12151     12154
     12146     12145     12148     12149     12146     12145     12148     12150
     12146     12145     12148     12151     12147     12145     12148     12149
     12147     12145     12148     12150     12147     12145     12148     12151
     12148     12151     12154     12155     12148     12151     12154     12156
     12148     12151     12154     12157     12149     12148     12151     12152
     12149     12148     12151     12153     12149     12148     12151     12154
     12150     12148     12151     12152     12150     12148     12151     12153
     12150     12148     12151     12154     12151     12154     12157     12158
     12151     12154     12157     12159     12151     12154     12157     12160
     12152     12151     12154     12155     12152     12151     12154     12156
     12152     12151     12154     12157     12153     12151     12154     12155
     12153     12151     12154     12156     12153     12151     12154     12157
     12154     12157     12160     12161     12154     12157     12160     12162
     12154     12157     12160     12163     12155     12154     12157     12158
     12155     12154     12157     12159     12155     12154     12157     12160
     12156     12154     12157     12158     12156     12154     12157     12159
     12156     12154     12157     12160     12158     12157     12160     12161
     12158     12157     12160     12162     12158     12157     12160     12163
     12159     12157     12160     12161     12159     12157     12160     12162
     12159     12157     12160     12163     12164     12168     12171     12172
     12164     12168     12171     12173     12164     12168     12171     12178
     12165     12164     12168     12169     12165     12164     12168     12170
     12165     12164     12168     12171     12166     12164     12168     12169
     12166     12164     12168     12170     12166     12164     12168     12171
     12167     12164     12168     12169     12167     12164     12168     12170
     12167     12164     12168     12171     12168     12171     12178     12174
     12169     12168     12171     12172     12169     12168     12171     12173
     12169     12168     12171     12178     12170     12168     12171     12172
     12170     12168     12171     12173     12170     12168     12171     12178
     12171     12178     12174     12175     12171     12178     12174     12176
     12171     12178     12174     12177     12172     12171     12178     12174
     12173     12171     12178     12174     12174     12177     12179     12180
     12174     12177     12179     12181     12174     12177     12179     12182
     12175     12174     12177     12179     12176     12174     12177     12179
     12177     12179     12182     12183     12177     12179     12182     12184
     12177     12179     12182     12190     12178     12174     12177     12179
     12179     12182     12184     12185     12179     12182     12190     12191
     12179     12182     12190     12192     12179     12182     12190     12193
     12180     12179     12182     12183     12180     12179     12182     12184
     12180     12179     12182     12190     12181     12179     12182     12183
     12181     12179     12182     12184     12181     12179     12182     12190
     12182     12184     12185     12186     12182     12184     12185     12187
     12182     12190     12193     12194     12183     12182     12184     12185
     12183     12182     12190     12191     12183     12182     12190     12192
     12183     12182     12190     12193     12184     12182     12190     12191
     12184     12182     12190     12192     12184     12182     12190     12193
     12184     12185     12187     12188     12184     12185     12187     12189
     12184     12185     12187     12199     12185     12184     12182     12190
     12185     12187     12199     12200     12185     12187     12199     12201
     12185     12187     12199     12202     12186     12185     12187     12188
     12186     12185     12187     12189     12186     12185     12187     12199
     12187     12199     12202     12203     12187     12199     12202     12204
     12187     12199     12202     12205     12188     12187     12199     12200
     12188     12187     12199     12201     12188     12187     12199     12202
     12189     12187     12199     12200     12189     12187     12199     12201
     12189     12187     12199     12202     12190     12193     12194     12195
     12190     12193     12194     12196     12191     12190     12193     12194
     12192     12190     12193     12194     12193     12194     12196     12197
     12193     12194     12196     12198     12193     12194     12196     12246
     12194     12196     12246     12247     12194     12196     12246     12248
     12194     12196     12246     12249     12195     12194     12196     12197
     12195     12194     12196     12198     12195     12194     12196     12246
     12196     12246     12249     12250     12196     12246     12249     12251
     12196     12246     12249     12252     12197     12196     12246     12247
     12197     12196     12246     12248     12197     12196     12246     12249
     12198     12196     12246     12247     12198     12196     12246     12248
     12198     12196     12246     12249     12199     12202     12205     12206
     12199     12202     12205     12207     12199     12202     12205     12208
     12200     12199     12202     12203     12200     12199     12202     12204
     12200     12199     12202     12205     12201     12199     12202     12203
     12201     12199     12202     12204     12201     12199     12202     12205
     12202     12205     12208     12209     12202     12205     12208     12210
     12202     12205     12208     12211     12203     12202     12205     12206
     12203     12202     12205     12207     12203     12202     12205     12208
     12204     12202     12205     12206     12204     12202     12205     12207
     12204     12202     12205     12208     12205     12208     12211     12212
     12205     12208     12211     12213     12205     12208     12211     12214
     12206     12205     12208     12209     12206     12205     12208     12210
     12206     12205     12208     12211     12207     12205     12208     12209
     12207     12205     12208     12210     12207     12205     12208     12211
     12208     12211     12214     12215     12208     12211     12214     12216
     12208     12211     12214     12217     12209     12208     12211     12212
     12209     12208     12211     12213     12209     12208     12211     12214
     12210     12208     12211     12212     12210     12208     12211     12213
     12210     12208     12211     12214     12211     12214     12217     12218
     12211     12214     12217     12219     12212     12211     12214     12215
     12212     12211     12214     12216     12212     12211     12214     12217
     12213     12211     12214     12215     12213     12211     12214     12216
     12213     12211     12214     12217     12214     12217     12219     12220
     12214     12217     12219     12221     12215     12214     12217     12218
     12215     12214     12217     12219     12216     12214     12217     12218
     12216     12214     12217     12219     12217     12219     12221     12222
     12217     12219     12221     12223     12217     12219     12221     12224
     12218     12217     12219     12220     12218     12217     12219     12221
     12219     12221     12224     12225     12219     12221     12224     12226
     12219     12221     12224     12227     12220     12219     12221     12222
     12220     12219     12221     12223     12220     12219     12221     12224
     12221     12224     12227     12228     12221     12224     12227     12229
     12221     12224     12227     12230     12222     12221     12224     12225
     12222     12221     12224     12226     12222     12221     12224     12227
     12223     12221     12224     12225     12223     12221     12224     12226
     12223     12221     12224     12227     12224     12227     12230     12231
     12224     12227     12230     12232     12224     12227     12230     12233
     12225     12224     12227     12228     12225     12224     12227     12229
     12225     12224     12227     12230     12226     12224     12227     12228
     12226     12224     12227     12229     12226     12224     12227     12230
     12227     12230     12233     12234     12227     12230     12233     12235
     12227     12230     12233     12236     12228     12227     12230     12231
     12228     12227     12230     12232     12228     12227     12230     12233
     12229     12227     12230     12231     12229     12227     12230     12232
     12229     12227     12230     12233     12230     12233     12236     12237
     12230     12233     12236     12238     12230     12233     12236     12239
     12231     12230     12233     12234     12231     12230     12233     12235
     12231     12230     12233     12236     12232     12230     12233     12234
     12232     12230     12233     12235     12232     12230     12233     12236
     12233     12236     12239     12240     12233     12236     12239     12241
     12233     12236     12239     12242     12234     12233     12236     12237
     12234     12233     12236     12238     12234     12233     12236     12239
     12235     12233     12236     12237     12235     12233     12236     12238
     12235     12233     12236     12239     12236     12239     12242     12243
     12236     12239     12242     12244     12236     12239     12242     12245
     12237     12236     12239     12240     12237     12236     12239     12241
     12237     12236     12239     12242     12238     12236     12239     12240
     12238     12236     12239     12241     12238     12236     12239     12242
     12240     12239     12242     12243     12240     12239     12242     12244
     12240     12239     12242     12245     12241     12239     12242     12243
     12241     12239     12242     12244     12241     12239     12242     12245
     12246     12249     12252     12253     12246     12249     12252     12254
     12246     12249     12252     12255     12247     12246     12249     12250
     12247     12246     12249     12251     12247     12246     12249     12252
     12248     12246     12249     12250     12248     12246     12249     12251
     12248     12246     12249     12252     12249     12252     12255     12256
     12249     12252     12255     12257     12249     12252     12255     12258
     12250     12249     12252     12253     12250     12249     12252     12254
     12250     12249     12252     12255     12251     12249     12252     12253
     12251     12249     12252     12254     12251     12249     12252     12255
     12252     12255     12258     12259     12252     12255     12258     12260
     12252     12255     12258     12261     12253     12252     12255     12256
     12253     12252     12255     12257     12253     12252     12255     12258
     12254     12252     12255     12256     12254     12252     12255     12257
     12254     12252     12255     12258     12255     12258     12261     12262
     12255     12258     12261     12263     12255     12258     12261     12264
     12256     12255     12258     12259     12256     12255     12258     12260
     12256     12255     12258     12261     12257     12255     12258     12259
     12257     12255     12258     12260     12257     12255     12258     12261
     12258     12261     12264     12265     12258     12261     12264     12266
     12258     12261     12264     12267     12259     12258     12261     12262
     12259     12258     12261     12263     12259     12258     12261     12264
     12260     12258     12261     12262     12260     12258     12261     12263
     12260     12258     12261     12264     12261     12264     12267     12268
     12261     12264     12267     12269     12261     12264     12267     12270
     12262     12261     12264     12265     12262     12261     12264     12266
     12262     12261     12264     12267     12263     12261     12264     12265
     12263     12261     12264     12266     12263     12261     12264     12267
     12264     12267     12270     12271     12264     12267     12270     12272
     12264     12267     12270     12273     12265     12264     12267     12268
     12265     12264     12267     12269     12265     12264     12267     12270
     12266     12264     12267     12268     12266     12264     12267     12269
     12266     12264     12267     12270     12267     12270     12273     12274
     12267     12270     12273     12275     12267     12270     12273     12276
     12268     12267     12270     12271     12268     12267     12270     12272
     12268     12267     12270     12273     12269     12267     12270     12271
     12269     12267     12270     12272     12269     12267     12270     12273
     12270     12273     12276     12277     12270     12273     12276     12278
     12270     12273     12276     12279     12271     12270     12273     12274
     12271     12270     12273     12275     12271     12270     12273     12276
     12272     12270     12273     12274     12272     12270     12273     12275
     12272     12270     12273     12276     12273     12276     12279     12280
     12273     12276     12279     12281     12273     12276     12279     12282
     12274     12273     12276     12277     12274     12273     12276     12278
     12274     12273     12276     12279     12275     12273     12276     12277
     12275     12273     12276     12278     12275     12273     12276     12279
     12276     12279     12282     12283     12276     12279     12282     12284
     12276     12279     12282     12285     12277     12276     12279     12280
     12277     12276     12279     12281     12277     12276     12279     12282
     12278     12276     12279     12280     12278     12276     12279     12281
     12278     12276     12279     12282     12279     12282     12285     12286
     12279     12282     12285     12287     12279     12282     12285     12288
     12280     12279     12282     12283     12280     12279     12282     12284
     12280     12279     12282     12285     12281     12279     12282     12283
     12281     12279     12282     12284     12281     12279     12282     12285
     12283     12282     12285     12286     12283     12282     12285     12287
     12283     12282     12285     12288     12284     12282     12285     12286
     12284     12282     12285     12287     12284     12282     12285     12288
     12289     12290     12305     12306     12289     12290     12305     12307
     12289     12290     12305     12311     12290     12289     12293     12294
     12290     12289     12293     12295     12290     12289     12293     12296
     12290     12289     12297     12298     12290     12289     12297     12299
     12290     12289     12297     12300     12290     12289     12301     12302
     12290     12289     12301     12303     12290     12289     12301     12304
     12290     12305     12311     12308     12291     12290     12289     12293
     12291     12290     12289     12297     12291     12290     12289     12301
     12291     12290     12305     12306     12291     12290     12305     12307
     12291     12290     12305     12311     12292     12290     12289     12293
     12292     12290     12289     12297     12292     12290     12289     12301
     12292     12290     12305     12306     12292     12290     12305     12307
     12292     12290     12305     12311     12293     12289     12290     12305
     12293     12289     12297     12298     12293     12289     12297     12299
     12293     12289     12297     12300     12293     12289     12301     12302
     12293     12289     12301     12303     12293     12289     12301     12304
     12294     12293     12289     12297     12294     12293     12289     12301
     12295     12293     12289     12297     12295     12293     12289     12301
     12296     12293     12289     12297     12296     12293     12289     12301
     12297     12289     12290     12305     12297     12289     12301     12302
     12297     12289     12301     12303     12297     12289     12301     12304
     12298     12297     12289     12301     12299     12297     12289     12301
     12300     12297     12289     12301     12301     12289     12290     12305
     12305     12311     12308     12309     12305     12311     12308     12310
     12305     12311     12308     12312     12306     12305     12311     12308
     12307     12305     12311     12308     12308     12312     12313     12314
     12308     12312     12313     12315     12308     12312     12313     12316
     12309     12308     12312     12313     12310     12308     12312     12313
     12311     12308     12312     12313     12312     12313     12316     12317
     12312     12313     12316     12318     12312     12313     12316     12324
     12313     12316     12318     12319     12313     12316     12324     12325
     12313     12316     12324     12326     12313     12316     12324     12327
     12314     12313     12316     12317     12314     12313     12316     12318
     12314     12313     12316     12324     12315     12313     12316     12317
     12315     12313     12316     12318     12315     12313     12316     12324
     12316     12318     12319     12320     12316     12318     12319     12321
     12316     12324     12327     12328     12317     12316     12318     12319
     12317     12316     12324     12325     12317     12316     12324     12326
     12317     12316     12324     12327     12318     12316     12324     12325
     12318     12316     12324     12326     12318     12316     12324     12327
     12318     12319     12321     12322     12318     12319     12321     12323
     12318     12319     12321     12333     12319     12318     12316     12324
     12319     12321     12333     12334     12319     12321     12333     12335
     12319     12321     12333     12336     12320     12319     12321     12322
     12320     12319     12321     12323     12320     12319     12321     12333
     12321     12333     12336     12337     12321     12333     12336     12338
     12321     12333     12336     12339     12322     12321     12333     12334
     12322     12321     12333     12335     12322     12321     12333     12336
     12323     12321     12333     12334     12323     12321     12333     12335
     12323     12321     12333     12336     12324     12327     12328     12329
     12324     12327     12328     12330     12325     12324     12327     12328
     12326     12324     12327     12328     12327     12328     12330     12331
     12327     12328     12330     12332     12327     12328     12330     12380
     12328     12330     12380     12381     12328     12330     12380     12382
     12328     12330     12380     12383     12329     12328     12330     12331
     12329     12328     12330     12332     12329     12328     12330     12380
     12330     12380     12383     12384     12330     12380     12383     12385
     12330     12380     12383     12386     12331     12330     12380     12381
     12331     12330     12380     12382     12331     12330     12380     12383
     12332     12330     12380     12381     12332     12330     12380     12382
     12332     12330     12380     12383     12333     12336     12339     12340
     12333     12336     12339     12341     12333     12336     12339     12342
     12334     12333     12336     12337     12334     12333     12336     12338
     12334     12333     12336     12339     12335     12333     12336     12337
     12335     12333     12336     12338     12335     12333     12336     12339
     12336     12339     12342     12343     12336     12339     12342     12344
     12336     12339     12342     12345     12337     12336     12339     12340
     12337     12336     12339     12341     12337     12336     12339     12342
     12338     12336     12339     12340     12338     12336     12339     12341
     12338     12336     12339     12342     12339     12342     12345     12346
     12339     12342     12345     12347     12339     12342     12345     12348
     12340     12339     12342     12343     12340     12339     12342     12344
     12340     12339     12342     12345     12341     12339     12342     12343
     12341     12339     12342     12344     12341     12339     12342     12345
     12342     12345     12348     12349     12342     12345     12348     12350
     12342     12345     12348     12351     12343     12342     12345     12346
     12343     12342     12345     12347     12343     12342     12345     12348
     12344     12342     12345     12346     12344     12342     12345     12347
     12344     12342     12345     12348     12345     12348     12351     12352
     12345     12348     12351     12353     12346     12345     12348     12349
     12346     12345     12348     12350     12346     12345     12348     12351
     12347     12345     12348     12349     12347     12345     12348     12350
     12347     12345     12348     12351     12348     12351     12353     12354
     12348     12351     12353     12355     12349     12348     12351     12352
     12349     12348     12351     12353     12350     12348     12351     12352
     12350     12348     12351     12353     12351     12353     12355     12356
     12351     12353     12355     12357     12351     12353     12355     12358
     12352     12351     12353     12354     12352     12351     12353     12355
     12353     12355     12358     12359     12353     12355     12358     12360
     12353     12355     12358     12361     12354     12353     12355     12356
     12354     12353     12355     12357     12354     12353     12355     12358
     12355     12358     12361     12362     12355     12358     12361     12363
     12355     12358     12361     12364     12356     12355     12358     12359
     12356     12355     12358     12360     12356     12355     12358     12361
     12357     12355     12358     12359     12357     12355     12358     12360
     12357     12355     12358     12361     12358     12361     12364     12365
     12358     12361     12364     12366     12358     12361     12364     12367
     12359     12358     12361     12362     12359     12358     12361     12363
     12359     12358     12361     12364     12360     12358     12361     12362
     12360     12358     12361     12363     12360     12358     12361     12364
     12361     12364     12367     12368     12361     12364     12367     12369
     12361     12364     12367     12370     12362     12361     12364     12365
     12362     12361     12364     12366     12362     12361     12364     12367
     12363     12361     12364     12365     12363     12361     12364     12366
     12363     12361     12364     12367     12364     12367     12370     12371
     12364     12367     12370     12372     12364     12367     12370     12373
     12365     12364     12367     12368     12365     12364     12367     12369
     12365     12364     12367     12370     12366     12364     12367     12368
     12366     12364     12367     12369     12366     12364     12367     12370
     12367     12370     12373     12374     12367     12370     12373     12375
     12367     12370     12373     12376     12368     12367     12370     12371
     12368     12367     12370     12372     12368     12367     12370     12373
     12369     12367     12370     12371     12369     12367     12370     12372
     12369     12367     12370     12373     12370     12373     12376     12377
     12370     12373     12376     12378     12370     12373     12376     12379
     12371     12370     12373     12374     12371     12370     12373     12375
     12371     12370     12373     12376     12372     12370     12373     12374
     12372     12370     12373     12375     12372     12370     12373     12376
     12374     12373     12376     12377     12374     12373     12376     12378
     12374     12373     12376     12379     12375     12373     12376     12377
     12375     12373     12376     12378     12375     12373     12376     12379
     12380     12383     12386     12387     12380     12383     12386     12388
     12380     12383     12386     12389     12381     12380     12383     12384
     12381     12380     12383     12385     12381     12380     12383     12386
     12382     12380     12383     12384     12382     12380     12383     12385
     12382     12380     12383     12386     12383     12386     12389     12390
     12383     12386     12389     12391     12383     12386     12389     12392
     12384     12383     12386     12387     12384     12383     12386     12388
     12384     12383     12386     12389     12385     12383     12386     12387
     12385     12383     12386     12388     12385     12383     12386     12389
     12386     12389     12392     12393     12386     12389     12392     12394
     12386     12389     12392     12395     12387     12386     12389     12390
     12387     12386     12389     12391     12387     12386     12389     12392
     12388     12386     12389     12390     12388     12386     12389     12391
     12388     12386     12389     12392     12389     12392     12395     12396
     12389     12392     12395     12397     12389     12392     12395     12398
     12390     12389     12392     12393     12390     12389     12392     12394
     12390     12389     12392     12395     12391     12389     12392     12393
     12391     12389     12392     12394     12391     12389     12392     12395
     12392     12395     12398     12399     12392     12395     12398     12400
     12392     12395     12398     12401     12393     12392     12395     12396
     12393     12392     12395     12397     12393     12392     12395     12398
     12394     12392     12395     12396     12394     12392     12395     12397
     12394     12392     12395     12398     12395     12398     12401     12402
     12395     12398     12401     12403     12395     12398     12401     12404
     12396     12395     12398     12399     12396     12395     12398     12400
     12396     12395     12398     12401     12397     12395     12398     12399
     12397     12395     12398     12400     12397     12395     12398     12401
     12398     12401     12404     12405     12398     12401     12404     12406
     12398     12401     12404     12407     12399     12398     12401     12402
     12399     12398     12401     12403     12399     12398     12401     12404
     12400     12398     12401     12402     12400     12398     12401     12403
     12400     12398     12401     12404     12401     12404     12407     12408
     12401     12404     12407     12409     12401     12404     12407     12410
     12402     12401     12404     12405     12402     12401     12404     12406
     12402     12401     12404     12407     12403     12401     12404     12405
     12403     12401     12404     12406     12403     12401     12404     12407
     12404     12407     12410     12411     12404     12407     12410     12412
     12404     12407     12410     12413     12405     12404     12407     12408
     12405     12404     12407     12409     12405     12404     12407     12410
     12406     12404     12407     12408     12406     12404     12407     12409
     12406     12404     12407     12410     12407     12410     12413     12414
     12407     12410     12413     12415     12407     12410     12413     12416
     12408     12407     12410     12411     12408     12407     12410     12412
     12408     12407     12410     12413     12409     12407     12410     12411
     12409     12407     12410     12412     12409     12407     12410     12413
     12410     12413     12416     12417     12410     12413     12416     12418
     12410     12413     12416     12419     12411     12410     12413     12414
     12411     12410     12413     12415     12411     12410     12413     12416
     12412     12410     12413     12414     12412     12410     12413     12415
     12412     12410     12413     12416     12413     12416     12419     12420
     12413     12416     12419     12421     12413     12416     12419     12422
     12414     12413     12416     12417     12414     12413     12416     12418
     12414     12413     12416     12419     12415     12413     12416     12417
     12415     12413     12416     12418     12415     12413     12416     12419
     12417     12416     12419     12420     12417     12416     12419     12421
     12417     12416     12419     12422     12418     12416     12419     12420
     12418     12416     12419     12421     12418     12416     12419     12422
     12423     12424     12439     12440     12423     12424     12439     12441
     12423     12424     12439     12445     12424     12423     12427     12428
     12424     12423     12427     12429     12424     12423     12427     12430
     12424     12423     12431     12432     12424     12423     12431     12433
     12424     12423     12431     12434     12424     12423     12435     12436
     12424     12423     12435     12437     12424     12423     12435     12438
     12424     12439     12445     12442     12425     12424     12423     12427
     12425     12424     12423     12431     12425     12424     12423     12435
     12425     12424     12439     12440     12425     12424     12439     12441
     12425     12424     12439     12445     12426     12424     12423     12427
     12426     12424     12423     12431     12426     12424     12423     12435
     12426     12424     12439     12440     12426     12424     12439     12441
     12426     12424     12439     12445     12427     12423     12424     12439
     12427     12423     12431     12432     12427     12423     12431     12433
     12427     12423     12431     12434     12427     12423     12435     12436
     12427     12423     12435     12437     12427     12423     12435     12438
     12428     12427     12423     12431     12428     12427     12423     12435
     12429     12427     12423     12431     12429     12427     12423     12435
     12430     12427     12423     12431     12430     12427     12423     12435
     12431     12423     12424     12439     12431     12423     12435     12436
     12431     12423     12435     12437     12431     12423     12435     12438
     12432     12431     12423     12435     12433     12431     12423     12435
     12434     12431     12423     12435     12435     12423     12424     12439
     12439     12445     12442     12443     12439     12445     12442     12444
     12439     12445     12442     12446     12440     12439     12445     12442
     12441     12439     12445     12442     12442     12446     12447     12448
     12442     12446     12447     12449     12442     12446     12447     12450
     12443     12442     12446     12447     12444     12442     12446     12447
     12445     12442     12446     12447     12446     12447     12450     12451
     12446     12447     12450     12452     12446     12447     12450     12458
     12447     12450     12452     12453     12447     12450     12458     12459
     12447     12450     12458     12460     12447     12450     12458     12461
     12448     12447     12450     12451     12448     12447     12450     12452
     12448     12447     12450     12458     12449     12447     12450     12451
     12449     12447     12450     12452     12449     12447     12450     12458
     12450     12452     12453     12454     12450     12452     12453     12455
     12450     12458     12461     12462     12451     12450     12452     12453
     12451     12450     12458     12459     12451     12450     12458     12460
     12451     12450     12458     12461     12452     12450     12458     12459
     12452     12450     12458     12460     12452     12450     12458     12461
     12452     12453     12455     12456     12452     12453     12455     12457
     12452     12453     12455     12467     12453     12452     12450     12458
     12453     12455     12467     12468     12453     12455     12467     12469
     12453     12455     12467     12470     12454     12453     12455     12456
     12454     12453     12455     12457     12454     12453     12455     12467
     12455     12467     12470     12471     12455     12467     12470     12472
     12455     12467     12470     12473     12456     12455     12467     12468
     12456     12455     12467     12469     12456     12455     12467     12470
     12457     12455     12467     12468     12457     12455     12467     12469
     12457     12455     12467     12470     12458     12461     12462     12463
     12458     12461     12462     12464     12459     12458     12461     12462
     12460     12458     12461     12462     12461     12462     12464     12465
     12461     12462     12464     12466     12461     12462     12464     12514
     12462     12464     12514     12515     12462     12464     12514     12516
     12462     12464     12514     12517     12463     12462     12464     12465
     12463     12462     12464     12466     12463     12462     12464     12514
     12464     12514     12517     12518     12464     12514     12517     12519
     12464     12514     12517     12520     12465     12464     12514     12515
     12465     12464     12514     12516     12465     12464     12514     12517
     12466     12464     12514     12515     12466     12464     12514     12516
     12466     12464     12514     12517     12467     12470     12473     12474
     12467     12470     12473     12475     12467     12470     12473     12476
     12468     12467     12470     12471     12468     12467     12470     12472
     12468     12467     12470     12473     12469     12467     12470     12471
     12469     12467     12470     12472     12469     12467     12470     12473
     12470     12473     12476     12477     12470     12473     12476     12478
     12470     12473     12476     12479     12471     12470     12473     12474
     12471     12470     12473     12475     12471     12470     12473     12476
     12472     12470     12473     12474     12472     12470     12473     12475
     12472     12470     12473     12476     12473     12476     12479     12480
     12473     12476     12479     12481     12473     12476     12479     12482
     12474     12473     12476     12477     12474     12473     12476     12478
     12474     12473     12476     12479     12475     12473     12476     12477
     12475     12473     12476     12478     12475     12473     12476     12479
     12476     12479     12482     12483     12476     12479     12482     12484
     12476     12479     12482     12485     12477     12476     12479     12480
     12477     12476     12479     12481     12477     12476     12479     12482
     12478     12476     12479     12480     12478     12476     12479     12481
     12478     12476     12479     12482     12479     12482     12485     12486
     12479     12482     12485     12487     12480     12479     12482     12483
     12480     12479     12482     12484     12480     12479     12482     12485
     12481     12479     12482     12483     12481     12479     12482     12484
     12481     12479     12482     12485     12482     12485     12487     12488
     12482     12485     12487     12489     12483     12482     12485     12486
     12483     12482     12485     12487     12484     12482     12485     12486
     12484     12482     12485     12487     12485     12487     12489     12490
     12485     12487     12489     12491     12485     12487     12489     12492
     12486     12485     12487     12488     12486     12485     12487     12489
     12487     12489     12492     12493     12487     12489     12492     12494
     12487     12489     12492     12495     12488     12487     12489     12490
     12488     12487     12489     12491     12488     12487     12489     12492
     12489     12492     12495     12496     12489     12492     12495     12497
     12489     12492     12495     12498     12490     12489     12492     12493
     12490     12489     12492     12494     12490     12489     12492     12495
     12491     12489     12492     12493     12491     12489     12492     12494
     12491     12489     12492     12495     12492     12495     12498     12499
     12492     12495     12498     12500     12492     12495     12498     12501
     12493     12492     12495     12496     12493     12492     12495     12497
     12493     12492     12495     12498     12494     12492     12495     12496
     12494     12492     12495     12497     12494     12492     12495     12498
     12495     12498     12501     12502     12495     12498     12501     12503
     12495     12498     12501     12504     12496     12495     12498     12499
     12496     12495     12498     12500     12496     12495     12498     12501
     12497     12495     12498     12499     12497     12495     12498     12500
     12497     12495     12498     12501     12498     12501     12504     12505
     12498     12501     12504     12506     12498     12501     12504     12507
     12499     12498     12501     12502     12499     12498     12501     12503
     12499     12498     12501     12504     12500     12498     12501     12502
     12500     12498     12501     12503     12500     12498     12501     12504
     12501     12504     12507     12508     12501     12504     12507     12509
     12501     12504     12507     12510     12502     12501     12504     12505
     12502     12501     12504     12506     12502     12501     12504     12507
     12503     12501     12504     12505     12503     12501     12504     12506
     12503     12501     12504     12507     12504     12507     12510     12511
     12504     12507     12510     12512     12504     12507     12510     12513
     12505     12504     12507     12508     12505     12504     12507     12509
     12505     12504     12507     12510     12506     12504     12507     12508
     12506     12504     12507     12509     12506     12504     12507     12510
     12508     12507     12510     12511     12508     12507     12510     12512
     12508     12507     12510     12513     12509     12507     12510     12511
     12509     12507     12510     12512     12509     12507     12510     12513
     12514     12517     12520     12521     12514     12517     12520     12522
     12514     12517     12520     12523     12515     12514     12517     12518
     12515     12514     12517     12519     12515     12514     12517     12520
     12516     12514     12517     12518     12516     12514     12517     12519
     12516     12514     12517     12520     12517     12520     12523     12524
     12517     12520     12523     12525     12517     12520     12523     12526
     12518     12517     12520     12521     12518     12517     12520     12522
     12518     12517     12520     12523     12519     12517     12520     12521
     12519     12517     12520     12522     12519     12517     12520     12523
     12520     12523     12526     12527     12520     12523     12526     12528
     12520     12523     12526     12529     12521     12520     12523     12524
     12521     12520     12523     12525     12521     12520     12523     12526
     12522     12520     12523     12524     12522     12520     12523     12525
     12522     12520     12523     12526     12523     12526     12529     12530
     12523     12526     12529     12531     12523     12526     12529     12532
     12524     12523     12526     12527     12524     12523     12526     12528
     12524     12523     12526     12529     12525     12523     12526     12527
     12525     12523     12526     12528     12525     12523     12526     12529
     12526     12529     12532     12533     12526     12529     12532     12534
     12526     12529     12532     12535     12527     12526     12529     12530
     12527     12526     12529     12531     12527     12526     12529     12532
     12528     12526     12529     12530     12528     12526     12529     12531
     12528     12526     12529     12532     12529     12532     12535     12536
     12529     12532     12535     12537     12529     12532     12535     12538
     12530     12529     12532     12533     12530     12529     12532     12534
     12530     12529     12532     12535     12531     12529     12532     12533
     12531     12529     12532     12534     12531     12529     12532     12535
     12532     12535     12538     12539     12532     12535     12538     12540
     12532     12535     12538     12541     12533     12532     12535     12536
     12533     12532     12535     12537     12533     12532     12535     12538
     12534     12532     12535     12536     12534     12532     12535     12537
     12534     12532     12535     12538     12535     12538     12541     12542
     12535     12538     12541     12543     12535     12538     12541     12544
     12536     12535     12538     12539     12536     12535     12538     12540
     12536     12535     12538     12541     12537     12535     12538     12539
     12537     12535     12538     12540     12537     12535     12538     12541
     12538     12541     12544     12545     12538     12541     12544     12546
     12538     12541     12544     12547     12539     12538     12541     12542
     12539     12538     12541     12543     12539     12538     12541     12544
     12540     12538     12541     12542     12540     12538     12541     12543
     12540     12538     12541     12544     12541     12544     12547     12548
     12541     12544     12547     12549     12541     12544     12547     12550
     12542     12541     12544     12545     12542     12541     12544     12546
     12542     12541     12544     12547     12543     12541     12544     12545
     12543     12541     12544     12546     12543     12541     12544     12547
     12544     12547     12550     12551     12544     12547     12550     12552
     12544     12547     12550     12553     12545     12544     12547     12548
     12545     12544     12547     12549     12545     12544     12547     12550
     12546     12544     12547     12548     12546     12544     12547     12549
     12546     12544     12547     12550     12547     12550     12553     12554
     12547     12550     12553     12555     12547     12550     12553     12556
     12548     12547     12550     12551     12548     12547     12550     12552
     12548     12547     12550     12553     12549     12547     12550     12551
     12549     12547     12550     12552     12549     12547     12550     12553
     12551     12550     12553     12554     12551     12550     12553     12555
     12551     12550     12553     12556     12552     12550     12553     12554
     12552     12550     12553     12555     12552     12550     12553     12556
     12557     12558     12573     12574     12557     12558     12573     12575
     12557     12558     12573     12579     12558     12557     12561     12562
     12558     12557     12561     12563     12558     12557     12561     12564
     12558     12557     12565     12566     12558     12557     12565     12567
     12558     12557     12565     12568     12558     12557     12569     12570
     12558     12557     12569     12571     12558     12557     12569     12572
     12558     12573     12579     12576     12559     12558     12557     12561
     12559     12558     12557     12565     12559     12558     12557     12569
     12559     12558     12573     12574     12559     12558     12573     12575
     12559     12558     12573     12579     12560     12558     12557     12561
     12560     12558     12557     12565     12560     12558     12557     12569
     12560     12558     12573     12574     12560     12558     12573     12575
     12560     12558     12573     12579     12561     12557     12558     12573
     12561     12557     12565     12566     12561     12557     12565     12567
     12561     12557     12565     12568     12561     12557     12569     12570
     12561     12557     12569     12571     12561     12557     12569     12572
     12562     12561     12557     12565     12562     12561     12557     12569
     12563     12561     12557     12565     12563     12561     12557     12569
     12564     12561     12557     12565     12564     12561     12557     12569
     12565     12557     12558     12573     12565     12557     12569     12570
     12565     12557     12569     12571     12565     12557     12569     12572
     12566     12565     12557     12569     12567     12565     12557     12569
     12568     12565     12557     12569     12569     12557     12558     12573
     12573     12579     12576     12577     12573     12579     12576     12578
     12573     12579     12576     12580     12574     12573     12579     12576
     12575     12573     12579     12576     12576     12580     12581     12582
     12576     12580     12581     12583     12576     12580     12581     12584
     12577     12576     12580     12581     12578     12576     12580     12581
     12579     12576     12580     12581     12580     12581     12584     12585
     12580     12581     12584     12586     12580     12581     12584     12592
     12581     12584     12586     12587     12581     12584     12592     12593
     12581     12584     12592     12594     12581     12584     12592     12595
     12582     12581     12584     12585     12582     12581     12584     12586
     12582     12581     12584     12592     12583     12581     12584     12585
     12583     12581     12584     12586     12583     12581     12584     12592
     12584     12586     12587     12588     12584     12586     12587     12589
     12584     12592     12595     12596     12585     12584     12586     12587
     12585     12584     12592     12593     12585     12584     12592     12594
     12585     12584     12592     12595     12586     12584     12592     12593
     12586     12584     12592     12594     12586     12584     12592     12595
     12586     12587     12589     12590     12586     12587     12589     12591
     12586     12587     12589     12601     12587     12586     12584     12592
     12587     12589     12601     12602     12587     12589     12601     12603
     12587     12589     12601     12604     12588     12587     12589     12590
     12588     12587     12589     12591     12588     12587     12589     12601
     12589     12601     12604     12605     12589     12601     12604     12606
     12589     12601     12604     12607     12590     12589     12601     12602
     12590     12589     12601     12603     12590     12589     12601     12604
     12591     12589     12601     12602     12591     12589     12601     12603
     12591     12589     12601     12604     12592     12595     12596     12597
     12592     12595     12596     12598     12593     12592     12595     12596
     12594     12592     12595     12596     12595     12596     12598     12599
     12595     12596     12598     12600     12595     12596     12598     12648
     12596     12598     12648     12649     12596     12598     12648     12650
     12596     12598     12648     12651     12597     12596     12598     12599
     12597     12596     12598     12600     12597     12596     12598     12648
     12598     12648     12651     12652     12598     12648     12651     12653
     12598     12648     12651     12654     12599     12598     12648     12649
     12599     12598     12648     12650     12599     12598     12648     12651
     12600     12598     12648     12649     12600     12598     12648     12650
     12600     12598     12648     12651     12601     12604     12607     12608
     12601     12604     12607     12609     12601     12604     12607     12610
     12602     12601     12604     12605     12602     12601     12604     12606
     12602     12601     12604     12607     12603     12601     12604     12605
     12603     12601     12604     12606     12603     12601     12604     12607
     12604     12607     12610     12611     12604     12607     12610     12612
     12604     12607     12610     12613     12605     12604     12607     12608
     12605     12604     12607     12609     12605     12604     12607     12610
     12606     12604     12607     12608     12606     12604     12607     12609
     12606     12604     12607     12610     12607     12610     12613     12614
     12607     12610     12613     12615     12607     12610     12613     12616
     12608     12607     12610     12611     12608     12607     12610     12612
     12608     12607     12610     12613     12609     12607     12610     12611
     12609     12607     12610     12612     12609     12607     12610     12613
     12610     12613     12616     12617     12610     12613     12616     12618
     12610     12613     12616     12619     12611     12610     12613     12614
     12611     12610     12613     12615     12611     12610     12613     12616
     12612     12610     12613     12614     12612     12610     12613     12615
     12612     12610     12613     12616     12613     12616     12619     12620
     12613     12616     12619     12621     12614     12613     12616     12617
     12614     12613     12616     12618     12614     12613     12616     12619
     12615     12613     12616     12617     12615     12613     12616     12618
     12615     12613     12616     12619     12616     12619     12621     12622
     12616     12619     12621     12623     12617     12616     12619     12620
     12617     12616     12619     12621     12618     12616     12619     12620
     12618     12616     12619     12621     12619     12621     12623     12624
     12619     12621     12623     12625     12619     12621     12623     12626
     12620     12619     12621     12622     12620     12619     12621     12623
     12621     12623     12626     12627     12621     12623     12626     12628
     12621     12623     12626     12629     12622     12621     12623     12624
     12622     12621     12623     12625     12622     12621     12623     12626
     12623     12626     12629     12630     12623     12626     12629     12631
     12623     12626     12629     12632     12624     12623     12626     12627
     12624     12623     12626     12628     12624     12623     12626     12629
     12625     12623     12626     12627     12625     12623     12626     12628
     12625     12623     12626     12629     12626     12629     12632     12633
     12626     12629     12632     12634     12626     12629     12632     12635
     12627     12626     12629     12630     12627     12626     12629     12631
     12627     12626     12629     12632     12628     12626     12629     12630
     12628     12626     12629     12631     12628     12626     12629     12632
     12629     12632     12635     12636     12629     12632     12635     12637
     12629     12632     12635     12638     12630     12629     12632     12633
     12630     12629     12632     12634     12630     12629     12632     12635
     12631     12629     12632     12633     12631     12629     12632     12634
     12631     12629     12632     12635     12632     12635     12638     12639
     12632     12635     12638     12640     12632     12635     12638     12641
     12633     12632     12635     12636     12633     12632     12635     12637
     12633     12632     12635     12638     12634     12632     12635     12636
     12634     12632     12635     12637     12634     12632     12635     12638
     12635     12638     12641     12642     12635     12638     12641     12643
     12635     12638     12641     12644     12636     12635     12638     12639
     12636     12635     12638     12640     12636     12635     12638     12641
     12637     12635     12638     12639     12637     12635     12638     12640
     12637     12635     12638     12641     12638     12641     12644     12645
     12638     12641     12644     12646     12638     12641     12644     12647
     12639     12638     12641     12642     12639     12638     12641     12643
     12639     12638     12641     12644     12640     12638     12641     12642
     12640     12638     12641     12643     12640     12638     12641     12644
     12642     12641     12644     12645     12642     12641     12644     12646
     12642     12641     12644     12647     12643     12641     12644     12645
     12643     12641     12644     12646     12643     12641     12644     12647
     12648     12651     12654     12655     12648     12651     12654     12656
     12648     12651     12654     12657     12649     12648     12651     12652
     12649     12648     12651     12653     12649     12648     12651     12654
     12650     12648     12651     12652     12650     12648     12651     12653
     12650     12648     12651     12654     12651     12654     12657     12658
     12651     12654     12657     12659     12651     12654     12657     12660
     12652     12651     12654     12655     12652     12651     12654     12656
     12652     12651     12654     12657     12653     12651     12654     12655
     12653     12651     12654     12656     12653     12651     12654     12657
     12654     12657     12660     12661     12654     12657     12660     12662
     12654     12657     12660     12663     12655     12654     12657     12658
     12655     12654     12657     12659     12655     12654     12657     12660
     12656     12654     12657     12658     12656     12654     12657     12659
     12656     12654     12657     12660     12657     12660     12663     12664
     12657     12660     12663     12665     12657     12660     12663     12666
     12658     12657     12660     12661     12658     12657     12660     12662
     12658     12657     12660     12663     12659     12657     12660     12661
     12659     12657     12660     12662     12659     12657     12660     12663
     12660     12663     12666     12667     12660     12663     12666     12668
     12660     12663     12666     12669     12661     12660     12663     12664
     12661     12660     12663     12665     12661     12660     12663     12666
     12662     12660     12663     12664     12662     12660     12663     12665
     12662     12660     12663     12666     12663     12666     12669     12670
     12663     12666     12669     12671     12663     12666     12669     12672
     12664     12663     12666     12667     12664     12663     12666     12668
     12664     12663     12666     12669     12665     12663     12666     12667
     12665     12663     12666     12668     12665     12663     12666     12669
     12666     12669     12672     12673     12666     12669     12672     12674
     12666     12669     12672     12675     12667     12666     12669     12670
     12667     12666     12669     12671     12667     12666     12669     12672
     12668     12666     12669     12670     12668     12666     12669     12671
     12668     12666     12669     12672     12669     12672     12675     12676
     12669     12672     12675     12677     12669     12672     12675     12678
     12670     12669     12672     12673     12670     12669     12672     12674
     12670     12669     12672     12675     12671     12669     12672     12673
     12671     12669     12672     12674     12671     12669     12672     12675
     12672     12675     12678     12679     12672     12675     12678     12680
     12672     12675     12678     12681     12673     12672     12675     12676
     12673     12672     12675     12677     12673     12672     12675     12678
     12674     12672     12675     12676     12674     12672     12675     12677
     12674     12672     12675     12678     12675     12678     12681     12682
     12675     12678     12681     12683     12675     12678     12681     12684
     12676     12675     12678     12679     12676     12675     12678     12680
     12676     12675     12678     12681     12677     12675     12678     12679
     12677     12675     12678     12680     12677     12675     12678     12681
     12678     12681     12684     12685     12678     12681     12684     12686
     12678     12681     12684     12687     12679     12678     12681     12682
     12679     12678     12681     12683     12679     12678     12681     12684
     12680     12678     12681     12682     12680     12678     12681     12683
     12680     12678     12681     12684     12681     12684     12687     12688
     12681     12684     12687     12689     12681     12684     12687     12690
     12682     12681     12684     12685     12682     12681     12684     12686
     12682     12681     12684     12687     12683     12681     12684     12685
     12683     12681     12684     12686     12683     12681     12684     12687
     12685     12684     12687     12688     12685     12684     12687     12689
     12685     12684     12687     12690     12686     12684     12687     12688
     12686     12684     12687     12689     12686     12684     12687     12690
     12691     12695     12698     12699     12691     12695     12698     12700
     12691     12695     12698     12705     12692     12691     12695     12696
     12692     12691     12695     12697     12692     12691     12695     12698
     12693     12691     12695     12696     12693     12691     12695     12697
     12693     12691     12695     12698     12694     12691     12695     12696
     12694     12691     12695     12697     12694     12691     12695     12698
     12695     12698     12705     12701     12696     12695     12698     12699
     12696     12695     12698     12700     12696     12695     12698     12705
     12697     12695     12698     12699     12697     12695     12698     12700
     12697     12695     12698     12705     12698     12705     12701     12702
     12698     12705     12701     12703     12698     12705     12701     12704
     12699     12698     12705     12701     12700     12698     12705     12701
     12701     12704     12706     12707     12701     12704     12706     12708
     12701     12704     12706     12709     12702     12701     12704     12706
     12703     12701     12704     12706     12704     12706     12709     12710
     12704     12706     12709     12711     12704     12706     12709     12717
     12705     12701     12704     12706     12706     12709     12711     12712
     12706     12709     12717     12718     12706     12709     12717     12719
     12706     12709     12717     12720     12707     12706     12709     12710
     12707     12706     12709     12711     12707     12706     12709     12717
     12708     12706     12709     12710     12708     12706     12709     12711
     12708     12706     12709     12717     12709     12711     12712     12713
     12709     12711     12712     12714     12709     12717     12720     12721
     12710     12709     12711     12712     12710     12709     12717     12718
     12710     12709     12717     12719     12710     12709     12717     12720
     12711     12709     12717     12718     12711     12709     12717     12719
     12711     12709     12717     12720     12711     12712     12714     12715
     12711     12712     12714     12716     12711     12712     12714     12726
     12712     12711     12709     12717     12712     12714     12726     12727
     12712     12714     12726     12728     12712     12714     12726     12729
     12713     12712     12714     12715     12713     12712     12714     12716
     12713     12712     12714     12726     12714     12726     12729     12730
     12714     12726     12729     12731     12714     12726     12729     12732
     12715     12714     12726     12727     12715     12714     12726     12728
     12715     12714     12726     12729     12716     12714     12726     12727
     12716     12714     12726     12728     12716     12714     12726     12729
     12717     12720     12721     12722     12717     12720     12721     12723
     12718     12717     12720     12721     12719     12717     12720     12721
     12720     12721     12723     12724     12720     12721     12723     12725
     12720     12721     12723     12773     12721     12723     12773     12774
     12721     12723     12773     12775     12721     12723     12773     12776
     12722     12721     12723     12724     12722     12721     12723     12725
     12722     12721     12723     12773     12723     12773     12776     12777
     12723     12773     12776     12778     12723     12773     12776     12779
     12724     12723     12773     12774     12724     12723     12773     12775
     12724     12723     12773     12776     12725     12723     12773     12774
     12725     12723     12773     12775     12725     12723     12773     12776
     12726     12729     12732     12733     12726     12729     12732     12734
     12726     12729     12732     12735     12727     12726     12729     12730
     12727     12726     12729     12731     12727     12726     12729     12732
     12728     12726     12729     12730     12728     12726     12729     12731
     12728     12726     12729     12732     12729     12732     12735     12736
     12729     12732     12735     12737     12729     12732     12735     12738
     12730     12729     12732     12733     12730     12729     12732     12734
     12730     12729     12732     12735     12731     12729     12732     12733
     12731     12729     12732     12734     12731     12729     12732     12735
     12732     12735     12738     12739     12732     12735     12738     12740
     12732     12735     12738     12741     12733     12732     12735     12736
     12733     12732     12735     12737     12733     12732     12735     12738
     12734     12732     12735     12736     12734     12732     12735     12737
     12734     12732     12735     12738     12735     12738     12741     12742
     12735     12738     12741     12743     12735     12738     12741     12744
     12736     12735     12738     12739     12736     12735     12738     12740
     12736     12735     12738     12741     12737     12735     12738     12739
     12737     12735     12738     12740     12737     12735     12738     12741
     12738     12741     12744     12745     12738     12741     12744     12746
     12739     12738     12741     12742     12739     12738     12741     12743
     12739     12738     12741     12744     12740     12738     12741     12742
     12740     12738     12741     12743     12740     12738     12741     12744
     12741     12744     12746     12747     12741     12744     12746     12748
     12742     12741     12744     12745     12742     12741     12744     12746
     12743     12741     12744     12745     12743     12741     12744     12746
     12744     12746     12748     12749     12744     12746     12748     12750
     12744     12746     12748     12751     12745     12744     12746     12747
     12745     12744     12746     12748     12746     12748     12751     12752
     12746     12748     12751     12753     12746     12748     12751     12754
     12747     12746     12748     12749     12747     12746     12748     12750
     12747     12746     12748     12751     12748     12751     12754     12755
     12748     12751     12754     12756     12748     12751     12754     12757
     12749     12748     12751     12752     12749     12748     12751     12753
     12749     12748     12751     12754     12750     12748     12751     12752
     12750     12748     12751     12753     12750     12748     12751     12754
     12751     12754     12757     12758     12751     12754     12757     12759
     12751     12754     12757     12760     12752     12751     12754     12755
     12752     12751     12754     12756     12752     12751     12754     12757
     12753     12751     12754     12755     12753     12751     12754     12756
     12753     12751     12754     12757     12754     12757     12760     12761
     12754     12757     12760     12762     12754     12757     12760     12763
     12755     12754     12757     12758     12755     12754     12757     12759
     12755     12754     12757     12760     12756     12754     12757     12758
     12756     12754     12757     12759     12756     12754     12757     12760
     12757     12760     12763     12764     12757     12760     12763     12765
     12757     12760     12763     12766     12758     12757     12760     12761
     12758     12757     12760     12762     12758     12757     12760     12763
     12759     12757     12760     12761     12759     12757     12760     12762
     12759     12757     12760     12763     12760     12763     12766     12767
     12760     12763     12766     12768     12760     12763     12766     12769
     12761     12760     12763     12764     12761     12760     12763     12765
     12761     12760     12763     12766     12762     12760     12763     12764
     12762     12760     12763     12765     12762     12760     12763     12766
     12763     12766     12769     12770     12763     12766     12769     12771
     12763     12766     12769     12772     12764     12763     12766     12767
     12764     12763     12766     12768     12764     12763     12766     12769
     12765     12763     12766     12767     12765     12763     12766     12768
     12765     12763     12766     12769     12767     12766     12769     12770
     12767     12766     12769     12771     12767     12766     12769     12772
     12768     12766     12769     12770     12768     12766     12769     12771
     12768     12766     12769     12772     12773     12776     12779     12780
     12773     12776     12779     12781     12773     12776     12779     12782
     12774     12773     12776     12777     12774     12773     12776     12778
     12774     12773     12776     12779     12775     12773     12776     12777
     12775     12773     12776     12778     12775     12773     12776     12779
     12776     12779     12782     12783     12776     12779     12782     12784
     12776     12779     12782     12785     12777     12776     12779     12780
     12777     12776     12779     12781     12777     12776     12779     12782
     12778     12776     12779     12780     12778     12776     12779     12781
     12778     12776     12779     12782     12779     12782     12785     12786
     12779     12782     12785     12787     12779     12782     12785     12788
     12780     12779     12782     12783     12780     12779     12782     12784
     12780     12779     12782     12785     12781     12779     12782     12783
     12781     12779     12782     12784     12781     12779     12782     12785
     12782     12785     12788     12789     12782     12785     12788     12790
     12782     12785     12788     12791     12783     12782     12785     12786
     12783     12782     12785     12787     12783     12782     12785     12788
     12784     12782     12785     12786     12784     12782     12785     12787
     12784     12782     12785     12788     12785     12788     12791     12792
     12785     12788     12791     12793     12785     12788     12791     12794
     12786     12785     12788     12789     12786     12785     12788     12790
     12786     12785     12788     12791     12787     12785     12788     12789
     12787     12785     12788     12790     12787     12785     12788     12791
     12788     12791     12794     12795     12788     12791     12794     12796
     12788     12791     12794     12797     12789     12788     12791     12792
     12789     12788     12791     12793     12789     12788     12791     12794
     12790     12788     12791     12792     12790     12788     12791     12793
     12790     12788     12791     12794     12791     12794     12797     12798
     12791     12794     12797     12799     12791     12794     12797     12800
     12792     12791     12794     12795     12792     12791     12794     12796
     12792     12791     12794     12797     12793     12791     12794     12795
     12793     12791     12794     12796     12793     12791     12794     12797
     12794     12797     12800     12801     12794     12797     12800     12802
     12794     12797     12800     12803     12795     12794     12797     12798
     12795     12794     12797     12799     12795     12794     12797     12800
     12796     12794     12797     12798     12796     12794     12797     12799
     12796     12794     12797     12800     12797     12800     12803     12804
     12797     12800     12803     12805     12797     12800     12803     12806
     12798     12797     12800     12801     12798     12797     12800     12802
     12798     12797     12800     12803     12799     12797     12800     12801
     12799     12797     12800     12802     12799     12797     12800     12803
     12800     12803     12806     12807     12800     12803     12806     12808
     12800     12803     12806     12809     12801     12800     12803     12804
     12801     12800     12803     12805     12801     12800     12803     12806
     12802     12800     12803     12804     12802     12800     12803     12805
     12802     12800     12803     12806     12803     12806     12809     12810
     12803     12806     12809     12811     12803     12806     12809     12812
     12804     12803     12806     12807     12804     12803     12806     12808
     12804     12803     12806     12809     12805     12803     12806     12807
     12805     12803     12806     12808     12805     12803     12806     12809
     12806     12809     12812     12813     12806     12809     12812     12814
     12806     12809     12812     12815     12807     12806     12809     12810
     12807     12806     12809     12811     12807     12806     12809     12812
     12808     12806     12809     12810     12808     12806     12809     12811
     12808     12806     12809     12812     12810     12809     12812     12813
     12810     12809     12812     12814     12810     12809     12812     12815
     12811     12809     12812     12813     12811     12809     12812     12814
     12811     12809     12812     12815     12816     12817     12832     12833
     12816     12817     12832     12834     12816     12817     12832     12838
     12817     12816     12820     12821     12817     12816     12820     12822
     12817     12816     12820     12823     12817     12816     12824     12825
     12817     12816     12824     12826     12817     12816     12824     12827
     12817     12816     12828     12829     12817     12816     12828     12830
     12817     12816     12828     12831     12817     12832     12838     12835
     12818     12817     12816     12820     12818     12817     12816     12824
     12818     12817     12816     12828     12818     12817     12832     12833
     12818     12817     12832     12834     12818     12817     12832     12838
     12819     12817     12816     12820     12819     12817     12816     12824
     12819     12817     12816     12828     12819     12817     12832     12833
     12819     12817     12832     12834     12819     12817     12832     12838
     12820     12816     12817     12832     12820     12816     12824     12825
     12820     12816     12824     12826     12820     12816     12824     12827
     12820     12816     12828     12829     12820     12816     12828     12830
     12820     12816     12828     12831     12821     12820     12816     12824
     12821     12820     12816     12828     12822     12820     12816     12824
     12822     12820     12816     12828     12823     12820     12816     12824
     12823     12820     12816     12828     12824     12816     12817     12832
     12824     12816     12828     12829     12824     12816     12828     12830
     12824     12816     12828     12831     12825     12824     12816     12828
     12826     12824     12816     12828     12827     12824     12816     12828
     12828     12816     12817     12832     12832     12838     12835     12836
     12832     12838     12835     12837     12832     12838     12835     12839
     12833     12832     12838     12835     12834     12832     12838     12835
     12835     12839     12840     12841     12835     12839     12840     12842
     12835     12839     12840     12843     12836     12835     12839     12840
     12837     12835     12839     12840     12838     12835     12839     12840
     12839     12840     12843     12844     12839     12840     12843     12845
     12839     12840     12843     12851     12840     12843     12845     12846
     12840     12843     12851     12852     12840     12843     12851     12853
     12840     12843     12851     12854     12841     12840     12843     12844
     12841     12840     12843     12845     12841     12840     12843     12851
     12842     12840     12843     12844     12842     12840     12843     12845
     12842     12840     12843     12851     12843     12845     12846     12847
     12843     12845     12846     12848     12843     12851     12854     12855
     12844     12843     12845     12846     12844     12843     12851     12852
     12844     12843     12851     12853     12844     12843     12851     12854
     12845     12843     12851     12852     12845     12843     12851     12853
     12845     12843     12851     12854     12845     12846     12848     12849
     12845     12846     12848     12850     12845     12846     12848     12860
     12846     12845     12843     12851     12846     12848     12860     12861
     12846     12848     12860     12862     12846     12848     12860     12863
     12847     12846     12848     12849     12847     12846     12848     12850
     12847     12846     12848     12860     12848     12860     12863     12864
     12848     12860     12863     12865     12848     12860     12863     12866
     12849     12848     12860     12861     12849     12848     12860     12862
     12849     12848     12860     12863     12850     12848     12860     12861
     12850     12848     12860     12862     12850     12848     12860     12863
     12851     12854     12855     12856     12851     12854     12855     12857
     12852     12851     12854     12855     12853     12851     12854     12855
     12854     12855     12857     12858     12854     12855     12857     12859
     12854     12855     12857     12907     12855     12857     12907     12908
     12855     12857     12907     12909     12855     12857     12907     12910
     12856     12855     12857     12858     12856     12855     12857     12859
     12856     12855     12857     12907     12857     12907     12910     12911
     12857     12907     12910     12912     12857     12907     12910     12913
     12858     12857     12907     12908     12858     12857     12907     12909
     12858     12857     12907     12910     12859     12857     12907     12908
     12859     12857     12907     12909     12859     12857     12907     12910
     12860     12863     12866     12867     12860     12863     12866     12868
     12860     12863     12866     12869     12861     12860     12863     12864
     12861     12860     12863     12865     12861     12860     12863     12866
     12862     12860     12863     12864     12862     12860     12863     12865
     12862     12860     12863     12866     12863     12866     12869     12870
     12863     12866     12869     12871     12863     12866     12869     12872
     12864     12863     12866     12867     12864     12863     12866     12868
     12864     12863     12866     12869     12865     12863     12866     12867
     12865     12863     12866     12868     12865     12863     12866     12869
     12866     12869     12872     12873     12866     12869     12872     12874
     12866     12869     12872     12875     12867     12866     12869     12870
     12867     12866     12869     12871     12867     12866     12869     12872
     12868     12866     12869     12870     12868     12866     12869     12871
     12868     12866     12869     12872     12869     12872     12875     12876
     12869     12872     12875     12877     12869     12872     12875     12878
     12870     12869     12872     12873     12870     12869     12872     12874
     12870     12869     12872     12875     12871     12869     12872     12873
     12871     12869     12872     12874     12871     12869     12872     12875
     12872     12875     12878     12879     12872     12875     12878     12880
     12873     12872     12875     12876     12873     12872     12875     12877
     12873     12872     12875     12878     12874     12872     12875     12876
     12874     12872     12875     12877     12874     12872     12875     12878
     12875     12878     12880     12881     12875     12878     12880     12882
     12876     12875     12878     12879     12876     12875     12878     12880
     12877     12875     12878     12879     12877     12875     12878     12880
     12878     12880     12882     12883     12878     12880     12882     12884
     12878     12880     12882     12885     12879     12878     12880     12881
     12879     12878     12880     12882     12880     12882     12885     12886
     12880     12882     12885     12887     12880     12882     12885     12888
     12881     12880     12882     12883     12881     12880     12882     12884
     12881     12880     12882     12885     12882     12885     12888     12889
     12882     12885     12888     12890     12882     12885     12888     12891
     12883     12882     12885     12886     12883     12882     12885     12887
     12883     12882     12885     12888     12884     12882     12885     12886
     12884     12882     12885     12887     12884     12882     12885     12888
     12885     12888     12891     12892     12885     12888     12891     12893
     12885     12888     12891     12894     12886     12885     12888     12889
     12886     12885     12888     12890     12886     12885     12888     12891
     12887     12885     12888     12889     12887     12885     12888     12890
     12887     12885     12888     12891     12888     12891     12894     12895
     12888     12891     12894     12896     12888     12891     12894     12897
     12889     12888     12891     12892     12889     12888     12891     12893
     12889     12888     12891     12894     12890     12888     12891     12892
     12890     12888     12891     12893     12890     12888     12891     12894
     12891     12894     12897     12898     12891     12894     12897     12899
     12891     12894     12897     12900     12892     12891     12894     12895
     12892     12891     12894     12896     12892     12891     12894     12897
     12893     12891     12894     12895     12893     12891     12894     12896
     12893     12891     12894     12897     12894     12897     12900     12901
     12894     12897     12900     12902     12894     12897     12900     12903
     12895     12894     12897     12898     12895     12894     12897     12899
     12895     12894     12897     12900     12896     12894     12897     12898
     12896     12894     12897     12899     12896     12894     12897     12900
     12897     12900     12903     12904     12897     12900     12903     12905
     12897     12900     12903     12906     12898     12897     12900     12901
     12898     12897     12900     12902     12898     12897     12900     12903
     12899     12897     12900     12901     12899     12897     12900     12902
     12899     12897     12900     12903     12901     12900     12903     12904
     12901     12900     12903     12905     12901     12900     12903     12906
     12902     12900     12903     12904     12902     12900     12903     12905
     12902     12900     12903     12906     12907     12910     12913     12914
     12907     12910     12913     12915     12907     12910     12913     12916
     12908     12907     12910     12911     12908     12907     12910     12912
     12908     12907     12910     12913     12909     12907     12910     12911
     12909     12907     12910     12912     12909     12907     12910     12913
     12910     12913     12916     12917     12910     12913     12916     12918
     12910     12913     12916     12919     12911     12910     12913     12914
     12911     12910     12913     12915     12911     12910     12913     12916
     12912     12910     12913     12914     12912     12910     12913     12915
     12912     12910     12913     12916     12913     12916     12919     12920
     12913     12916     12919     12921     12913     12916     12919     12922
     12914     12913     12916     12917     12914     12913     12916     12918
     12914     12913     12916     12919     12915     12913     12916     12917
     12915     12913     12916     12918     12915     12913     12916     12919
     12916     12919     12922     12923     12916     12919     12922     12924
     12916     12919     12922     12925     12917     12916     12919     12920
     12917     12916     12919     12921     12917     12916     12919     12922
     12918     12916     12919     12920     12918     12916     12919     12921
     12918     12916     12919     12922     12919     12922     12925     12926
     12919     12922     12925     12927     12919     12922     12925     12928
     12920     12919     12922     12923     12920     12919     12922     12924
     12920     12919     12922     12925     12921     12919     12922     12923
     12921     12919     12922     12924     12921     12919     12922     12925
     12922     12925     12928     12929     12922     12925     12928     12930
     12922     12925     12928     12931     12923     12922     12925     12926
     12923     12922     12925     12927     12923     12922     12925     12928
     12924     12922     12925     12926     12924     12922     12925     12927
     12924     12922     12925     12928     12925     12928     12931     12932
     12925     12928     12931     12933     12925     12928     12931     12934
     12926     12925     12928     12929     12926     12925     12928     12930
     12926     12925     12928     12931     12927     12925     12928     12929
     12927     12925     12928     12930     12927     12925     12928     12931
     12928     12931     12934     12935     12928     12931     12934     12936
     12928     12931     12934     12937     12929     12928     12931     12932
     12929     12928     12931     12933     12929     12928     12931     12934
     12930     12928     12931     12932     12930     12928     12931     12933
     12930     12928     12931     12934     12931     12934     12937     12938
     12931     12934     12937     12939     12931     12934     12937     12940
     12932     12931     12934     12935     12932     12931     12934     12936
     12932     12931     12934     12937     12933     12931     12934     12935
     12933     12931     12934     12936     12933     12931     12934     12937
     12934     12937     12940     12941     12934     12937     12940     12942
     12934     12937     12940     12943     12935     12934     12937     12938
     12935     12934     12937     12939     12935     12934     12937     12940
     12936     12934     12937     12938     12936     12934     12937     12939
     12936     12934     12937     12940     12937     12940     12943     12944
     12937     12940     12943     12945     12937     12940     12943     12946
     12938     12937     12940     12941     12938     12937     12940     12942
     12938     12937     12940     12943     12939     12937     12940     12941
     12939     12937     12940     12942     12939     12937     12940     12943
     12940     12943     12946     12947     12940     12943     12946     12948
     12940     12943     12946     12949     12941     12940     12943     12944
     12941     12940     12943     12945     12941     12940     12943     12946
     12942     12940     12943     12944     12942     12940     12943     12945
     12942     12940     12943     12946     12944     12943     12946     12947
     12944     12943     12946     12948     12944     12943     12946     12949
     12945     12943     12946     12947     12945     12943     12946     12948
     12945     12943     12946     12949     12950     12954     12957     12958
     12950     12954     12957     12959     12950     12954     12957     12964
     12951     12950     12954     12955     12951     12950     12954     12956
     12951     12950     12954     12957     12952     12950     12954     12955
     12952     12950     12954     12956     12952     12950     12954     12957
     12953     12950     12954     12955     12953     12950     12954     12956
     12953     12950     12954     12957     12954     12957     12964     12960
     12955     12954     12957     12958     12955     12954     12957     12959
     12955     12954     12957     12964     12956     12954     12957     12958
     12956     12954     12957     12959     12956     12954     12957     12964
     12957     12964     12960     12961     12957     12964     12960     12962
     12957     12964     12960     12963     12958     12957     12964     12960
     12959     12957     12964     12960     12960     12963     12965     12966
     12960     12963     12965     12967     12960     12963     12965     12968
     12961     12960     12963     12965     12962     12960     12963     12965
     12963     12965     12968     12969     12963     12965     12968     12970
     12963     12965     12968     12976     12964     12960     12963     12965
     12965     12968     12970     12971     12965     12968     12976     12977
     12965     12968     12976     12978     12965     12968     12976     12979
     12966     12965     12968     12969     12966     12965     12968     12970
     12966     12965     12968     12976     12967     12965     12968     12969
     12967     12965     12968     12970     12967     12965     12968     12976
     12968     12970     12971     12972     12968     12970     12971     12973
     12968     12976     12979     12980     12969     12968     12970     12971
     12969     12968     12976     12977     12969     12968     12976     12978
     12969     12968     12976     12979     12970     12968     12976     12977
     12970     12968     12976     12978     12970     12968     12976     12979
     12970     12971     12973     12974     12970     12971     12973     12975
     12970     12971     12973     12985     12971     12970     12968     12976
     12971     12973     12985     12986     12971     12973     12985     12987
     12971     12973     12985     12988     12972     12971     12973     12974
     12972     12971     12973     12975     12972     12971     12973     12985
     12973     12985     12988     12989     12973     12985     12988     12990
     12973     12985     12988     12991     12974     12973     12985     12986
     12974     12973     12985     12987     12974     12973     12985     12988
     12975     12973     12985     12986     12975     12973     12985     12987
     12975     12973     12985     12988     12976     12979     12980     12981
     12976     12979     12980     12982     12977     12976     12979     12980
     12978     12976     12979     12980     12979     12980     12982     12983
     12979     12980     12982     12984     12979     12980     12982     13032
     12980     12982     13032     13033     12980     12982     13032     13034
     12980     12982     13032     13035     12981     12980     12982     12983
     12981     12980     12982     12984     12981     12980     12982     13032
     12982     13032     13035     13036     12982     13032     13035     13037
     12982     13032     13035     13038     12983     12982     13032     13033
     12983     12982     13032     13034     12983     12982     13032     13035
     12984     12982     13032     13033     12984     12982     13032     13034
     12984     12982     13032     13035     12985     12988     12991     12992
     12985     12988     12991     12993     12985     12988     12991     12994
     12986     12985     12988     12989     12986     12985     12988     12990
     12986     12985     12988     12991     12987     12985     12988     12989
     12987     12985     12988     12990     12987     12985     12988     12991
     12988     12991     12994     12995     12988     12991     12994     12996
     12988     12991     12994     12997     12989     12988     12991     12992
     12989     12988     12991     12993     12989     12988     12991     12994
     12990     12988     12991     12992     12990     12988     12991     12993
     12990     12988     12991     12994     12991     12994     12997     12998
     12991     12994     12997     12999     12991     12994     12997     13000
     12992     12991     12994     12995     12992     12991     12994     12996
     12992     12991     12994     12997     12993     12991     12994     12995
     12993     12991     12994     12996     12993     12991     12994     12997
     12994     12997     13000     13001     12994     12997     13000     13002
     12994     12997     13000     13003     12995     12994     12997     12998
     12995     12994     12997     12999     12995     12994     12997     13000
     12996     12994     12997     12998     12996     12994     12997     12999
     12996     12994     12997     13000     12997     13000     13003     13004
     12997     13000     13003     13005     12998     12997     13000     13001
     12998     12997     13000     13002     12998     12997     13000     13003
     12999     12997     13000     13001     12999     12997     13000     13002
     12999     12997     13000     13003     13000     13003     13005     13006
     13000     13003     13005     13007     13001     13000     13003     13004
     13001     13000     13003     13005     13002     13000     13003     13004
     13002     13000     13003     13005     13003     13005     13007     13008
     13003     13005     13007     13009     13003     13005     13007     13010
     13004     13003     13005     13006     13004     13003     13005     13007
     13005     13007     13010     13011     13005     13007     13010     13012
     13005     13007     13010     13013     13006     13005     13007     13008
     13006     13005     13007     13009     13006     13005     13007     13010
     13007     13010     13013     13014     13007     13010     13013     13015
     13007     13010     13013     13016     13008     13007     13010     13011
     13008     13007     13010     13012     13008     13007     13010     13013
     13009     13007     13010     13011     13009     13007     13010     13012
     13009     13007     13010     13013     13010     13013     13016     13017
     13010     13013     13016     13018     13010     13013     13016     13019
     13011     13010     13013     13014     13011     13010     13013     13015
     13011     13010     13013     13016     13012     13010     13013     13014
     13012     13010     13013     13015     13012     13010     13013     13016
     13013     13016     13019     13020     13013     13016     13019     13021
     13013     13016     13019     13022     13014     13013     13016     13017
     13014     13013     13016     13018     13014     13013     13016     13019
     13015     13013     13016     13017     13015     13013     13016     13018
     13015     13013     13016     13019     13016     13019     13022     13023
     13016     13019     13022     13024     13016     13019     13022     13025
     13017     13016     13019     13020     13017     13016     13019     13021
     13017     13016     13019     13022     13018     13016     13019     13020
     13018     13016     13019     13021     13018     13016     13019     13022
     13019     13022     13025     13026     13019     13022     13025     13027
     13019     13022     13025     13028     13020     13019     13022     13023
     13020     13019     13022     13024     13020     13019     13022     13025
     13021     13019     13022     13023     13021     13019     13022     13024
     13021     13019     13022     13025     13022     13025     13028     13029
     13022     13025     13028     13030     13022     13025     13028     13031
     13023     13022     13025     13026     13023     13022     13025     13027
     13023     13022     13025     13028     13024     13022     13025     13026
     13024     13022     13025     13027     13024     13022     13025     13028
     13026     13025     13028     13029     13026     13025     13028     13030
     13026     13025     13028     13031     13027     13025     13028     13029
     13027     13025     13028     13030     13027     13025     13028     13031
     13032     13035     13038     13039     13032     13035     13038     13040
     13032     13035     13038     13041     13033     13032     13035     13036
     13033     13032     13035     13037     13033     13032     13035     13038
     13034     13032     13035     13036     13034     13032     13035     13037
     13034     13032     13035     13038     13035     13038     13041     13042
     13035     13038     13041     13043     13035     13038     13041     13044
     13036     13035     13038     13039     13036     13035     13038     13040
     13036     13035     13038     13041     13037     13035     13038     13039
     13037     13035     13038     13040     13037     13035     13038     13041
     13038     13041     13044     13045     13038     13041     13044     13046
     13038     13041     13044     13047     13039     13038     13041     13042
     13039     13038     13041     13043     13039     13038     13041     13044
     13040     13038     13041     13042     13040     13038     13041     13043
     13040     13038     13041     13044     13041     13044     13047     13048
     13041     13044     13047     13049     13041     13044     13047     13050
     13042     13041     13044     13045     13042     13041     13044     13046
     13042     13041     13044     13047     13043     13041     13044     13045
     13043     13041     13044     13046     13043     13041     13044     13047
     13044     13047     13050     13051     13044     13047     13050     13052
     13044     13047     13050     13053     13045     13044     13047     13048
     13045     13044     13047     13049     13045     13044     13047     13050
     13046     13044     13047     13048     13046     13044     13047     13049
     13046     13044     13047     13050     13047     13050     13053     13054
     13047     13050     13053     13055     13047     13050     13053     13056
     13048     13047     13050     13051     13048     13047     13050     13052
     13048     13047     13050     13053     13049     13047     13050     13051
     13049     13047     13050     13052     13049     13047     13050     13053
     13050     13053     13056     13057     13050     13053     13056     13058
     13050     13053     13056     13059     13051     13050     13053     13054
     13051     13050     13053     13055     13051     13050     13053     13056
     13052     13050     13053     13054     13052     13050     13053     13055
     13052     13050     13053     13056     13053     13056     13059     13060
     13053     13056     13059     13061     13053     13056     13059     13062
     13054     13053     13056     13057     13054     13053     13056     13058
     13054     13053     13056     13059     13055     13053     13056     13057
     13055     13053     13056     13058     13055     13053     13056     13059
     13056     13059     13062     13063     13056     13059     13062     13064
     13056     13059     13062     13065     13057     13056     13059     13060
     13057     13056     13059     13061     13057     13056     13059     13062
     13058     13056     13059     13060     13058     13056     13059     13061
     13058     13056     13059     13062     13059     13062     13065     13066
     13059     13062     13065     13067     13059     13062     13065     13068
     13060     13059     13062     13063     13060     13059     13062     13064
     13060     13059     13062     13065     13061     13059     13062     13063
     13061     13059     13062     13064     13061     13059     13062     13065
     13062     13065     13068     13069     13062     13065     13068     13070
     13062     13065     13068     13071     13063     13062     13065     13066
     13063     13062     13065     13067     13063     13062     13065     13068
     13064     13062     13065     13066     13064     13062     13065     13067
     13064     13062     13065     13068     13065     13068     13071     13072
     13065     13068     13071     13073     13065     13068     13071     13074
     13066     13065     13068     13069     13066     13065     13068     13070
     13066     13065     13068     13071     13067     13065     13068     13069
     13067     13065     13068     13070     13067     13065     13068     13071
     13069     13068     13071     13072     13069     13068     13071     13073
     13069     13068     13071     13074     13070     13068     13071     13072
     13070     13068     13071     13073     13070     13068     13071     13074
     13075     13079     13082     13083     13075     13079     13082     13084
     13075     13079     13082     13089     13076     13075     13079     13080
     13076     13075     13079     13081     13076     13075     13079     13082
     13077     13075     13079     13080     13077     13075     13079     13081
     13077     13075     13079     13082     13078     13075     13079     13080
     13078     13075     13079     13081     13078     13075     13079     13082
     13079     13082     13089     13085     13080     13079     13082     13083
     13080     13079     13082     13084     13080     13079     13082     13089
     13081     13079     13082     13083     13081     13079     13082     13084
     13081     13079     13082     13089     13082     13089     13085     13086
     13082     13089     13085     13087     13082     13089     13085     13088
     13083     13082     13089     13085     13084     13082     13089     13085
     13085     13088     13090     13091     13085     13088     13090     13092
     13085     13088     13090     13093     13086     13085     13088     13090
     13087     13085     13088     13090     13088     13090     13093     13094
     13088     13090     13093     13095     13088     13090     13093     13101
     13089     13085     13088     13090     13090     13093     13095     13096
     13090     13093     13101     13102     13090     13093     13101     13103
     13090     13093     13101     13104     13091     13090     13093     13094
     13091     13090     13093     13095     13091     13090     13093     13101
     13092     13090     13093     13094     13092     13090     13093     13095
     13092     13090     13093     13101     13093     13095     13096     13097
     13093     13095     13096     13098     13093     13101     13104     13105
     13094     13093     13095     13096     13094     13093     13101     13102
     13094     13093     13101     13103     13094     13093     13101     13104
     13095     13093     13101     13102     13095     13093     13101     13103
     13095     13093     13101     13104     13095     13096     13098     13099
     13095     13096     13098     13100     13095     13096     13098     13110
     13096     13095     13093     13101     13096     13098     13110     13111
     13096     13098     13110     13112     13096     13098     13110     13113
     13097     13096     13098     13099     13097     13096     13098     13100
     13097     13096     13098     13110     13098     13110     13113     13114
     13098     13110     13113     13115     13098     13110     13113     13116
     13099     13098     13110     13111     13099     13098     13110     13112
     13099     13098     13110     13113     13100     13098     13110     13111
     13100     13098     13110     13112     13100     13098     13110     13113
     13101     13104     13105     13106     13101     13104     13105     13107
     13102     13101     13104     13105     13103     13101     13104     13105
     13104     13105     13107     13108     13104     13105     13107     13109
     13104     13105     13107     13157     13105     13107     13157     13158
     13105     13107     13157     13159     13105     13107     13157     13160
     13106     13105     13107     13108     13106     13105     13107     13109
     13106     13105     13107     13157     13107     13157     13160     13161
     13107     13157     13160     13162     13107     13157     13160     13163
     13108     13107     13157     13158     13108     13107     13157     13159
     13108     13107     13157     13160     13109     13107     13157     13158
     13109     13107     13157     13159     13109     13107     13157     13160
     13110     13113     13116     13117     13110     13113     13116     13118
     13110     13113     13116     13119     13111     13110     13113     13114
     13111     13110     13113     13115     13111     13110     13113     13116
     13112     13110     13113     13114     13112     13110     13113     13115
     13112     13110     13113     13116     13113     13116     13119     13120
     13113     13116     13119     13121     13113     13116     13119     13122
     13114     13113     13116     13117     13114     13113     13116     13118
     13114     13113     13116     13119     13115     13113     13116     13117
     13115     13113     13116     13118     13115     13113     13116     13119
     13116     13119     13122     13123     13116     13119     13122     13124
     13116     13119     13122     13125     13117     13116     13119     13120
     13117     13116     13119     13121     13117     13116     13119     13122
     13118     13116     13119     13120     13118     13116     13119     13121
     13118     13116     13119     13122     13119     13122     13125     13126
     13119     13122     13125     13127     13119     13122     13125     13128
     13120     13119     13122     13123     13120     13119     13122     13124
     13120     13119     13122     13125     13121     13119     13122     13123
     13121     13119     13122     13124     13121     13119     13122     13125
     13122     13125     13128     13129     13122     13125     13128     13130
     13123     13122     13125     13126     13123     13122     13125     13127
     13123     13122     13125     13128     13124     13122     13125     13126
     13124     13122     13125     13127     13124     13122     13125     13128
     13125     13128     13130     13131     13125     13128     13130     13132
     13126     13125     13128     13129     13126     13125     13128     13130
     13127     13125     13128     13129     13127     13125     13128     13130
     13128     13130     13132     13133     13128     13130     13132     13134
     13128     13130     13132     13135     13129     13128     13130     13131
     13129     13128     13130     13132     13130     13132     13135     13136
     13130     13132     13135     13137     13130     13132     13135     13138
     13131     13130     13132     13133     13131     13130     13132     13134
     13131     13130     13132     13135     13132     13135     13138     13139
     13132     13135     13138     13140     13132     13135     13138     13141
     13133     13132     13135     13136     13133     13132     13135     13137
     13133     13132     13135     13138     13134     13132     13135     13136
     13134     13132     13135     13137     13134     13132     13135     13138
     13135     13138     13141     13142     13135     13138     13141     13143
     13135     13138     13141     13144     13136     13135     13138     13139
     13136     13135     13138     13140     13136     13135     13138     13141
     13137     13135     13138     13139     13137     13135     13138     13140
     13137     13135     13138     13141     13138     13141     13144     13145
     13138     13141     13144     13146     13138     13141     13144     13147
     13139     13138     13141     13142     13139     13138     13141     13143
     13139     13138     13141     13144     13140     13138     13141     13142
     13140     13138     13141     13143     13140     13138     13141     13144
     13141     13144     13147     13148     13141     13144     13147     13149
     13141     13144     13147     13150     13142     13141     13144     13145
     13142     13141     13144     13146     13142     13141     13144     13147
     13143     13141     13144     13145     13143     13141     13144     13146
     13143     13141     13144     13147     13144     13147     13150     13151
     13144     13147     13150     13152     13144     13147     13150     13153
     13145     13144     13147     13148     13145     13144     13147     13149
     13145     13144     13147     13150     13146     13144     13147     13148
     13146     13144     13147     13149     13146     13144     13147     13150
     13147     13150     13153     13154     13147     13150     13153     13155
     13147     13150     13153     13156     13148     13147     13150     13151
     13148     13147     13150     13152     13148     13147     13150     13153
     13149     13147     13150     13151     13149     13147     13150     13152
     13149     13147     13150     13153     13151     13150     13153     13154
     13151     13150     13153     13155     13151     13150     13153     13156
     13152     13150     13153     13154     13152     13150     13153     13155
     13152     13150     13153     13156     13157     13160     13163     13164
     13157     13160     13163     13165     13157     13160     13163     13166
     13158     13157     13160     13161     13158     13157     13160     13162
     13158     13157     13160     13163     13159     13157     13160     13161
     13159     13157     13160     13162     13159     13157     13160     13163
     13160     13163     13166     13167     13160     13163     13166     13168
     13160     13163     13166     13169     13161     13160     13163     13164
     13161     13160     13163     13165     13161     13160     13163     13166
     13162     13160     13163     13164     13162     13160     13163     13165
     13162     13160     13163     13166     13163     13166     13169     13170
     13163     13166     13169     13171     13163     13166     13169     13172
     13164     13163     13166     13167     13164     13163     13166     13168
     13164     13163     13166     13169     13165     13163     13166     13167
     13165     13163     13166     13168     13165     13163     13166     13169
     13166     13169     13172     13173     13166     13169     13172     13174
     13166     13169     13172     13175     13167     13166     13169     13170
     13167     13166     13169     13171     13167     13166     13169     13172
     13168     13166     13169     13170     13168     13166     13169     13171
     13168     13166     13169     13172     13169     13172     13175     13176
     13169     13172     13175     13177     13169     13172     13175     13178
     13170     13169     13172     13173     13170     13169     13172     13174
     13170     13169     13172     13175     13171     13169     13172     13173
     13171     13169     13172     13174     13171     13169     13172     13175
     13172     13175     13178     13179     13172     13175     13178     13180
     13172     13175     13178     13181     13173     13172     13175     13176
     13173     13172     13175     13177     13173     13172     13175     13178
     13174     13172     13175     13176     13174     13172     13175     13177
     13174     13172     13175     13178     13175     13178     13181     13182
     13175     13178     13181     13183     13175     13178     13181     13184
     13176     13175     13178     13179     13176     13175     13178     13180
     13176     13175     13178     13181     13177     13175     13178     13179
     13177     13175     13178     13180     13177     13175     13178     13181
     13178     13181     13184     13185     13178     13181     13184     13186
     13178     13181     13184     13187     13179     13178     13181     13182
     13179     13178     13181     13183     13179     13178     13181     13184
     13180     13178     13181     13182     13180     13178     13181     13183
     13180     13178     13181     13184     13181     13184     13187     13188
     13181     13184     13187     13189     13181     13184     13187     13190
     13182     13181     13184     13185     13182     13181     13184     13186
     13182     13181     13184     13187     13183     13181     13184     13185
     13183     13181     13184     13186     13183     13181     13184     13187
     13184     13187     13190     13191     13184     13187     13190     13192
     13184     13187     13190     13193     13185     13184     13187     13188
     13185     13184     13187     13189     13185     13184     13187     13190
     13186     13184     13187     13188     13186     13184     13187     13189
     13186     13184     13187     13190     13187     13190     13193     13194
     13187     13190     13193     13195     13187     13190     13193     13196
     13188     13187     13190     13191     13188     13187     13190     13192
     13188     13187     13190     13193     13189     13187     13190     13191
     13189     13187     13190     13192     13189     13187     13190     13193
     13190     13193     13196     13197     13190     13193     13196     13198
     13190     13193     13196     13199     13191     13190     13193     13194
     13191     13190     13193     13195     13191     13190     13193     13196
     13192     13190     13193     13194     13192     13190     13193     13195
     13192     13190     13193     13196     13194     13193     13196     13197
     13194     13193     13196     13198     13194     13193     13196     13199
     13195     13193     13196     13197     13195     13193     13196     13198
     13195     13193     13196     13199     13200     13201     13216     13217
     13200     13201     13216     13218     13200     13201     13216     13222
     13201     13200     13204     13205     13201     13200     13204     13206
     13201     13200     13204     13207     13201     13200     13208     13209
     13201     13200     13208     13210     13201     13200     13208     13211
     13201     13200     13212     13213     13201     13200     13212     13214
     13201     13200     13212     13215     13201     13216     13222     13219
     13202     13201     13200     13204     13202     13201     13200     13208
     13202     13201     13200     13212     13202     13201     13216     13217
     13202     13201     13216     13218     13202     13201     13216     13222
     13203     13201     13200     13204     13203     13201     13200     13208
     13203     13201     13200     13212     13203     13201     13216     13217
     13203     13201     13216     13218     13203     13201     13216     13222
     13204     13200     13201     13216     13204     13200     13208     13209
     13204     13200     13208     13210     13204     13200     13208     13211
     13204     13200     13212     13213     13204     13200     13212     13214
     13204     13200     13212     13215     13205     13204     13200     13208
     13205     13204     13200     13212     13206     13204     13200     13208
     13206     13204     13200     13212     13207     13204     13200     13208
     13207     13204     13200     13212     13208     13200     13201     13216
     13208     13200     13212     13213     13208     13200     13212     13214
     13208     13200     13212     13215     13209     13208     13200     13212
     13210     13208     13200     13212     13211     13208     13200     13212
     13212     13200     13201     13216     13216     13222     13219     13220
     13216     13222     13219     13221     13216     13222     13219     13223
     13217     13216     13222     13219     13218     13216     13222     13219
     13219     13223     13224     13225     13219     13223     13224     13226
     13219     13223     13224     13227     13220     13219     13223     13224
     13221     13219     13223     13224     13222     13219     13223     13224
     13223     13224     13227     13228     13223     13224     13227     13229
     13223     13224     13227     13235     13224     13227     13229     13230
     13224     13227     13235     13236     13224     13227     13235     13237
     13224     13227     13235     13238     13225     13224     13227     13228
     13225     13224     13227     13229     13225     13224     13227     13235
     13226     13224     13227     13228     13226     13224     13227     13229
     13226     13224     13227     13235     13227     13229     13230     13231
     13227     13229     13230     13232     13227     13235     13238     13239
     13228     13227     13229     13230     13228     13227     13235     13236
     13228     13227     13235     13237     13228     13227     13235     13238
     13229     13227     13235     13236     13229     13227     13235     13237
     13229     13227     13235     13238     13229     13230     13232     13233
     13229     13230     13232     13234     13229     13230     13232     13244
     13230     13229     13227     13235     13230     13232     13244     13245
     13230     13232     13244     13246     13230     13232     13244     13247
     13231     13230     13232     13233     13231     13230     13232     13234
     13231     13230     13232     13244     13232     13244     13247     13248
     13232     13244     13247     13249     13232     13244     13247     13250
     13233     13232     13244     13245     13233     13232     13244     13246
     13233     13232     13244     13247     13234     13232     13244     13245
     13234     13232     13244     13246     13234     13232     13244     13247
     13235     13238     13239     13240     13235     13238     13239     13241
     13236     13235     13238     13239     13237     13235     13238     13239
     13238     13239     13241     13242     13238     13239     13241     13243
     13238     13239     13241     13291     13239     13241     13291     13292
     13239     13241     13291     13293     13239     13241     13291     13294
     13240     13239     13241     13242     13240     13239     13241     13243
     13240     13239     13241     13291     13241     13291     13294     13295
     13241     13291     13294     13296     13241     13291     13294     13297
     13242     13241     13291     13292     13242     13241     13291     13293
     13242     13241     13291     13294     13243     13241     13291     13292
     13243     13241     13291     13293     13243     13241     13291     13294
     13244     13247     13250     13251     13244     13247     13250     13252
     13244     13247     13250     13253     13245     13244     13247     13248
     13245     13244     13247     13249     13245     13244     13247     13250
     13246     13244     13247     13248     13246     13244     13247     13249
     13246     13244     13247     13250     13247     13250     13253     13254
     13247     13250     13253     13255     13247     13250     13253     13256
     13248     13247     13250     13251     13248     13247     13250     13252
     13248     13247     13250     13253     13249     13247     13250     13251
     13249     13247     13250     13252     13249     13247     13250     13253
     13250     13253     13256     13257     13250     13253     13256     13258
     13250     13253     13256     13259     13251     13250     13253     13254
     13251     13250     13253     13255     13251     13250     13253     13256
     13252     13250     13253     13254     13252     13250     13253     13255
     13252     13250     13253     13256     13253     13256     13259     13260
     13253     13256     13259     13261     13253     13256     13259     13262
     13254     13253     13256     13257     13254     13253     13256     13258
     13254     13253     13256     13259     13255     13253     13256     13257
     13255     13253     13256     13258     13255     13253     13256     13259
     13256     13259     13262     13263     13256     13259     13262     13264
     13257     13256     13259     13260     13257     13256     13259     13261
     13257     13256     13259     13262     13258     13256     13259     13260
     13258     13256     13259     13261     13258     13256     13259     13262
     13259     13262     13264     13265     13259     13262     13264     13266
     13260     13259     13262     13263     13260     13259     13262     13264
     13261     13259     13262     13263     13261     13259     13262     13264
     13262     13264     13266     13267     13262     13264     13266     13268
     13262     13264     13266     13269     13263     13262     13264     13265
     13263     13262     13264     13266     13264     13266     13269     13270
     13264     13266     13269     13271     13264     13266     13269     13272
     13265     13264     13266     13267     13265     13264     13266     13268
     13265     13264     13266     13269     13266     13269     13272     13273
     13266     13269     13272     13274     13266     13269     13272     13275
     13267     13266     13269     13270     13267     13266     13269     13271
     13267     13266     13269     13272     13268     13266     13269     13270
     13268     13266     13269     13271     13268     13266     13269     13272
     13269     13272     13275     13276     13269     13272     13275     13277
     13269     13272     13275     13278     13270     13269     13272     13273
     13270     13269     13272     13274     13270     13269     13272     13275
     13271     13269     13272     13273     13271     13269     13272     13274
     13271     13269     13272     13275     13272     13275     13278     13279
     13272     13275     13278     13280     13272     13275     13278     13281
     13273     13272     13275     13276     13273     13272     13275     13277
     13273     13272     13275     13278     13274     13272     13275     13276
     13274     13272     13275     13277     13274     13272     13275     13278
     13275     13278     13281     13282     13275     13278     13281     13283
     13275     13278     13281     13284     13276     13275     13278     13279
     13276     13275     13278     13280     13276     13275     13278     13281
     13277     13275     13278     13279     13277     13275     13278     13280
     13277     13275     13278     13281     13278     13281     13284     13285
     13278     13281     13284     13286     13278     13281     13284     13287
     13279     13278     13281     13282     13279     13278     13281     13283
     13279     13278     13281     13284     13280     13278     13281     13282
     13280     13278     13281     13283     13280     13278     13281     13284
     13281     13284     13287     13288     13281     13284     13287     13289
     13281     13284     13287     13290     13282     13281     13284     13285
     13282     13281     13284     13286     13282     13281     13284     13287
     13283     13281     13284     13285     13283     13281     13284     13286
     13283     13281     13284     13287     13285     13284     13287     13288
     13285     13284     13287     13289     13285     13284     13287     13290
     13286     13284     13287     13288     13286     13284     13287     13289
     13286     13284     13287     13290     13291     13294     13297     13298
     13291     13294     13297     13299     13291     13294     13297     13300
     13292     13291     13294     13295     13292     13291     13294     13296
     13292     13291     13294     13297     13293     13291     13294     13295
     13293     13291     13294     13296     13293     13291     13294     13297
     13294     13297     13300     13301     13294     13297     13300     13302
     13294     13297     13300     13303     13295     13294     13297     13298
     13295     13294     13297     13299     13295     13294     13297     13300
     13296     13294     13297     13298     13296     13294     13297     13299
     13296     13294     13297     13300     13297     13300     13303     13304
     13297     13300     13303     13305     13297     13300     13303     13306
     13298     13297     13300     13301     13298     13297     13300     13302
     13298     13297     13300     13303     13299     13297     13300     13301
     13299     13297     13300     13302     13299     13297     13300     13303
     13300     13303     13306     13307     13300     13303     13306     13308
     13300     13303     13306     13309     13301     13300     13303     13304
     13301     13300     13303     13305     13301     13300     13303     13306
     13302     13300     13303     13304     13302     13300     13303     13305
     13302     13300     13303     13306     13303     13306     13309     13310
     13303     13306     13309     13311     13303     13306     13309     13312
     13304     13303     13306     13307     13304     13303     13306     13308
     13304     13303     13306     13309     13305     13303     13306     13307
     13305     13303     13306     13308     13305     13303     13306     13309
     13306     13309     13312     13313     13306     13309     13312     13314
     13306     13309     13312     13315     13307     13306     13309     13310
     13307     13306     13309     13311     13307     13306     13309     13312
     13308     13306     13309     13310     13308     13306     13309     13311
     13308     13306     13309     13312     13309     13312     13315     13316
     13309     13312     13315     13317     13309     13312     13315     13318
     13310     13309     13312     13313     13310     13309     13312     13314
     13310     13309     13312     13315     13311     13309     13312     13313
     13311     13309     13312     13314     13311     13309     13312     13315
     13312     13315     13318     13319     13312     13315     13318     13320
     13312     13315     13318     13321     13313     13312     13315     13316
     13313     13312     13315     13317     13313     13312     13315     13318
     13314     13312     13315     13316     13314     13312     13315     13317
     13314     13312     13315     13318     13315     13318     13321     13322
     13315     13318     13321     13323     13315     13318     13321     13324
     13316     13315     13318     13319     13316     13315     13318     13320
     13316     13315     13318     13321     13317     13315     13318     13319
     13317     13315     13318     13320     13317     13315     13318     13321
     13318     13321     13324     13325     13318     13321     13324     13326
     13318     13321     13324     13327     13319     13318     13321     13322
     13319     13318     13321     13323     13319     13318     13321     13324
     13320     13318     13321     13322     13320     13318     13321     13323
     13320     13318     13321     13324     13321     13324     13327     13328
     13321     13324     13327     13329     13321     13324     13327     13330
     13322     13321     13324     13325     13322     13321     13324     13326
     13322     13321     13324     13327     13323     13321     13324     13325
     13323     13321     13324     13326     13323     13321     13324     13327
     13324     13327     13330     13331     13324     13327     13330     13332
     13324     13327     13330     13333     13325     13324     13327     13328
     13325     13324     13327     13329     13325     13324     13327     13330
     13326     13324     13327     13328     13326     13324     13327     13329
     13326     13324     13327     13330     13328     13327     13330     13331
     13328     13327     13330     13332     13328     13327     13330     13333
     13329     13327     13330     13331     13329     13327     13330     13332
     13329     13327     13330     13333     13334     13338     13341     13342
     13334     13338     13341     13343     13334     13338     13341     13348
     13335     13334     13338     13339     13335     13334     13338     13340
     13335     13334     13338     13341     13336     13334     13338     13339
     13336     13334     13338     13340     13336     13334     13338     13341
     13337     13334     13338     13339     13337     13334     13338     13340
     13337     13334     13338     13341     13338     13341     13348     13344
     13339     13338     13341     13342     13339     13338     13341     13343
     13339     13338     13341     13348     13340     13338     13341     13342
     13340     13338     13341     13343     13340     13338     13341     13348
     13341     13348     13344     13345     13341     13348     13344     13346
     13341     13348     13344     13347     13342     13341     13348     13344
     13343     13341     13348     13344     13344     13347     13349     13350
     13344     13347     13349     13351     13344     13347     13349     13352
     13345     13344     13347     13349     13346     13344     13347     13349
     13347     13349     13352     13353     13347     13349     13352     13354
     13347     13349     13352     13360     13348     13344     13347     13349
     13349     13352     13354     13355     13349     13352     13360     13361
     13349     13352     13360     13362     13349     13352     13360     13363
     13350     13349     13352     13353     13350     13349     13352     13354
     13350     13349     13352     13360     13351     13349     13352     13353
     13351     13349     13352     13354     13351     13349     13352     13360
     13352     13354     13355     13356     13352     13354     13355     13357
     13352     13360     13363     13364     13353     13352     13354     13355
     13353     13352     13360     13361     13353     13352     13360     13362
     13353     13352     13360     13363     13354     13352     13360     13361
     13354     13352     13360     13362     13354     13352     13360     13363
     13354     13355     13357     13358     13354     13355     13357     13359
     13354     13355     13357     13369     13355     13354     13352     13360
     13355     13357     13369     13370     13355     13357     13369     13371
     13355     13357     13369     13372     13356     13355     13357     13358
     13356     13355     13357     13359     13356     13355     13357     13369
     13357     13369     13372     13373     13357     13369     13372     13374
     13357     13369     13372     13375     13358     13357     13369     13370
     13358     13357     13369     13371     13358     13357     13369     13372
     13359     13357     13369     13370     13359     13357     13369     13371
     13359     13357     13369     13372     13360     13363     13364     13365
     13360     13363     13364     13366     13361     13360     13363     13364
     13362     13360     13363     13364     13363     13364     13366     13367
     13363     13364     13366     13368     13363     13364     13366     13416
     13364     13366     13416     13417     13364     13366     13416     13418
     13364     13366     13416     13419     13365     13364     13366     13367
     13365     13364     13366     13368     13365     13364     13366     13416
     13366     13416     13419     13420     13366     13416     13419     13421
     13366     13416     13419     13422     13367     13366     13416     13417
     13367     13366     13416     13418     13367     13366     13416     13419
     13368     13366     13416     13417     13368     13366     13416     13418
     13368     13366     13416     13419     13369     13372     13375     13376
     13369     13372     13375     13377     13369     13372     13375     13378
     13370     13369     13372     13373     13370     13369     13372     13374
     13370     13369     13372     13375     13371     13369     13372     13373
     13371     13369     13372     13374     13371     13369     13372     13375
     13372     13375     13378     13379     13372     13375     13378     13380
     13372     13375     13378     13381     13373     13372     13375     13376
     13373     13372     13375     13377     13373     13372     13375     13378
     13374     13372     13375     13376     13374     13372     13375     13377
     13374     13372     13375     13378     13375     13378     13381     13382
     13375     13378     13381     13383     13375     13378     13381     13384
     13376     13375     13378     13379     13376     13375     13378     13380
     13376     13375     13378     13381     13377     13375     13378     13379
     13377     13375     13378     13380     13377     13375     13378     13381
     13378     13381     13384     13385     13378     13381     13384     13386
     13378     13381     13384     13387     13379     13378     13381     13382
     13379     13378     13381     13383     13379     13378     13381     13384
     13380     13378     13381     13382     13380     13378     13381     13383
     13380     13378     13381     13384     13381     13384     13387     13388
     13381     13384     13387     13389     13382     13381     13384     13385
     13382     13381     13384     13386     13382     13381     13384     13387
     13383     13381     13384     13385     13383     13381     13384     13386
     13383     13381     13384     13387     13384     13387     13389     13390
     13384     13387     13389     13391     13385     13384     13387     13388
     13385     13384     13387     13389     13386     13384     13387     13388
     13386     13384     13387     13389     13387     13389     13391     13392
     13387     13389     13391     13393     13387     13389     13391     13394
     13388     13387     13389     13390     13388     13387     13389     13391
     13389     13391     13394     13395     13389     13391     13394     13396
     13389     13391     13394     13397     13390     13389     13391     13392
     13390     13389     13391     13393     13390     13389     13391     13394
     13391     13394     13397     13398     13391     13394     13397     13399
     13391     13394     13397     13400     13392     13391     13394     13395
     13392     13391     13394     13396     13392     13391     13394     13397
     13393     13391     13394     13395     13393     13391     13394     13396
     13393     13391     13394     13397     13394     13397     13400     13401
     13394     13397     13400     13402     13394     13397     13400     13403
     13395     13394     13397     13398     13395     13394     13397     13399
     13395     13394     13397     13400     13396     13394     13397     13398
     13396     13394     13397     13399     13396     13394     13397     13400
     13397     13400     13403     13404     13397     13400     13403     13405
     13397     13400     13403     13406     13398     13397     13400     13401
     13398     13397     13400     13402     13398     13397     13400     13403
     13399     13397     13400     13401     13399     13397     13400     13402
     13399     13397     13400     13403     13400     13403     13406     13407
     13400     13403     13406     13408     13400     13403     13406     13409
     13401     13400     13403     13404     13401     13400     13403     13405
     13401     13400     13403     13406     13402     13400     13403     13404
     13402     13400     13403     13405     13402     13400     13403     13406
     13403     13406     13409     13410     13403     13406     13409     13411
     13403     13406     13409     13412     13404     13403     13406     13407
     13404     13403     13406     13408     13404     13403     13406     13409
     13405     13403     13406     13407     13405     13403     13406     13408
     13405     13403     13406     13409     13406     13409     13412     13413
     13406     13409     13412     13414     13406     13409     13412     13415
     13407     13406     13409     13410     13407     13406     13409     13411
     13407     13406     13409     13412     13408     13406     13409     13410
     13408     13406     13409     13411     13408     13406     13409     13412
     13410     13409     13412     13413     13410     13409     13412     13414
     13410     13409     13412     13415     13411     13409     13412     13413
     13411     13409     13412     13414     13411     13409     13412     13415
     13416     13419     13422     13423     13416     13419     13422     13424
     13416     13419     13422     13425     13417     13416     13419     13420
     13417     13416     13419     13421     13417     13416     13419     13422
     13418     13416     13419     13420     13418     13416     13419     13421
     13418     13416     13419     13422     13419     13422     13425     13426
     13419     13422     13425     13427     13419     13422     13425     13428
     13420     13419     13422     13423     13420     13419     13422     13424
     13420     13419     13422     13425     13421     13419     13422     13423
     13421     13419     13422     13424     13421     13419     13422     13425
     13422     13425     13428     13429     13422     13425     13428     13430
     13422     13425     13428     13431     13423     13422     13425     13426
     13423     13422     13425     13427     13423     13422     13425     13428
     13424     13422     13425     13426     13424     13422     13425     13427
     13424     13422     13425     13428     13425     13428     13431     13432
     13425     13428     13431     13433     13425     13428     13431     13434
     13426     13425     13428     13429     13426     13425     13428     13430
     13426     13425     13428     13431     13427     13425     13428     13429
     13427     13425     13428     13430     13427     13425     13428     13431
     13428     13431     13434     13435     13428     13431     13434     13436
     13428     13431     13434     13437     13429     13428     13431     13432
     13429     13428     13431     13433     13429     13428     13431     13434
     13430     13428     13431     13432     13430     13428     13431     13433
     13430     13428     13431     13434     13431     13434     13437     13438
     13431     13434     13437     13439     13431     13434     13437     13440
     13432     13431     13434     13435     13432     13431     13434     13436
     13432     13431     13434     13437     13433     13431     13434     13435
     13433     13431     13434     13436     13433     13431     13434     13437
     13434     13437     13440     13441     13434     13437     13440     13442
     13434     13437     13440     13443     13435     13434     13437     13438
     13435     13434     13437     13439     13435     13434     13437     13440
     13436     13434     13437     13438     13436     13434     13437     13439
     13436     13434     13437     13440     13437     13440     13443     13444
     13437     13440     13443     13445     13437     13440     13443     13446
     13438     13437     13440     13441     13438     13437     13440     13442
     13438     13437     13440     13443     13439     13437     13440     13441
     13439     13437     13440     13442     13439     13437     13440     13443
     13440     13443     13446     13447     13440     13443     13446     13448
     13440     13443     13446     13449     13441     13440     13443     13444
     13441     13440     13443     13445     13441     13440     13443     13446
     13442     13440     13443     13444     13442     13440     13443     13445
     13442     13440     13443     13446     13443     13446     13449     13450
     13443     13446     13449     13451     13443     13446     13449     13452
     13444     13443     13446     13447     13444     13443     13446     13448
     13444     13443     13446     13449     13445     13443     13446     13447
     13445     13443     13446     13448     13445     13443     13446     13449
     13446     13449     13452     13453     13446     13449     13452     13454
     13446     13449     13452     13455     13447     13446     13449     13450
     13447     13446     13449     13451     13447     13446     13449     13452
     13448     13446     13449     13450     13448     13446     13449     13451
     13448     13446     13449     13452     13449     13452     13455     13456
     13449     13452     13455     13457     13449     13452     13455     13458
     13450     13449     13452     13453     13450     13449     13452     13454
     13450     13449     13452     13455     13451     13449     13452     13453
     13451     13449     13452     13454     13451     13449     13452     13455
     13453     13452     13455     13456     13453     13452     13455     13457
     13453     13452     13455     13458     13454     13452     13455     13456
     13454     13452     13455     13457     13454     13452     13455     13458
     13459     13463     13466     13467     13459     13463     13466     13468
     13459     13463     13466     13473     13460     13459     13463     13464
     13460     13459     13463     13465     13460     13459     13463     13466
     13461     13459     13463     13464     13461     13459     13463     13465
     13461     13459     13463     13466     13462     13459     13463     13464
     13462     13459     13463     13465     13462     13459     13463     13466
     13463     13466     13473     13469     13464     13463     13466     13467
     13464     13463     13466     13468     13464     13463     13466     13473
     13465     13463     13466     13467     13465     13463     13466     13468
     13465     13463     13466     13473     13466     13473     13469     13470
     13466     13473     13469     13471     13466     13473     13469     13472
     13467     13466     13473     13469     13468     13466     13473     13469
     13469     13472     13474     13475     13469     13472     13474     13476
     13469     13472     13474     13477     13470     13469     13472     13474
     13471     13469     13472     13474     13472     13474     13477     13478
     13472     13474     13477     13479     13472     13474     13477     13485
     13473     13469     13472     13474     13474     13477     13479     13480
     13474     13477     13485     13486     13474     13477     13485     13487
     13474     13477     13485     13488     13475     13474     13477     13478
     13475     13474     13477     13479     13475     13474     13477     13485
     13476     13474     13477     13478     13476     13474     13477     13479
     13476     13474     13477     13485     13477     13479     13480     13481
     13477     13479     13480     13482     13477     13485     13488     13489
     13478     13477     13479     13480     13478     13477     13485     13486
     13478     13477     13485     13487     13478     13477     13485     13488
     13479     13477     13485     13486     13479     13477     13485     13487
     13479     13477     13485     13488     13479     13480     13482     13483
     13479     13480     13482     13484     13479     13480     13482     13494
     13480     13479     13477     13485     13480     13482     13494     13495
     13480     13482     13494     13496     13480     13482     13494     13497
     13481     13480     13482     13483     13481     13480     13482     13484
     13481     13480     13482     13494     13482     13494     13497     13498
     13482     13494     13497     13499     13482     13494     13497     13500
     13483     13482     13494     13495     13483     13482     13494     13496
     13483     13482     13494     13497     13484     13482     13494     13495
     13484     13482     13494     13496     13484     13482     13494     13497
     13485     13488     13489     13490     13485     13488     13489     13491
     13486     13485     13488     13489     13487     13485     13488     13489
     13488     13489     13491     13492     13488     13489     13491     13493
     13488     13489     13491     13541     13489     13491     13541     13542
     13489     13491     13541     13543     13489     13491     13541     13544
     13490     13489     13491     13492     13490     13489     13491     13493
     13490     13489     13491     13541     13491     13541     13544     13545
     13491     13541     13544     13546     13491     13541     13544     13547
     13492     13491     13541     13542     13492     13491     13541     13543
     13492     13491     13541     13544     13493     13491     13541     13542
     13493     13491     13541     13543     13493     13491     13541     13544
     13494     13497     13500     13501     13494     13497     13500     13502
     13494     13497     13500     13503     13495     13494     13497     13498
     13495     13494     13497     13499     13495     13494     13497     13500
     13496     13494     13497     13498     13496     13494     13497     13499
     13496     13494     13497     13500     13497     13500     13503     13504
     13497     13500     13503     13505     13497     13500     13503     13506
     13498     13497     13500     13501     13498     13497     13500     13502
     13498     13497     13500     13503     13499     13497     13500     13501
     13499     13497     13500     13502     13499     13497     13500     13503
     13500     13503     13506     13507     13500     13503     13506     13508
     13500     13503     13506     13509     13501     13500     13503     13504
     13501     13500     13503     13505     13501     13500     13503     13506
     13502     13500     13503     13504     13502     13500     13503     13505
     13502     13500     13503     13506     13503     13506     13509     13510
     13503     13506     13509     13511     13503     13506     13509     13512
     13504     13503     13506     13507     13504     13503     13506     13508
     13504     13503     13506     13509     13505     13503     13506     13507
     13505     13503     13506     13508     13505     13503     13506     13509
     13506     13509     13512     13513     13506     13509     13512     13514
     13507     13506     13509     13510     13507     13506     13509     13511
     13507     13506     13509     13512     13508     13506     13509     13510
     13508     13506     13509     13511     13508     13506     13509     13512
     13509     13512     13514     13515     13509     13512     13514     13516
     13510     13509     13512     13513     13510     13509     13512     13514
     13511     13509     13512     13513     13511     13509     13512     13514
     13512     13514     13516     13517     13512     13514     13516     13518
     13512     13514     13516     13519     13513     13512     13514     13515
     13513     13512     13514     13516     13514     13516     13519     13520
     13514     13516     13519     13521     13514     13516     13519     13522
     13515     13514     13516     13517     13515     13514     13516     13518
     13515     13514     13516     13519     13516     13519     13522     13523
     13516     13519     13522     13524     13516     13519     13522     13525
     13517     13516     13519     13520     13517     13516     13519     13521
     13517     13516     13519     13522     13518     13516     13519     13520
     13518     13516     13519     13521     13518     13516     13519     13522
     13519     13522     13525     13526     13519     13522     13525     13527
     13519     13522     13525     13528     13520     13519     13522     13523
     13520     13519     13522     13524     13520     13519     13522     13525
     13521     13519     13522     13523     13521     13519     13522     13524
     13521     13519     13522     13525     13522     13525     13528     13529
     13522     13525     13528     13530     13522     13525     13528     13531
     13523     13522     13525     13526     13523     13522     13525     13527
     13523     13522     13525     13528     13524     13522     13525     13526
     13524     13522     13525     13527     13524     13522     13525     13528
     13525     13528     13531     13532     13525     13528     13531     13533
     13525     13528     13531     13534     13526     13525     13528     13529
     13526     13525     13528     13530     13526     13525     13528     13531
     13527     13525     13528     13529     13527     13525     13528     13530
     13527     13525     13528     13531     13528     13531     13534     13535
     13528     13531     13534     13536     13528     13531     13534     13537
     13529     13528     13531     13532     13529     13528     13531     13533
     13529     13528     13531     13534     13530     13528     13531     13532
     13530     13528     13531     13533     13530     13528     13531     13534
     13531     13534     13537     13538     13531     13534     13537     13539
     13531     13534     13537     13540     13532     13531     13534     13535
     13532     13531     13534     13536     13532     13531     13534     13537
     13533     13531     13534     13535     13533     13531     13534     13536
     13533     13531     13534     13537     13535     13534     13537     13538
     13535     13534     13537     13539     13535     13534     13537     13540
     13536     13534     13537     13538     13536     13534     13537     13539
     13536     13534     13537     13540     13541     13544     13547     13548
     13541     13544     13547     13549     13541     13544     13547     13550
     13542     13541     13544     13545     13542     13541     13544     13546
     13542     13541     13544     13547     13543     13541     13544     13545
     13543     13541     13544     13546     13543     13541     13544     13547
     13544     13547     13550     13551     13544     13547     13550     13552
     13544     13547     13550     13553     13545     13544     13547     13548
     13545     13544     13547     13549     13545     13544     13547     13550
     13546     13544     13547     13548     13546     13544     13547     13549
     13546     13544     13547     13550     13547     13550     13553     13554
     13547     13550     13553     13555     13547     13550     13553     13556
     13548     13547     13550     13551     13548     13547     13550     13552
     13548     13547     13550     13553     13549     13547     13550     13551
     13549     13547     13550     13552     13549     13547     13550     13553
     13550     13553     13556     13557     13550     13553     13556     13558
     13550     13553     13556     13559     13551     13550     13553     13554
     13551     13550     13553     13555     13551     13550     13553     13556
     13552     13550     13553     13554     13552     13550     13553     13555
     13552     13550     13553     13556     13553     13556     13559     13560
     13553     13556     13559     13561     13553     13556     13559     13562
     13554     13553     13556     13557     13554     13553     13556     13558
     13554     13553     13556     13559     13555     13553     13556     13557
     13555     13553     13556     13558     13555     13553     13556     13559
     13556     13559     13562     13563     13556     13559     13562     13564
     13556     13559     13562     13565     13557     13556     13559     13560
     13557     13556     13559     13561     13557     13556     13559     13562
     13558     13556     13559     13560     13558     13556     13559     13561
     13558     13556     13559     13562     13559     13562     13565     13566
     13559     13562     13565     13567     13559     13562     13565     13568
     13560     13559     13562     13563     13560     13559     13562     13564
     13560     13559     13562     13565     13561     13559     13562     13563
     13561     13559     13562     13564     13561     13559     13562     13565
     13562     13565     13568     13569     13562     13565     13568     13570
     13562     13565     13568     13571     13563     13562     13565     13566
     13563     13562     13565     13567     13563     13562     13565     13568
     13564     13562     13565     13566     13564     13562     13565     13567
     13564     13562     13565     13568     13565     13568     13571     13572
     13565     13568     13571     13573     13565     13568     13571     13574
     13566     13565     13568     13569     13566     13565     13568     13570
     13566     13565     13568     13571     13567     13565     13568     13569
     13567     13565     13568     13570     13567     13565     13568     13571
     13568     13571     13574     13575     13568     13571     13574     13576
     13568     13571     13574     13577     13569     13568     13571     13572
     13569     13568     13571     13573     13569     13568     13571     13574
     13570     13568     13571     13572     13570     13568     13571     13573
     13570     13568     13571     13574     13571     13574     13577     13578
     13571     13574     13577     13579     13571     13574     13577     13580
     13572     13571     13574     13575     13572     13571     13574     13576
     13572     13571     13574     13577     13573     13571     13574     13575
     13573     13571     13574     13576     13573     13571     13574     13577
     13574     13577     13580     13581     13574     13577     13580     13582
     13574     13577     13580     13583     13575     13574     13577     13578
     13575     13574     13577     13579     13575     13574     13577     13580
     13576     13574     13577     13578     13576     13574     13577     13579
     13576     13574     13577     13580     13578     13577     13580     13581
     13578     13577     13580     13582     13578     13577     13580     13583
     13579     13577     13580     13581     13579     13577     13580     13582
     13579     13577     13580     13583     13584     13588     13591     13592
     13584     13588     13591     13593     13584     13588     13591     13598
     13585     13584     13588     13589     13585     13584     13588     13590
     13585     13584     13588     13591     13586     13584     13588     13589
     13586     13584     13588     13590     13586     13584     13588     13591
     13587     13584     13588     13589     13587     13584     13588     13590
     13587     13584     13588     13591     13588     13591     13598     13594
     13589     13588     13591     13592     13589     13588     13591     13593
     13589     13588     13591     13598     13590     13588     13591     13592
     13590     13588     13591     13593     13590     13588     13591     13598
     13591     13598     13594     13595     13591     13598     13594     13596
     13591     13598     13594     13597     13592     13591     13598     13594
     13593     13591     13598     13594     13594     13597     13599     13600
     13594     13597     13599     13601     13594     13597     13599     13602
     13595     13594     13597     13599     13596     13594     13597     13599
     13597     13599     13602     13603     13597     13599     13602     13604
     13597     13599     13602     13610     13598     13594     13597     13599
     13599     13602     13604     13605     13599     13602     13610     13611
     13599     13602     13610     13612     13599     13602     13610     13613
     13600     13599     13602     13603     13600     13599     13602     13604
     13600     13599     13602     13610     13601     13599     13602     13603
     13601     13599     13602     13604     13601     13599     13602     13610
     13602     13604     13605     13606     13602     13604     13605     13607
     13602     13610     13613     13614     13603     13602     13604     13605
     13603     13602     13610     13611     13603     13602     13610     13612
     13603     13602     13610     13613     13604     13602     13610     13611
     13604     13602     13610     13612     13604     13602     13610     13613
     13604     13605     13607     13608     13604     13605     13607     13609
     13604     13605     13607     13619     13605     13604     13602     13610
     13605     13607     13619     13620     13605     13607     13619     13621
     13605     13607     13619     13622     13606     13605     13607     13608
     13606     13605     13607     13609     13606     13605     13607     13619
     13607     13619     13622     13623     13607     13619     13622     13624
     13607     13619     13622     13625     13608     13607     13619     13620
     13608     13607     13619     13621     13608     13607     13619     13622
     13609     13607     13619     13620     13609     13607     13619     13621
     13609     13607     13619     13622     13610     13613     13614     13615
     13610     13613     13614     13616     13611     13610     13613     13614
     13612     13610     13613     13614     13613     13614     13616     13617
     13613     13614     13616     13618     13613     13614     13616     13666
     13614     13616     13666     13667     13614     13616     13666     13668
     13614     13616     13666     13669     13615     13614     13616     13617
     13615     13614     13616     13618     13615     13614     13616     13666
     13616     13666     13669     13670     13616     13666     13669     13671
     13616     13666     13669     13672     13617     13616     13666     13667
     13617     13616     13666     13668     13617     13616     13666     13669
     13618     13616     13666     13667     13618     13616     13666     13668
     13618     13616     13666     13669     13619     13622     13625     13626
     13619     13622     13625     13627     13619     13622     13625     13628
     13620     13619     13622     13623     13620     13619     13622     13624
     13620     13619     13622     13625     13621     13619     13622     13623
     13621     13619     13622     13624     13621     13619     13622     13625
     13622     13625     13628     13629     13622     13625     13628     13630
     13622     13625     13628     13631     13623     13622     13625     13626
     13623     13622     13625     13627     13623     13622     13625     13628
     13624     13622     13625     13626     13624     13622     13625     13627
     13624     13622     13625     13628     13625     13628     13631     13632
     13625     13628     13631     13633     13625     13628     13631     13634
     13626     13625     13628     13629     13626     13625     13628     13630
     13626     13625     13628     13631     13627     13625     13628     13629
     13627     13625     13628     13630     13627     13625     13628     13631
     13628     13631     13634     13635     13628     13631     13634     13636
     13628     13631     13634     13637     13629     13628     13631     13632
     13629     13628     13631     13633     13629     13628     13631     13634
     13630     13628     13631     13632     13630     13628     13631     13633
     13630     13628     13631     13634     13631     13634     13637     13638
     13631     13634     13637     13639     13632     13631     13634     13635
     13632     13631     13634     13636     13632     13631     13634     13637
     13633     13631     13634     13635     13633     13631     13634     13636
     13633     13631     13634     13637     13634     13637     13639     13640
     13634     13637     13639     13641     13635     13634     13637     13638
     13635     13634     13637     13639     13636     13634     13637     13638
     13636     13634     13637     13639     13637     13639     13641     13642
     13637     13639     13641     13643     13637     13639     13641     13644
     13638     13637     13639     13640     13638     13637     13639     13641
     13639     13641     13644     13645     13639     13641     13644     13646
     13639     13641     13644     13647     13640     13639     13641     13642
     13640     13639     13641     13643     13640     13639     13641     13644
     13641     13644     13647     13648     13641     13644     13647     13649
     13641     13644     13647     13650     13642     13641     13644     13645
     13642     13641     13644     13646     13642     13641     13644     13647
     13643     13641     13644     13645     13643     13641     13644     13646
     13643     13641     13644     13647     13644     13647     13650     13651
     13644     13647     13650     13652     13644     13647     13650     13653
     13645     13644     13647     13648     13645     13644     13647     13649
     13645     13644     13647     13650     13646     13644     13647     13648
     13646     13644     13647     13649     13646     13644     13647     13650
     13647     13650     13653     13654     13647     13650     13653     13655
     13647     13650     13653     13656     13648     13647     13650     13651
     13648     13647     13650     13652     13648     13647     13650     13653
     13649     13647     13650     13651     13649     13647     13650     13652
     13649     13647     13650     13653     13650     13653     13656     13657
     13650     13653     13656     13658     13650     13653     13656     13659
     13651     13650     13653     13654     13651     13650     13653     13655
     13651     13650     13653     13656     13652     13650     13653     13654
     13652     13650     13653     13655     13652     13650     13653     13656
     13653     13656     13659     13660     13653     13656     13659     13661
     13653     13656     13659     13662     13654     13653     13656     13657
     13654     13653     13656     13658     13654     13653     13656     13659
     13655     13653     13656     13657     13655     13653     13656     13658
     13655     13653     13656     13659     13656     13659     13662     13663
     13656     13659     13662     13664     13656     13659     13662     13665
     13657     13656     13659     13660     13657     13656     13659     13661
     13657     13656     13659     13662     13658     13656     13659     13660
     13658     13656     13659     13661     13658     13656     13659     13662
     13660     13659     13662     13663     13660     13659     13662     13664
     13660     13659     13662     13665     13661     13659     13662     13663
     13661     13659     13662     13664     13661     13659     13662     13665
     13666     13669     13672     13673     13666     13669     13672     13674
     13666     13669     13672     13675     13667     13666     13669     13670
     13667     13666     13669     13671     13667     13666     13669     13672
     13668     13666     13669     13670     13668     13666     13669     13671
     13668     13666     13669     13672     13669     13672     13675     13676
     13669     13672     13675     13677     13669     13672     13675     13678
     13670     13669     13672     13673     13670     13669     13672     13674
     13670     13669     13672     13675     13671     13669     13672     13673
     13671     13669     13672     13674     13671     13669     13672     13675
     13672     13675     13678     13679     13672     13675     13678     13680
     13672     13675     13678     13681     13673     13672     13675     13676
     13673     13672     13675     13677     13673     13672     13675     13678
     13674     13672     13675     13676     13674     13672     13675     13677
     13674     13672     13675     13678     13675     13678     13681     13682
     13675     13678     13681     13683     13675     13678     13681     13684
     13676     13675     13678     13679     13676     13675     13678     13680
     13676     13675     13678     13681     13677     13675     13678     13679
     13677     13675     13678     13680     13677     13675     13678     13681
     13678     13681     13684     13685     13678     13681     13684     13686
     13678     13681     13684     13687     13679     13678     13681     13682
     13679     13678     13681     13683     13679     13678     13681     13684
     13680     13678     13681     13682     13680     13678     13681     13683
     13680     13678     13681     13684     13681     13684     13687     13688
     13681     13684     13687     13689     13681     13684     13687     13690
     13682     13681     13684     13685     13682     13681     13684     13686
     13682     13681     13684     13687     13683     13681     13684     13685
     13683     13681     13684     13686     13683     13681     13684     13687
     13684     13687     13690     13691     13684     13687     13690     13692
     13684     13687     13690     13693     13685     13684     13687     13688
     13685     13684     13687     13689     13685     13684     13687     13690
     13686     13684     13687     13688     13686     13684     13687     13689
     13686     13684     13687     13690     13687     13690     13693     13694
     13687     13690     13693     13695     13687     13690     13693     13696
     13688     13687     13690     13691     13688     13687     13690     13692
     13688     13687     13690     13693     13689     13687     13690     13691
     13689     13687     13690     13692     13689     13687     13690     13693
     13690     13693     13696     13697     13690     13693     13696     13698
     13690     13693     13696     13699     13691     13690     13693     13694
     13691     13690     13693     13695     13691     13690     13693     13696
     13692     13690     13693     13694     13692     13690     13693     13695
     13692     13690     13693     13696     13693     13696     13699     13700
     13693     13696     13699     13701     13693     13696     13699     13702
     13694     13693     13696     13697     13694     13693     13696     13698
     13694     13693     13696     13699     13695     13693     13696     13697
     13695     13693     13696     13698     13695     13693     13696     13699
     13696     13699     13702     13703     13696     13699     13702     13704
     13696     13699     13702     13705     13697     13696     13699     13700
     13697     13696     13699     13701     13697     13696     13699     13702
     13698     13696     13699     13700     13698     13696     13699     13701
     13698     13696     13699     13702     13699     13702     13705     13706
     13699     13702     13705     13707     13699     13702     13705     13708
     13700     13699     13702     13703     13700     13699     13702     13704
     13700     13699     13702     13705     13701     13699     13702     13703
     13701     13699     13702     13704     13701     13699     13702     13705
     13703     13702     13705     13706     13703     13702     13705     13707
     13703     13702     13705     13708     13704     13702     13705     13706
     13704     13702     13705     13707     13704     13702     13705     13708
     13709     13713     13716     13717     13709     13713     13716     13718
     13709     13713     13716     13723     13710     13709     13713     13714
     13710     13709     13713     13715     13710     13709     13713     13716
     13711     13709     13713     13714     13711     13709     13713     13715
     13711     13709     13713     13716     13712     13709     13713     13714
     13712     13709     13713     13715     13712     13709     13713     13716
     13713     13716     13723     13719     13714     13713     13716     13717
     13714     13713     13716     13718     13714     13713     13716     13723
     13715     13713     13716     13717     13715     13713     13716     13718
     13715     13713     13716     13723     13716     13723     13719     13720
     13716     13723     13719     13721     13716     13723     13719     13722
     13717     13716     13723     13719     13718     13716     13723     13719
     13719     13722     13724     13725     13719     13722     13724     13726
     13719     13722     13724     13727     13720     13719     13722     13724
     13721     13719     13722     13724     13722     13724     13727     13728
     13722     13724     13727     13729     13722     13724     13727     13735
     13723     13719     13722     13724     13724     13727     13729     13730
     13724     13727     13735     13736     13724     13727     13735     13737
     13724     13727     13735     13738     13725     13724     13727     13728
     13725     13724     13727     13729     13725     13724     13727     13735
     13726     13724     13727     13728     13726     13724     13727     13729
     13726     13724     13727     13735     13727     13729     13730     13731
     13727     13729     13730     13732     13727     13735     13738     13739
     13728     13727     13729     13730     13728     13727     13735     13736
     13728     13727     13735     13737     13728     13727     13735     13738
     13729     13727     13735     13736     13729     13727     13735     13737
     13729     13727     13735     13738     13729     13730     13732     13733
     13729     13730     13732     13734     13729     13730     13732     13744
     13730     13729     13727     13735     13730     13732     13744     13745
     13730     13732     13744     13746     13730     13732     13744     13747
     13731     13730     13732     13733     13731     13730     13732     13734
     13731     13730     13732     13744     13732     13744     13747     13748
     13732     13744     13747     13749     13732     13744     13747     13750
     13733     13732     13744     13745     13733     13732     13744     13746
     13733     13732     13744     13747     13734     13732     13744     13745
     13734     13732     13744     13746     13734     13732     13744     13747
     13735     13738     13739     13740     13735     13738     13739     13741
     13736     13735     13738     13739     13737     13735     13738     13739
     13738     13739     13741     13742     13738     13739     13741     13743
     13738     13739     13741     13791     13739     13741     13791     13792
     13739     13741     13791     13793     13739     13741     13791     13794
     13740     13739     13741     13742     13740     13739     13741     13743
     13740     13739     13741     13791     13741     13791     13794     13795
     13741     13791     13794     13796     13741     13791     13794     13797
     13742     13741     13791     13792     13742     13741     13791     13793
     13742     13741     13791     13794     13743     13741     13791     13792
     13743     13741     13791     13793     13743     13741     13791     13794
     13744     13747     13750     13751     13744     13747     13750     13752
     13744     13747     13750     13753     13745     13744     13747     13748
     13745     13744     13747     13749     13745     13744     13747     13750
     13746     13744     13747     13748     13746     13744     13747     13749
     13746     13744     13747     13750     13747     13750     13753     13754
     13747     13750     13753     13755     13747     13750     13753     13756
     13748     13747     13750     13751     13748     13747     13750     13752
     13748     13747     13750     13753     13749     13747     13750     13751
     13749     13747     13750     13752     13749     13747     13750     13753
     13750     13753     13756     13757     13750     13753     13756     13758
     13750     13753     13756     13759     13751     13750     13753     13754
     13751     13750     13753     13755     13751     13750     13753     13756
     13752     13750     13753     13754     13752     13750     13753     13755
     13752     13750     13753     13756     13753     13756     13759     13760
     13753     13756     13759     13761     13753     13756     13759     13762
     13754     13753     13756     13757     13754     13753     13756     13758
     13754     13753     13756     13759     13755     13753     13756     13757
     13755     13753     13756     13758     13755     13753     13756     13759
     13756     13759     13762     13763     13756     13759     13762     13764
     13757     13756     13759     13760     13757     13756     13759     13761
     13757     13756     13759     13762     13758     13756     13759     13760
     13758     13756     13759     13761     13758     13756     13759     13762
     13759     13762     13764     13765     13759     13762     13764     13766
     13760     13759     13762     13763     13760     13759     13762     13764
     13761     13759     13762     13763     13761     13759     13762     13764
     13762     13764     13766     13767     13762     13764     13766     13768
     13762     13764     13766     13769     13763     13762     13764     13765
     13763     13762     13764     13766     13764     13766     13769     13770
     13764     13766     13769     13771     13764     13766     13769     13772
     13765     13764     13766     13767     13765     13764     13766     13768
     13765     13764     13766     13769     13766     13769     13772     13773
     13766     13769     13772     13774     13766     13769     13772     13775
     13767     13766     13769     13770     13767     13766     13769     13771
     13767     13766     13769     13772     13768     13766     13769     13770
     13768     13766     13769     13771     13768     13766     13769     13772
     13769     13772     13775     13776     13769     13772     13775     13777
     13769     13772     13775     13778     13770     13769     13772     13773
     13770     13769     13772     13774     13770     13769     13772     13775
     13771     13769     13772     13773     13771     13769     13772     13774
     13771     13769     13772     13775     13772     13775     13778     13779
     13772     13775     13778     13780     13772     13775     13778     13781
     13773     13772     13775     13776     13773     13772     13775     13777
     13773     13772     13775     13778     13774     13772     13775     13776
     13774     13772     13775     13777     13774     13772     13775     13778
     13775     13778     13781     13782     13775     13778     13781     13783
     13775     13778     13781     13784     13776     13775     13778     13779
     13776     13775     13778     13780     13776     13775     13778     13781
     13777     13775     13778     13779     13777     13775     13778     13780
     13777     13775     13778     13781     13778     13781     13784     13785
     13778     13781     13784     13786     13778     13781     13784     13787
     13779     13778     13781     13782     13779     13778     13781     13783
     13779     13778     13781     13784     13780     13778     13781     13782
     13780     13778     13781     13783     13780     13778     13781     13784
     13781     13784     13787     13788     13781     13784     13787     13789
     13781     13784     13787     13790     13782     13781     13784     13785
     13782     13781     13784     13786     13782     13781     13784     13787
     13783     13781     13784     13785     13783     13781     13784     13786
     13783     13781     13784     13787     13785     13784     13787     13788
     13785     13784     13787     13789     13785     13784     13787     13790
     13786     13784     13787     13788     13786     13784     13787     13789
     13786     13784     13787     13790     13791     13794     13797     13798
     13791     13794     13797     13799     13791     13794     13797     13800
     13792     13791     13794     13795     13792     13791     13794     13796
     13792     13791     13794     13797     13793     13791     13794     13795
     13793     13791     13794     13796     13793     13791     13794     13797
     13794     13797     13800     13801     13794     13797     13800     13802
     13794     13797     13800     13803     13795     13794     13797     13798
     13795     13794     13797     13799     13795     13794     13797     13800
     13796     13794     13797     13798     13796     13794     13797     13799
     13796     13794     13797     13800     13797     13800     13803     13804
     13797     13800     13803     13805     13797     13800     13803     13806
     13798     13797     13800     13801     13798     13797     13800     13802
     13798     13797     13800     13803     13799     13797     13800     13801
     13799     13797     13800     13802     13799     13797     13800     13803
     13800     13803     13806     13807     13800     13803     13806     13808
     13800     13803     13806     13809     13801     13800     13803     13804
     13801     13800     13803     13805     13801     13800     13803     13806
     13802     13800     13803     13804     13802     13800     13803     13805
     13802     13800     13803     13806     13803     13806     13809     13810
     13803     13806     13809     13811     13803     13806     13809     13812
     13804     13803     13806     13807     13804     13803     13806     13808
     13804     13803     13806     13809     13805     13803     13806     13807
     13805     13803     13806     13808     13805     13803     13806     13809
     13806     13809     13812     13813     13806     13809     13812     13814
     13806     13809     13812     13815     13807     13806     13809     13810
     13807     13806     13809     13811     13807     13806     13809     13812
     13808     13806     13809     13810     13808     13806     13809     13811
     13808     13806     13809     13812     13809     13812     13815     13816
     13809     13812     13815     13817     13809     13812     13815     13818
     13810     13809     13812     13813     13810     13809     13812     13814
     13810     13809     13812     13815     13811     13809     13812     13813
     13811     13809     13812     13814     13811     13809     13812     13815
     13812     13815     13818     13819     13812     13815     13818     13820
     13812     13815     13818     13821     13813     13812     13815     13816
     13813     13812     13815     13817     13813     13812     13815     13818
     13814     13812     13815     13816     13814     13812     13815     13817
     13814     13812     13815     13818     13815     13818     13821     13822
     13815     13818     13821     13823     13815     13818     13821     13824
     13816     13815     13818     13819     13816     13815     13818     13820
     13816     13815     13818     13821     13817     13815     13818     13819
     13817     13815     13818     13820     13817     13815     13818     13821
     13818     13821     13824     13825     13818     13821     13824     13826
     13818     13821     13824     13827     13819     13818     13821     13822
     13819     13818     13821     13823     13819     13818     13821     13824
     13820     13818     13821     13822     13820     13818     13821     13823
     13820     13818     13821     13824     13821     13824     13827     13828
     13821     13824     13827     13829     13821     13824     13827     13830
     13822     13821     13824     13825     13822     13821     13824     13826
     13822     13821     13824     13827     13823     13821     13824     13825
     13823     13821     13824     13826     13823     13821     13824     13827
     13824     13827     13830     13831     13824     13827     13830     13832
     13824     13827     13830     13833     13825     13824     13827     13828
     13825     13824     13827     13829     13825     13824     13827     13830
     13826     13824     13827     13828     13826     13824     13827     13829
     13826     13824     13827     13830     13828     13827     13830     13831
     13828     13827     13830     13832     13828     13827     13830     13833
     13829     13827     13830     13831     13829     13827     13830     13832
     13829     13827     13830     13833     13834     13838     13841     13842
     13834     13838     13841     13843     13834     13838     13841     13848
     13835     13834     13838     13839     13835     13834     13838     13840
     13835     13834     13838     13841     13836     13834     13838     13839
     13836     13834     13838     13840     13836     13834     13838     13841
     13837     13834     13838     13839     13837     13834     13838     13840
     13837     13834     13838     13841     13838     13841     13848     13844
     13839     13838     13841     13842     13839     13838     13841     13843
     13839     13838     13841     13848     13840     13838     13841     13842
     13840     13838     13841     13843     13840     13838     13841     13848
     13841     13848     13844     13845     13841     13848     13844     13846
     13841     13848     13844     13847     13842     13841     13848     13844
     13843     13841     13848     13844     13844     13847     13849     13850
     13844     13847     13849     13851     13844     13847     13849     13852
     13845     13844     13847     13849     13846     13844     13847     13849
     13847     13849     13852     13853     13847     13849     13852     13854
     13847     13849     13852     13860     13848     13844     13847     13849
     13849     13852     13854     13855     13849     13852     13860     13861
     13849     13852     13860     13862     13849     13852     13860     13863
     13850     13849     13852     13853     13850     13849     13852     13854
     13850     13849     13852     13860     13851     13849     13852     13853
     13851     13849     13852     13854     13851     13849     13852     13860
     13852     13854     13855     13856     13852     13854     13855     13857
     13852     13860     13863     13864     13853     13852     13854     13855
     13853     13852     13860     13861     13853     13852     13860     13862
     13853     13852     13860     13863     13854     13852     13860     13861
     13854     13852     13860     13862     13854     13852     13860     13863
     13854     13855     13857     13858     13854     13855     13857     13859
     13854     13855     13857     13869     13855     13854     13852     13860
     13855     13857     13869     13870     13855     13857     13869     13871
     13855     13857     13869     13872     13856     13855     13857     13858
     13856     13855     13857     13859     13856     13855     13857     13869
     13857     13869     13872     13873     13857     13869     13872     13874
     13857     13869     13872     13875     13858     13857     13869     13870
     13858     13857     13869     13871     13858     13857     13869     13872
     13859     13857     13869     13870     13859     13857     13869     13871
     13859     13857     13869     13872     13860     13863     13864     13865
     13860     13863     13864     13866     13861     13860     13863     13864
     13862     13860     13863     13864     13863     13864     13866     13867
     13863     13864     13866     13868     13863     13864     13866     13916
     13864     13866     13916     13917     13864     13866     13916     13918
     13864     13866     13916     13919     13865     13864     13866     13867
     13865     13864     13866     13868     13865     13864     13866     13916
     13866     13916     13919     13920     13866     13916     13919     13921
     13866     13916     13919     13922     13867     13866     13916     13917
     13867     13866     13916     13918     13867     13866     13916     13919
     13868     13866     13916     13917     13868     13866     13916     13918
     13868     13866     13916     13919     13869     13872     13875     13876
     13869     13872     13875     13877     13869     13872     13875     13878
     13870     13869     13872     13873     13870     13869     13872     13874
     13870     13869     13872     13875     13871     13869     13872     13873
     13871     13869     13872     13874     13871     13869     13872     13875
     13872     13875     13878     13879     13872     13875     13878     13880
     13872     13875     13878     13881     13873     13872     13875     13876
     13873     13872     13875     13877     13873     13872     13875     13878
     13874     13872     13875     13876     13874     13872     13875     13877
     13874     13872     13875     13878     13875     13878     13881     13882
     13875     13878     13881     13883     13875     13878     13881     13884
     13876     13875     13878     13879     13876     13875     13878     13880
     13876     13875     13878     13881     13877     13875     13878     13879
     13877     13875     13878     13880     13877     13875     13878     13881
     13878     13881     13884     13885     13878     13881     13884     13886
     13878     13881     13884     13887     13879     13878     13881     13882
     13879     13878     13881     13883     13879     13878     13881     13884
     13880     13878     13881     13882     13880     13878     13881     13883
     13880     13878     13881     13884     13881     13884     13887     13888
     13881     13884     13887     13889     13882     13881     13884     13885
     13882     13881     13884     13886     13882     13881     13884     13887
     13883     13881     13884     13885     13883     13881     13884     13886
     13883     13881     13884     13887     13884     13887     13889     13890
     13884     13887     13889     13891     13885     13884     13887     13888
     13885     13884     13887     13889     13886     13884     13887     13888
     13886     13884     13887     13889     13887     13889     13891     13892
     13887     13889     13891     13893     13887     13889     13891     13894
     13888     13887     13889     13890     13888     13887     13889     13891
     13889     13891     13894     13895     13889     13891     13894     13896
     13889     13891     13894     13897     13890     13889     13891     13892
     13890     13889     13891     13893     13890     13889     13891     13894
     13891     13894     13897     13898     13891     13894     13897     13899
     13891     13894     13897     13900     13892     13891     13894     13895
     13892     13891     13894     13896     13892     13891     13894     13897
     13893     13891     13894     13895     13893     13891     13894     13896
     13893     13891     13894     13897     13894     13897     13900     13901
     13894     13897     13900     13902     13894     13897     13900     13903
     13895     13894     13897     13898     13895     13894     13897     13899
     13895     13894     13897     13900     13896     13894     13897     13898
     13896     13894     13897     13899     13896     13894     13897     13900
     13897     13900     13903     13904     13897     13900     13903     13905
     13897     13900     13903     13906     13898     13897     13900     13901
     13898     13897     13900     13902     13898     13897     13900     13903
     13899     13897     13900     13901     13899     13897     13900     13902
     13899     13897     13900     13903     13900     13903     13906     13907
     13900     13903     13906     13908     13900     13903     13906     13909
     13901     13900     13903     13904     13901     13900     13903     13905
     13901     13900     13903     13906     13902     13900     13903     13904
     13902     13900     13903     13905     13902     13900     13903     13906
     13903     13906     13909     13910     13903     13906     13909     13911
     13903     13906     13909     13912     13904     13903     13906     13907
     13904     13903     13906     13908     13904     13903     13906     13909
     13905     13903     13906     13907     13905     13903     13906     13908
     13905     13903     13906     13909     13906     13909     13912     13913
     13906     13909     13912     13914     13906     13909     13912     13915
     13907     13906     13909     13910     13907     13906     13909     13911
     13907     13906     13909     13912     13908     13906     13909     13910
     13908     13906     13909     13911     13908     13906     13909     13912
     13910     13909     13912     13913     13910     13909     13912     13914
     13910     13909     13912     13915     13911     13909     13912     13913
     13911     13909     13912     13914     13911     13909     13912     13915
     13916     13919     13922     13923     13916     13919     13922     13924
     13916     13919     13922     13925     13917     13916     13919     13920
     13917     13916     13919     13921     13917     13916     13919     13922
     13918     13916     13919     13920     13918     13916     13919     13921
     13918     13916     13919     13922     13919     13922     13925     13926
     13919     13922     13925     13927     13919     13922     13925     13928
     13920     13919     13922     13923     13920     13919     13922     13924
     13920     13919     13922     13925     13921     13919     13922     13923
     13921     13919     13922     13924     13921     13919     13922     13925
     13922     13925     13928     13929     13922     13925     13928     13930
     13922     13925     13928     13931     13923     13922     13925     13926
     13923     13922     13925     13927     13923     13922     13925     13928
     13924     13922     13925     13926     13924     13922     13925     13927
     13924     13922     13925     13928     13925     13928     13931     13932
     13925     13928     13931     13933     13925     13928     13931     13934
     13926     13925     13928     13929     13926     13925     13928     13930
     13926     13925     13928     13931     13927     13925     13928     13929
     13927     13925     13928     13930     13927     13925     13928     13931
     13928     13931     13934     13935     13928     13931     13934     13936
     13928     13931     13934     13937     13929     13928     13931     13932
     13929     13928     13931     13933     13929     13928     13931     13934
     13930     13928     13931     13932     13930     13928     13931     13933
     13930     13928     13931     13934     13931     13934     13937     13938
     13931     13934     13937     13939     13931     13934     13937     13940
     13932     13931     13934     13935     13932     13931     13934     13936
     13932     13931     13934     13937     13933     13931     13934     13935
     13933     13931     13934     13936     13933     13931     13934     13937
     13934     13937     13940     13941     13934     13937     13940     13942
     13934     13937     13940     13943     13935     13934     13937     13938
     13935     13934     13937     13939     13935     13934     13937     13940
     13936     13934     13937     13938     13936     13934     13937     13939
     13936     13934     13937     13940     13937     13940     13943     13944
     13937     13940     13943     13945     13937     13940     13943     13946
     13938     13937     13940     13941     13938     13937     13940     13942
     13938     13937     13940     13943     13939     13937     13940     13941
     13939     13937     13940     13942     13939     13937     13940     13943
     13940     13943     13946     13947     13940     13943     13946     13948
     13940     13943     13946     13949     13941     13940     13943     13944
     13941     13940     13943     13945     13941     13940     13943     13946
     13942     13940     13943     13944     13942     13940     13943     13945
     13942     13940     13943     13946     13943     13946     13949     13950
     13943     13946     13949     13951     13943     13946     13949     13952
     13944     13943     13946     13947     13944     13943     13946     13948
     13944     13943     13946     13949     13945     13943     13946     13947
     13945     13943     13946     13948     13945     13943     13946     13949
     13946     13949     13952     13953     13946     13949     13952     13954
     13946     13949     13952     13955     13947     13946     13949     13950
     13947     13946     13949     13951     13947     13946     13949     13952
     13948     13946     13949     13950     13948     13946     13949     13951
     13948     13946     13949     13952     13949     13952     13955     13956
     13949     13952     13955     13957     13949     13952     13955     13958
     13950     13949     13952     13953     13950     13949     13952     13954
     13950     13949     13952     13955     13951     13949     13952     13953
     13951     13949     13952     13954     13951     13949     13952     13955
     13953     13952     13955     13956     13953     13952     13955     13957
     13953     13952     13955     13958     13954     13952     13955     13956
     13954     13952     13955     13957     13954     13952     13955     13958
     13959     13963     13966     13967     13959     13963     13966     13968
     13959     13963     13966     13973     13960     13959     13963     13964
     13960     13959     13963     13965     13960     13959     13963     13966
     13961     13959     13963     13964     13961     13959     13963     13965
     13961     13959     13963     13966     13962     13959     13963     13964
     13962     13959     13963     13965     13962     13959     13963     13966
     13963     13966     13973     13969     13964     13963     13966     13967
     13964     13963     13966     13968     13964     13963     13966     13973
     13965     13963     13966     13967     13965     13963     13966     13968
     13965     13963     13966     13973     13966     13973     13969     13970
     13966     13973     13969     13971     13966     13973     13969     13972
     13967     13966     13973     13969     13968     13966     13973     13969
     13969     13972     13974     13975     13969     13972     13974     13976
     13969     13972     13974     13977     13970     13969     13972     13974
     13971     13969     13972     13974     13972     13974     13977     13978
     13972     13974     13977     13979     13972     13974     13977     13985
     13973     13969     13972     13974     13974     13977     13979     13980
     13974     13977     13985     13986     13974     13977     13985     13987
     13974     13977     13985     13988     13975     13974     13977     13978
     13975     13974     13977     13979     13975     13974     13977     13985
     13976     13974     13977     13978     13976     13974     13977     13979
     13976     13974     13977     13985     13977     13979     13980     13981
     13977     13979     13980     13982     13977     13985     13988     13989
     13978     13977     13979     13980     13978     13977     13985     13986
     13978     13977     13985     13987     13978     13977     13985     13988
     13979     13977     13985     13986     13979     13977     13985     13987
     13979     13977     13985     13988     13979     13980     13982     13983
     13979     13980     13982     13984     13979     13980     13982     13994
     13980     13979     13977     13985     13980     13982     13994     13995
     13980     13982     13994     13996     13980     13982     13994     13997
     13981     13980     13982     13983     13981     13980     13982     13984
     13981     13980     13982     13994     13982     13994     13997     13998
     13982     13994     13997     13999     13982     13994     13997     14000
     13983     13982     13994     13995     13983     13982     13994     13996
     13983     13982     13994     13997     13984     13982     13994     13995
     13984     13982     13994     13996     13984     13982     13994     13997
     13985     13988     13989     13990     13985     13988     13989     13991
     13986     13985     13988     13989     13987     13985     13988     13989
     13988     13989     13991     13992     13988     13989     13991     13993
     13988     13989     13991     14041     13989     13991     14041     14042
     13989     13991     14041     14043     13989     13991     14041     14044
     13990     13989     13991     13992     13990     13989     13991     13993
     13990     13989     13991     14041     13991     14041     14044     14045
     13991     14041     14044     14046     13991     14041     14044     14047
     13992     13991     14041     14042     13992     13991     14041     14043
     13992     13991     14041     14044     13993     13991     14041     14042
     13993     13991     14041     14043     13993     13991     14041     14044
     13994     13997     14000     14001     13994     13997     14000     14002
     13994     13997     14000     14003     13995     13994     13997     13998
     13995     13994     13997     13999     13995     13994     13997     14000
     13996     13994     13997     13998     13996     13994     13997     13999
     13996     13994     13997     14000     13997     14000     14003     14004
     13997     14000     14003     14005     13997     14000     14003     14006
     13998     13997     14000     14001     13998     13997     14000     14002
     13998     13997     14000     14003     13999     13997     14000     14001
     13999     13997     14000     14002     13999     13997     14000     14003
     14000     14003     14006     14007     14000     14003     14006     14008
     14000     14003     14006     14009     14001     14000     14003     14004
     14001     14000     14003     14005     14001     14000     14003     14006
     14002     14000     14003     14004     14002     14000     14003     14005
     14002     14000     14003     14006     14003     14006     14009     14010
     14003     14006     14009     14011     14003     14006     14009     14012
     14004     14003     14006     14007     14004     14003     14006     14008
     14004     14003     14006     14009     14005     14003     14006     14007
     14005     14003     14006     14008     14005     14003     14006     14009
     14006     14009     14012     14013     14006     14009     14012     14014
     14007     14006     14009     14010     14007     14006     14009     14011
     14007     14006     14009     14012     14008     14006     14009     14010
     14008     14006     14009     14011     14008     14006     14009     14012
     14009     14012     14014     14015     14009     14012     14014     14016
     14010     14009     14012     14013     14010     14009     14012     14014
     14011     14009     14012     14013     14011     14009     14012     14014
     14012     14014     14016     14017     14012     14014     14016     14018
     14012     14014     14016     14019     14013     14012     14014     14015
     14013     14012     14014     14016     14014     14016     14019     14020
     14014     14016     14019     14021     14014     14016     14019     14022
     14015     14014     14016     14017     14015     14014     14016     14018
     14015     14014     14016     14019     14016     14019     14022     14023
     14016     14019     14022     14024     14016     14019     14022     14025
     14017     14016     14019     14020     14017     14016     14019     14021
     14017     14016     14019     14022     14018     14016     14019     14020
     14018     14016     14019     14021     14018     14016     14019     14022
     14019     14022     14025     14026     14019     14022     14025     14027
     14019     14022     14025     14028     14020     14019     14022     14023
     14020     14019     14022     14024     14020     14019     14022     14025
     14021     14019     14022     14023     14021     14019     14022     14024
     14021     14019     14022     14025     14022     14025     14028     14029
     14022     14025     14028     14030     14022     14025     14028     14031
     14023     14022     14025     14026     14023     14022     14025     14027
     14023     14022     14025     14028     14024     14022     14025     14026
     14024     14022     14025     14027     14024     14022     14025     14028
     14025     14028     14031     14032     14025     14028     14031     14033
     14025     14028     14031     14034     14026     14025     14028     14029
     14026     14025     14028     14030     14026     14025     14028     14031
     14027     14025     14028     14029     14027     14025     14028     14030
     14027     14025     14028     14031     14028     14031     14034     14035
     14028     14031     14034     14036     14028     14031     14034     14037
     14029     14028     14031     14032     14029     14028     14031     14033
     14029     14028     14031     14034     14030     14028     14031     14032
     14030     14028     14031     14033     14030     14028     14031     14034
     14031     14034     14037     14038     14031     14034     14037     14039
     14031     14034     14037     14040     14032     14031     14034     14035
     14032     14031     14034     14036     14032     14031     14034     14037
     14033     14031     14034     14035     14033     14031     14034     14036
     14033     14031     14034     14037     14035     14034     14037     14038
     14035     14034     14037     14039     14035     14034     14037     14040
     14036     14034     14037     14038     14036     14034     14037     14039
     14036     14034     14037     14040     14041     14044     14047     14048
     14041     14044     14047     14049     14041     14044     14047     14050
     14042     14041     14044     14045     14042     14041     14044     14046
     14042     14041     14044     14047     14043     14041     14044     14045
     14043     14041     14044     14046     14043     14041     14044     14047
     14044     14047     14050     14051     14044     14047     14050     14052
     14044     14047     14050     14053     14045     14044     14047     14048
     14045     14044     14047     14049     14045     14044     14047     14050
     14046     14044     14047     14048     14046     14044     14047     14049
     14046     14044     14047     14050     14047     14050     14053     14054
     14047     14050     14053     14055     14047     14050     14053     14056
     14048     14047     14050     14051     14048     14047     14050     14052
     14048     14047     14050     14053     14049     14047     14050     14051
     14049     14047     14050     14052     14049     14047     14050     14053
     14050     14053     14056     14057     14050     14053     14056     14058
     14050     14053     14056     14059     14051     14050     14053     14054
     14051     14050     14053     14055     14051     14050     14053     14056
     14052     14050     14053     14054     14052     14050     14053     14055
     14052     14050     14053     14056     14053     14056     14059     14060
     14053     14056     14059     14061     14053     14056     14059     14062
     14054     14053     14056     14057     14054     14053     14056     14058
     14054     14053     14056     14059     14055     14053     14056     14057
     14055     14053     14056     14058     14055     14053     14056     14059
     14056     14059     14062     14063     14056     14059     14062     14064
     14056     14059     14062     14065     14057     14056     14059     14060
     14057     14056     14059     14061     14057     14056     14059     14062
     14058     14056     14059     14060     14058     14056     14059     14061
     14058     14056     14059     14062     14059     14062     14065     14066
     14059     14062     14065     14067     14059     14062     14065     14068
     14060     14059     14062     14063     14060     14059     14062     14064
     14060     14059     14062     14065     14061     14059     14062     14063
     14061     14059     14062     14064     14061     14059     14062     14065
     14062     14065     14068     14069     14062     14065     14068     14070
     14062     14065     14068     14071     14063     14062     14065     14066
     14063     14062     14065     14067     14063     14062     14065     14068
     14064     14062     14065     14066     14064     14062     14065     14067
     14064     14062     14065     14068     14065     14068     14071     14072
     14065     14068     14071     14073     14065     14068     14071     14074
     14066     14065     14068     14069     14066     14065     14068     14070
     14066     14065     14068     14071     14067     14065     14068     14069
     14067     14065     14068     14070     14067     14065     14068     14071
     14068     14071     14074     14075     14068     14071     14074     14076
     14068     14071     14074     14077     14069     14068     14071     14072
     14069     14068     14071     14073     14069     14068     14071     14074
     14070     14068     14071     14072     14070     14068     14071     14073
     14070     14068     14071     14074     14071     14074     14077     14078
     14071     14074     14077     14079     14071     14074     14077     14080
     14072     14071     14074     14075     14072     14071     14074     14076
     14072     14071     14074     14077     14073     14071     14074     14075
     14073     14071     14074     14076     14073     14071     14074     14077
     14074     14077     14080     14081     14074     14077     14080     14082
     14074     14077     14080     14083     14075     14074     14077     14078
     14075     14074     14077     14079     14075     14074     14077     14080
     14076     14074     14077     14078     14076     14074     14077     14079
     14076     14074     14077     14080     14078     14077     14080     14081
     14078     14077     14080     14082     14078     14077     14080     14083
     14079     14077     14080     14081     14079     14077     14080     14082
     14079     14077     14080     14083     14084     14088     14091     14092
     14084     14088     14091     14093     14084     14088     14091     14098
     14085     14084     14088     14089     14085     14084     14088     14090
     14085     14084     14088     14091     14086     14084     14088     14089
     14086     14084     14088     14090     14086     14084     14088     14091
     14087     14084     14088     14089     14087     14084     14088     14090
     14087     14084     14088     14091     14088     14091     14098     14094
     14089     14088     14091     14092     14089     14088     14091     14093
     14089     14088     14091     14098     14090     14088     14091     14092
     14090     14088     14091     14093     14090     14088     14091     14098
     14091     14098     14094     14095     14091     14098     14094     14096
     14091     14098     14094     14097     14092     14091     14098     14094
     14093     14091     14098     14094     14094     14097     14099     14100
     14094     14097     14099     14101     14094     14097     14099     14102
     14095     14094     14097     14099     14096     14094     14097     14099
     14097     14099     14102     14103     14097     14099     14102     14104
     14097     14099     14102     14110     14098     14094     14097     14099
     14099     14102     14104     14105     14099     14102     14110     14111
     14099     14102     14110     14112     14099     14102     14110     14113
     14100     14099     14102     14103     14100     14099     14102     14104
     14100     14099     14102     14110     14101     14099     14102     14103
     14101     14099     14102     14104     14101     14099     14102     14110
     14102     14104     14105     14106     14102     14104     14105     14107
     14102     14110     14113     14114     14103     14102     14104     14105
     14103     14102     14110     14111     14103     14102     14110     14112
     14103     14102     14110     14113     14104     14102     14110     14111
     14104     14102     14110     14112     14104     14102     14110     14113
     14104     14105     14107     14108     14104     14105     14107     14109
     14104     14105     14107     14119     14105     14104     14102     14110
     14105     14107     14119     14120     14105     14107     14119     14121
     14105     14107     14119     14122     14106     14105     14107     14108
     14106     14105     14107     14109     14106     14105     14107     14119
     14107     14119     14122     14123     14107     14119     14122     14124
     14107     14119     14122     14125     14108     14107     14119     14120
     14108     14107     14119     14121     14108     14107     14119     14122
     14109     14107     14119     14120     14109     14107     14119     14121
     14109     14107     14119     14122     14110     14113     14114     14115
     14110     14113     14114     14116     14111     14110     14113     14114
     14112     14110     14113     14114     14113     14114     14116     14117
     14113     14114     14116     14118     14113     14114     14116     14166
     14114     14116     14166     14167     14114     14116     14166     14168
     14114     14116     14166     14169     14115     14114     14116     14117
     14115     14114     14116     14118     14115     14114     14116     14166
     14116     14166     14169     14170     14116     14166     14169     14171
     14116     14166     14169     14172     14117     14116     14166     14167
     14117     14116     14166     14168     14117     14116     14166     14169
     14118     14116     14166     14167     14118     14116     14166     14168
     14118     14116     14166     14169     14119     14122     14125     14126
     14119     14122     14125     14127     14119     14122     14125     14128
     14120     14119     14122     14123     14120     14119     14122     14124
     14120     14119     14122     14125     14121     14119     14122     14123
     14121     14119     14122     14124     14121     14119     14122     14125
     14122     14125     14128     14129     14122     14125     14128     14130
     14122     14125     14128     14131     14123     14122     14125     14126
     14123     14122     14125     14127     14123     14122     14125     14128
     14124     14122     14125     14126     14124     14122     14125     14127
     14124     14122     14125     14128     14125     14128     14131     14132
     14125     14128     14131     14133     14125     14128     14131     14134
     14126     14125     14128     14129     14126     14125     14128     14130
     14126     14125     14128     14131     14127     14125     14128     14129
     14127     14125     14128     14130     14127     14125     14128     14131
     14128     14131     14134     14135     14128     14131     14134     14136
     14128     14131     14134     14137     14129     14128     14131     14132
     14129     14128     14131     14133     14129     14128     14131     14134
     14130     14128     14131     14132     14130     14128     14131     14133
     14130     14128     14131     14134     14131     14134     14137     14138
     14131     14134     14137     14139     14132     14131     14134     14135
     14132     14131     14134     14136     14132     14131     14134     14137
     14133     14131     14134     14135     14133     14131     14134     14136
     14133     14131     14134     14137     14134     14137     14139     14140
     14134     14137     14139     14141     14135     14134     14137     14138
     14135     14134     14137     14139     14136     14134     14137     14138
     14136     14134     14137     14139     14137     14139     14141     14142
     14137     14139     14141     14143     14137     14139     14141     14144
     14138     14137     14139     14140     14138     14137     14139     14141
     14139     14141     14144     14145     14139     14141     14144     14146
     14139     14141     14144     14147     14140     14139     14141     14142
     14140     14139     14141     14143     14140     14139     14141     14144
     14141     14144     14147     14148     14141     14144     14147     14149
     14141     14144     14147     14150     14142     14141     14144     14145
     14142     14141     14144     14146     14142     14141     14144     14147
     14143     14141     14144     14145     14143     14141     14144     14146
     14143     14141     14144     14147     14144     14147     14150     14151
     14144     14147     14150     14152     14144     14147     14150     14153
     14145     14144     14147     14148     14145     14144     14147     14149
     14145     14144     14147     14150     14146     14144     14147     14148
     14146     14144     14147     14149     14146     14144     14147     14150
     14147     14150     14153     14154     14147     14150     14153     14155
     14147     14150     14153     14156     14148     14147     14150     14151
     14148     14147     14150     14152     14148     14147     14150     14153
     14149     14147     14150     14151     14149     14147     14150     14152
     14149     14147     14150     14153     14150     14153     14156     14157
     14150     14153     14156     14158     14150     14153     14156     14159
     14151     14150     14153     14154     14151     14150     14153     14155
     14151     14150     14153     14156     14152     14150     14153     14154
     14152     14150     14153     14155     14152     14150     14153     14156
     14153     14156     14159     14160     14153     14156     14159     14161
     14153     14156     14159     14162     14154     14153     14156     14157
     14154     14153     14156     14158     14154     14153     14156     14159
     14155     14153     14156     14157     14155     14153     14156     14158
     14155     14153     14156     14159     14156     14159     14162     14163
     14156     14159     14162     14164     14156     14159     14162     14165
     14157     14156     14159     14160     14157     14156     14159     14161
     14157     14156     14159     14162     14158     14156     14159     14160
     14158     14156     14159     14161     14158     14156     14159     14162
     14160     14159     14162     14163     14160     14159     14162     14164
     14160     14159     14162     14165     14161     14159     14162     14163
     14161     14159     14162     14164     14161     14159     14162     14165
     14166     14169     14172     14173     14166     14169     14172     14174
     14166     14169     14172     14175     14167     14166     14169     14170
     14167     14166     14169     14171     14167     14166     14169     14172
     14168     14166     14169     14170     14168     14166     14169     14171
     14168     14166     14169     14172     14169     14172     14175     14176
     14169     14172     14175     14177     14169     14172     14175     14178
     14170     14169     14172     14173     14170     14169     14172     14174
     14170     14169     14172     14175     14171     14169     14172     14173
     14171     14169     14172     14174     14171     14169     14172     14175
     14172     14175     14178     14179     14172     14175     14178     14180
     14172     14175     14178     14181     14173     14172     14175     14176
     14173     14172     14175     14177     14173     14172     14175     14178
     14174     14172     14175     14176     14174     14172     14175     14177
     14174     14172     14175     14178     14175     14178     14181     14182
     14175     14178     14181     14183     14175     14178     14181     14184
     14176     14175     14178     14179     14176     14175     14178     14180
     14176     14175     14178     14181     14177     14175     14178     14179
     14177     14175     14178     14180     14177     14175     14178     14181
     14178     14181     14184     14185     14178     14181     14184     14186
     14178     14181     14184     14187     14179     14178     14181     14182
     14179     14178     14181     14183     14179     14178     14181     14184
     14180     14178     14181     14182     14180     14178     14181     14183
     14180     14178     14181     14184     14181     14184     14187     14188
     14181     14184     14187     14189     14181     14184     14187     14190
     14182     14181     14184     14185     14182     14181     14184     14186
     14182     14181     14184     14187     14183     14181     14184     14185
     14183     14181     14184     14186     14183     14181     14184     14187
     14184     14187     14190     14191     14184     14187     14190     14192
     14184     14187     14190     14193     14185     14184     14187     14188
     14185     14184     14187     14189     14185     14184     14187     14190
     14186     14184     14187     14188     14186     14184     14187     14189
     14186     14184     14187     14190     14187     14190     14193     14194
     14187     14190     14193     14195     14187     14190     14193     14196
     14188     14187     14190     14191     14188     14187     14190     14192
     14188     14187     14190     14193     14189     14187     14190     14191
     14189     14187     14190     14192     14189     14187     14190     14193
     14190     14193     14196     14197     14190     14193     14196     14198
     14190     14193     14196     14199     14191     14190     14193     14194
     14191     14190     14193     14195     14191     14190     14193     14196
     14192     14190     14193     14194     14192     14190     14193     14195
     14192     14190     14193     14196     14193     14196     14199     14200
     14193     14196     14199     14201     14193     14196     14199     14202
     14194     14193     14196     14197     14194     14193     14196     14198
     14194     14193     14196     14199     14195     14193     14196     14197
     14195     14193     14196     14198     14195     14193     14196     14199
     14196     14199     14202     14203     14196     14199     14202     14204
     14196     14199     14202     14205     14197     14196     14199     14200
     14197     14196     14199     14201     14197     14196     14199     14202
     14198     14196     14199     14200     14198     14196     14199     14201
     14198     14196     14199     14202     14199     14202     14205     14206
     14199     14202     14205     14207     14199     14202     14205     14208
     14200     14199     14202     14203     14200     14199     14202     14204
     14200     14199     14202     14205     14201     14199     14202     14203
     14201     14199     14202     14204     14201     14199     14202     14205
     14203     14202     14205     14206     14203     14202     14205     14207
     14203     14202     14205     14208     14204     14202     14205     14206
     14204     14202     14205     14207     14204     14202     14205     14208
     14209     14213     14216     14217     14209     14213     14216     14218
     14209     14213     14216     14223     14210     14209     14213     14214
     14210     14209     14213     14215     14210     14209     14213     14216
     14211     14209     14213     14214     14211     14209     14213     14215
     14211     14209     14213     14216     14212     14209     14213     14214
     14212     14209     14213     14215     14212     14209     14213     14216
     14213     14216     14223     14219     14214     14213     14216     14217
     14214     14213     14216     14218     14214     14213     14216     14223
     14215     14213     14216     14217     14215     14213     14216     14218
     14215     14213     14216     14223     14216     14223     14219     14220
     14216     14223     14219     14221     14216     14223     14219     14222
     14217     14216     14223     14219     14218     14216     14223     14219
     14219     14222     14224     14225     14219     14222     14224     14226
     14219     14222     14224     14227     14220     14219     14222     14224
     14221     14219     14222     14224     14222     14224     14227     14228
     14222     14224     14227     14229     14222     14224     14227     14235
     14223     14219     14222     14224     14224     14227     14229     14230
     14224     14227     14235     14236     14224     14227     14235     14237
     14224     14227     14235     14238     14225     14224     14227     14228
     14225     14224     14227     14229     14225     14224     14227     14235
     14226     14224     14227     14228     14226     14224     14227     14229
     14226     14224     14227     14235     14227     14229     14230     14231
     14227     14229     14230     14232     14227     14235     14238     14239
     14228     14227     14229     14230     14228     14227     14235     14236
     14228     14227     14235     14237     14228     14227     14235     14238
     14229     14227     14235     14236     14229     14227     14235     14237
     14229     14227     14235     14238     14229     14230     14232     14233
     14229     14230     14232     14234     14229     14230     14232     14244
     14230     14229     14227     14235     14230     14232     14244     14245
     14230     14232     14244     14246     14230     14232     14244     14247
     14231     14230     14232     14233     14231     14230     14232     14234
     14231     14230     14232     14244     14232     14244     14247     14248
     14232     14244     14247     14249     14232     14244     14247     14250
     14233     14232     14244     14245     14233     14232     14244     14246
     14233     14232     14244     14247     14234     14232     14244     14245
     14234     14232     14244     14246     14234     14232     14244     14247
     14235     14238     14239     14240     14235     14238     14239     14241
     14236     14235     14238     14239     14237     14235     14238     14239
     14238     14239     14241     14242     14238     14239     14241     14243
     14238     14239     14241     14291     14239     14241     14291     14292
     14239     14241     14291     14293     14239     14241     14291     14294
     14240     14239     14241     14242     14240     14239     14241     14243
     14240     14239     14241     14291     14241     14291     14294     14295
     14241     14291     14294     14296     14241     14291     14294     14297
     14242     14241     14291     14292     14242     14241     14291     14293
     14242     14241     14291     14294     14243     14241     14291     14292
     14243     14241     14291     14293     14243     14241     14291     14294
     14244     14247     14250     14251     14244     14247     14250     14252
     14244     14247     14250     14253     14245     14244     14247     14248
     14245     14244     14247     14249     14245     14244     14247     14250
     14246     14244     14247     14248     14246     14244     14247     14249
     14246     14244     14247     14250     14247     14250     14253     14254
     14247     14250     14253     14255     14247     14250     14253     14256
     14248     14247     14250     14251     14248     14247     14250     14252
     14248     14247     14250     14253     14249     14247     14250     14251
     14249     14247     14250     14252     14249     14247     14250     14253
     14250     14253     14256     14257     14250     14253     14256     14258
     14250     14253     14256     14259     14251     14250     14253     14254
     14251     14250     14253     14255     14251     14250     14253     14256
     14252     14250     14253     14254     14252     14250     14253     14255
     14252     14250     14253     14256     14253     14256     14259     14260
     14253     14256     14259     14261     14253     14256     14259     14262
     14254     14253     14256     14257     14254     14253     14256     14258
     14254     14253     14256     14259     14255     14253     14256     14257
     14255     14253     14256     14258     14255     14253     14256     14259
     14256     14259     14262     14263     14256     14259     14262     14264
     14257     14256     14259     14260     14257     14256     14259     14261
     14257     14256     14259     14262     14258     14256     14259     14260
     14258     14256     14259     14261     14258     14256     14259     14262
     14259     14262     14264     14265     14259     14262     14264     14266
     14260     14259     14262     14263     14260     14259     14262     14264
     14261     14259     14262     14263     14261     14259     14262     14264
     14262     14264     14266     14267     14262     14264     14266     14268
     14262     14264     14266     14269     14263     14262     14264     14265
     14263     14262     14264     14266     14264     14266     14269     14270
     14264     14266     14269     14271     14264     14266     14269     14272
     14265     14264     14266     14267     14265     14264     14266     14268
     14265     14264     14266     14269     14266     14269     14272     14273
     14266     14269     14272     14274     14266     14269     14272     14275
     14267     14266     14269     14270     14267     14266     14269     14271
     14267     14266     14269     14272     14268     14266     14269     14270
     14268     14266     14269     14271     14268     14266     14269     14272
     14269     14272     14275     14276     14269     14272     14275     14277
     14269     14272     14275     14278     14270     14269     14272     14273
     14270     14269     14272     14274     14270     14269     14272     14275
     14271     14269     14272     14273     14271     14269     14272     14274
     14271     14269     14272     14275     14272     14275     14278     14279
     14272     14275     14278     14280     14272     14275     14278     14281
     14273     14272     14275     14276     14273     14272     14275     14277
     14273     14272     14275     14278     14274     14272     14275     14276
     14274     14272     14275     14277     14274     14272     14275     14278
     14275     14278     14281     14282     14275     14278     14281     14283
     14275     14278     14281     14284     14276     14275     14278     14279
     14276     14275     14278     14280     14276     14275     14278     14281
     14277     14275     14278     14279     14277     14275     14278     14280
     14277     14275     14278     14281     14278     14281     14284     14285
     14278     14281     14284     14286     14278     14281     14284     14287
     14279     14278     14281     14282     14279     14278     14281     14283
     14279     14278     14281     14284     14280     14278     14281     14282
     14280     14278     14281     14283     14280     14278     14281     14284
     14281     14284     14287     14288     14281     14284     14287     14289
     14281     14284     14287     14290     14282     14281     14284     14285
     14282     14281     14284     14286     14282     14281     14284     14287
     14283     14281     14284     14285     14283     14281     14284     14286
     14283     14281     14284     14287     14285     14284     14287     14288
     14285     14284     14287     14289     14285     14284     14287     14290
     14286     14284     14287     14288     14286     14284     14287     14289
     14286     14284     14287     14290     14291     14294     14297     14298
     14291     14294     14297     14299     14291     14294     14297     14300
     14292     14291     14294     14295     14292     14291     14294     14296
     14292     14291     14294     14297     14293     14291     14294     14295
     14293     14291     14294     14296     14293     14291     14294     14297
     14294     14297     14300     14301     14294     14297     14300     14302
     14294     14297     14300     14303     14295     14294     14297     14298
     14295     14294     14297     14299     14295     14294     14297     14300
     14296     14294     14297     14298     14296     14294     14297     14299
     14296     14294     14297     14300     14297     14300     14303     14304
     14297     14300     14303     14305     14297     14300     14303     14306
     14298     14297     14300     14301     14298     14297     14300     14302
     14298     14297     14300     14303     14299     14297     14300     14301
     14299     14297     14300     14302     14299     14297     14300     14303
     14300     14303     14306     14307     14300     14303     14306     14308
     14300     14303     14306     14309     14301     14300     14303     14304
     14301     14300     14303     14305     14301     14300     14303     14306
     14302     14300     14303     14304     14302     14300     14303     14305
     14302     14300     14303     14306     14303     14306     14309     14310
     14303     14306     14309     14311     14303     14306     14309     14312
     14304     14303     14306     14307     14304     14303     14306     14308
     14304     14303     14306     14309     14305     14303     14306     14307
     14305     14303     14306     14308     14305     14303     14306     14309
     14306     14309     14312     14313     14306     14309     14312     14314
     14306     14309     14312     14315     14307     14306     14309     14310
     14307     14306     14309     14311     14307     14306     14309     14312
     14308     14306     14309     14310     14308     14306     14309     14311
     14308     14306     14309     14312     14309     14312     14315     14316
     14309     14312     14315     14317     14309     14312     14315     14318
     14310     14309     14312     14313     14310     14309     14312     14314
     14310     14309     14312     14315     14311     14309     14312     14313
     14311     14309     14312     14314     14311     14309     14312     14315
     14312     14315     14318     14319     14312     14315     14318     14320
     14312     14315     14318     14321     14313     14312     14315     14316
     14313     14312     14315     14317     14313     14312     14315     14318
     14314     14312     14315     14316     14314     14312     14315     14317
     14314     14312     14315     14318     14315     14318     14321     14322
     14315     14318     14321     14323     14315     14318     14321     14324
     14316     14315     14318     14319     14316     14315     14318     14320
     14316     14315     14318     14321     14317     14315     14318     14319
     14317     14315     14318     14320     14317     14315     14318     14321
     14318     14321     14324     14325     14318     14321     14324     14326
     14318     14321     14324     14327     14319     14318     14321     14322
     14319     14318     14321     14323     14319     14318     14321     14324
     14320     14318     14321     14322     14320     14318     14321     14323
     14320     14318     14321     14324     14321     14324     14327     14328
     14321     14324     14327     14329     14321     14324     14327     14330
     14322     14321     14324     14325     14322     14321     14324     14326
     14322     14321     14324     14327     14323     14321     14324     14325
     14323     14321     14324     14326     14323     14321     14324     14327
     14324     14327     14330     14331     14324     14327     14330     14332
     14324     14327     14330     14333     14325     14324     14327     14328
     14325     14324     14327     14329     14325     14324     14327     14330
     14326     14324     14327     14328     14326     14324     14327     14329
     14326     14324     14327     14330     14328     14327     14330     14331
     14328     14327     14330     14332     14328     14327     14330     14333
     14329     14327     14330     14331     14329     14327     14330     14332
     14329     14327     14330     14333     14334     14338     14341     14342
     14334     14338     14341     14343     14334     14338     14341     14348
     14335     14334     14338     14339     14335     14334     14338     14340
     14335     14334     14338     14341     14336     14334     14338     14339
     14336     14334     14338     14340     14336     14334     14338     14341
     14337     14334     14338     14339     14337     14334     14338     14340
     14337     14334     14338     14341     14338     14341     14348     14344
     14339     14338     14341     14342     14339     14338     14341     14343
     14339     14338     14341     14348     14340     14338     14341     14342
     14340     14338     14341     14343     14340     14338     14341     14348
     14341     14348     14344     14345     14341     14348     14344     14346
     14341     14348     14344     14347     14342     14341     14348     14344
     14343     14341     14348     14344     14344     14347     14349     14350
     14344     14347     14349     14351     14344     14347     14349     14352
     14345     14344     14347     14349     14346     14344     14347     14349
     14347     14349     14352     14353     14347     14349     14352     14354
     14347     14349     14352     14360     14348     14344     14347     14349
     14349     14352     14354     14355     14349     14352     14360     14361
     14349     14352     14360     14362     14349     14352     14360     14363
     14350     14349     14352     14353     14350     14349     14352     14354
     14350     14349     14352     14360     14351     14349     14352     14353
     14351     14349     14352     14354     14351     14349     14352     14360
     14352     14354     14355     14356     14352     14354     14355     14357
     14352     14360     14363     14364     14353     14352     14354     14355
     14353     14352     14360     14361     14353     14352     14360     14362
     14353     14352     14360     14363     14354     14352     14360     14361
     14354     14352     14360     14362     14354     14352     14360     14363
     14354     14355     14357     14358     14354     14355     14357     14359
     14354     14355     14357     14369     14355     14354     14352     14360
     14355     14357     14369     14370     14355     14357     14369     14371
     14355     14357     14369     14372     14356     14355     14357     14358
     14356     14355     14357     14359     14356     14355     14357     14369
     14357     14369     14372     14373     14357     14369     14372     14374
     14357     14369     14372     14375     14358     14357     14369     14370
     14358     14357     14369     14371     14358     14357     14369     14372
     14359     14357     14369     14370     14359     14357     14369     14371
     14359     14357     14369     14372     14360     14363     14364     14365
     14360     14363     14364     14366     14361     14360     14363     14364
     14362     14360     14363     14364     14363     14364     14366     14367
     14363     14364     14366     14368     14363     14364     14366     14416
     14364     14366     14416     14417     14364     14366     14416     14418
     14364     14366     14416     14419     14365     14364     14366     14367
     14365     14364     14366     14368     14365     14364     14366     14416
     14366     14416     14419     14420     14366     14416     14419     14421
     14366     14416     14419     14422     14367     14366     14416     14417
     14367     14366     14416     14418     14367     14366     14416     14419
     14368     14366     14416     14417     14368     14366     14416     14418
     14368     14366     14416     14419     14369     14372     14375     14376
     14369     14372     14375     14377     14369     14372     14375     14378
     14370     14369     14372     14373     14370     14369     14372     14374
     14370     14369     14372     14375     14371     14369     14372     14373
     14371     14369     14372     14374     14371     14369     14372     14375
     14372     14375     14378     14379     14372     14375     14378     14380
     14372     14375     14378     14381     14373     14372     14375     14376
     14373     14372     14375     14377     14373     14372     14375     14378
     14374     14372     14375     14376     14374     14372     14375     14377
     14374     14372     14375     14378     14375     14378     14381     14382
     14375     14378     14381     14383     14375     14378     14381     14384
     14376     14375     14378     14379     14376     14375     14378     14380
     14376     14375     14378     14381     14377     14375     14378     14379
     14377     14375     14378     14380     14377     14375     14378     14381
     14378     14381     14384     14385     14378     14381     14384     14386
     14378     14381     14384     14387     14379     14378     14381     14382
     14379     14378     14381     14383     14379     14378     14381     14384
     14380     14378     14381     14382     14380     14378     14381     14383
     14380     14378     14381     14384     14381     14384     14387     14388
     14381     14384     14387     14389     14382     14381     14384     14385
     14382     14381     14384     14386     14382     14381     14384     14387
     14383     14381     14384     14385     14383     14381     14384     14386
     14383     14381     14384     14387     14384     14387     14389     14390
     14384     14387     14389     14391     14385     14384     14387     14388
     14385     14384     14387     14389     14386     14384     14387     14388
     14386     14384     14387     14389     14387     14389     14391     14392
     14387     14389     14391     14393     14387     14389     14391     14394
     14388     14387     14389     14390     14388     14387     14389     14391
     14389     14391     14394     14395     14389     14391     14394     14396
     14389     14391     14394     14397     14390     14389     14391     14392
     14390     14389     14391     14393     14390     14389     14391     14394
     14391     14394     14397     14398     14391     14394     14397     14399
     14391     14394     14397     14400     14392     14391     14394     14395
     14392     14391     14394     14396     14392     14391     14394     14397
     14393     14391     14394     14395     14393     14391     14394     14396
     14393     14391     14394     14397     14394     14397     14400     14401
     14394     14397     14400     14402     14394     14397     14400     14403
     14395     14394     14397     14398     14395     14394     14397     14399
     14395     14394     14397     14400     14396     14394     14397     14398
     14396     14394     14397     14399     14396     14394     14397     14400
     14397     14400     14403     14404     14397     14400     14403     14405
     14397     14400     14403     14406     14398     14397     14400     14401
     14398     14397     14400     14402     14398     14397     14400     14403
     14399     14397     14400     14401     14399     14397     14400     14402
     14399     14397     14400     14403     14400     14403     14406     14407
     14400     14403     14406     14408     14400     14403     14406     14409
     14401     14400     14403     14404     14401     14400     14403     14405
     14401     14400     14403     14406     14402     14400     14403     14404
     14402     14400     14403     14405     14402     14400     14403     14406
     14403     14406     14409     14410     14403     14406     14409     14411
     14403     14406     14409     14412     14404     14403     14406     14407
     14404     14403     14406     14408     14404     14403     14406     14409
     14405     14403     14406     14407     14405     14403     14406     14408
     14405     14403     14406     14409     14406     14409     14412     14413
     14406     14409     14412     14414     14406     14409     14412     14415
     14407     14406     14409     14410     14407     14406     14409     14411
     14407     14406     14409     14412     14408     14406     14409     14410
     14408     14406     14409     14411     14408     14406     14409     14412
     14410     14409     14412     14413     14410     14409     14412     14414
     14410     14409     14412     14415     14411     14409     14412     14413
     14411     14409     14412     14414     14411     14409     14412     14415
     14416     14419     14422     14423     14416     14419     14422     14424
     14416     14419     14422     14425     14417     14416     14419     14420
     14417     14416     14419     14421     14417     14416     14419     14422
     14418     14416     14419     14420     14418     14416     14419     14421
     14418     14416     14419     14422     14419     14422     14425     14426
     14419     14422     14425     14427     14419     14422     14425     14428
     14420     14419     14422     14423     14420     14419     14422     14424
     14420     14419     14422     14425     14421     14419     14422     14423
     14421     14419     14422     14424     14421     14419     14422     14425
     14422     14425     14428     14429     14422     14425     14428     14430
     14422     14425     14428     14431     14423     14422     14425     14426
     14423     14422     14425     14427     14423     14422     14425     14428
     14424     14422     14425     14426     14424     14422     14425     14427
     14424     14422     14425     14428     14425     14428     14431     14432
     14425     14428     14431     14433     14425     14428     14431     14434
     14426     14425     14428     14429     14426     14425     14428     14430
     14426     14425     14428     14431     14427     14425     14428     14429
     14427     14425     14428     14430     14427     14425     14428     14431
     14428     14431     14434     14435     14428     14431     14434     14436
     14428     14431     14434     14437     14429     14428     14431     14432
     14429     14428     14431     14433     14429     14428     14431     14434
     14430     14428     14431     14432     14430     14428     14431     14433
     14430     14428     14431     14434     14431     14434     14437     14438
     14431     14434     14437     14439     14431     14434     14437     14440
     14432     14431     14434     14435     14432     14431     14434     14436
     14432     14431     14434     14437     14433     14431     14434     14435
     14433     14431     14434     14436     14433     14431     14434     14437
     14434     14437     14440     14441     14434     14437     14440     14442
     14434     14437     14440     14443     14435     14434     14437     14438
     14435     14434     14437     14439     14435     14434     14437     14440
     14436     14434     14437     14438     14436     14434     14437     14439
     14436     14434     14437     14440     14437     14440     14443     14444
     14437     14440     14443     14445     14437     14440     14443     14446
     14438     14437     14440     14441     14438     14437     14440     14442
     14438     14437     14440     14443     14439     14437     14440     14441
     14439     14437     14440     14442     14439     14437     14440     14443
     14440     14443     14446     14447     14440     14443     14446     14448
     14440     14443     14446     14449     14441     14440     14443     14444
     14441     14440     14443     14445     14441     14440     14443     14446
     14442     14440     14443     14444     14442     14440     14443     14445
     14442     14440     14443     14446     14443     14446     14449     14450
     14443     14446     14449     14451     14443     14446     14449     14452
     14444     14443     14446     14447     14444     14443     14446     14448
     14444     14443     14446     14449     14445     14443     14446     14447
     14445     14443     14446     14448     14445     14443     14446     14449
     14446     14449     14452     14453     14446     14449     14452     14454
     14446     14449     14452     14455     14447     14446     14449     14450
     14447     14446     14449     14451     14447     14446     14449     14452
     14448     14446     14449     14450     14448     14446     14449     14451
     14448     14446     14449     14452     14449     14452     14455     14456
     14449     14452     14455     14457     14449     14452     14455     14458
     14450     14449     14452     14453     14450     14449     14452     14454
     14450     14449     14452     14455     14451     14449     14452     14453
     14451     14449     14452     14454     14451     14449     14452     14455
     14453     14452     14455     14456     14453     14452     14455     14457
     14453     14452     14455     14458     14454     14452     14455     14456
     14454     14452     14455     14457     14454     14452     14455     14458
     14459     14463     14466     14467     14459     14463     14466     14468
     14459     14463     14466     14473     14460     14459     14463     14464
     14460     14459     14463     14465     14460     14459     14463     14466
     14461     14459     14463     14464     14461     14459     14463     14465
     14461     14459     14463     14466     14462     14459     14463     14464
     14462     14459     14463     14465     14462     14459     14463     14466
     14463     14466     14473     14469     14464     14463     14466     14467
     14464     14463     14466     14468     14464     14463     14466     14473
     14465     14463     14466     14467     14465     14463     14466     14468
     14465     14463     14466     14473     14466     14473     14469     14470
     14466     14473     14469     14471     14466     14473     14469     14472
     14467     14466     14473     14469     14468     14466     14473     14469
     14469     14472     14474     14475     14469     14472     14474     14476
     14469     14472     14474     14477     14470     14469     14472     14474
     14471     14469     14472     14474     14472     14474     14477     14478
     14472     14474     14477     14479     14472     14474     14477     14485
     14473     14469     14472     14474     14474     14477     14479     14480
     14474     14477     14485     14486     14474     14477     14485     14487
     14474     14477     14485     14488     14475     14474     14477     14478
     14475     14474     14477     14479     14475     14474     14477     14485
     14476     14474     14477     14478     14476     14474     14477     14479
     14476     14474     14477     14485     14477     14479     14480     14481
     14477     14479     14480     14482     14477     14485     14488     14489
     14478     14477     14479     14480     14478     14477     14485     14486
     14478     14477     14485     14487     14478     14477     14485     14488
     14479     14477     14485     14486     14479     14477     14485     14487
     14479     14477     14485     14488     14479     14480     14482     14483
     14479     14480     14482     14484     14479     14480     14482     14494
     14480     14479     14477     14485     14480     14482     14494     14495
     14480     14482     14494     14496     14480     14482     14494     14497
     14481     14480     14482     14483     14481     14480     14482     14484
     14481     14480     14482     14494     14482     14494     14497     14498
     14482     14494     14497     14499     14482     14494     14497     14500
     14483     14482     14494     14495     14483     14482     14494     14496
     14483     14482     14494     14497     14484     14482     14494     14495
     14484     14482     14494     14496     14484     14482     14494     14497
     14485     14488     14489     14490     14485     14488     14489     14491
     14486     14485     14488     14489     14487     14485     14488     14489
     14488     14489     14491     14492     14488     14489     14491     14493
     14488     14489     14491     14541     14489     14491     14541     14542
     14489     14491     14541     14543     14489     14491     14541     14544
     14490     14489     14491     14492     14490     14489     14491     14493
     14490     14489     14491     14541     14491     14541     14544     14545
     14491     14541     14544     14546     14491     14541     14544     14547
     14492     14491     14541     14542     14492     14491     14541     14543
     14492     14491     14541     14544     14493     14491     14541     14542
     14493     14491     14541     14543     14493     14491     14541     14544
     14494     14497     14500     14501     14494     14497     14500     14502
     14494     14497     14500     14503     14495     14494     14497     14498
     14495     14494     14497     14499     14495     14494     14497     14500
     14496     14494     14497     14498     14496     14494     14497     14499
     14496     14494     14497     14500     14497     14500     14503     14504
     14497     14500     14503     14505     14497     14500     14503     14506
     14498     14497     14500     14501     14498     14497     14500     14502
     14498     14497     14500     14503     14499     14497     14500     14501
     14499     14497     14500     14502     14499     14497     14500     14503
     14500     14503     14506     14507     14500     14503     14506     14508
     14500     14503     14506     14509     14501     14500     14503     14504
     14501     14500     14503     14505     14501     14500     14503     14506
     14502     14500     14503     14504     14502     14500     14503     14505
     14502     14500     14503     14506     14503     14506     14509     14510
     14503     14506     14509     14511     14503     14506     14509     14512
     14504     14503     14506     14507     14504     14503     14506     14508
     14504     14503     14506     14509     14505     14503     14506     14507
     14505     14503     14506     14508     14505     14503     14506     14509
     14506     14509     14512     14513     14506     14509     14512     14514
     14507     14506     14509     14510     14507     14506     14509     14511
     14507     14506     14509     14512     14508     14506     14509     14510
     14508     14506     14509     14511     14508     14506     14509     14512
     14509     14512     14514     14515     14509     14512     14514     14516
     14510     14509     14512     14513     14510     14509     14512     14514
     14511     14509     14512     14513     14511     14509     14512     14514
     14512     14514     14516     14517     14512     14514     14516     14518
     14512     14514     14516     14519     14513     14512     14514     14515
     14513     14512     14514     14516     14514     14516     14519     14520
     14514     14516     14519     14521     14514     14516     14519     14522
     14515     14514     14516     14517     14515     14514     14516     14518
     14515     14514     14516     14519     14516     14519     14522     14523
     14516     14519     14522     14524     14516     14519     14522     14525
     14517     14516     14519     14520     14517     14516     14519     14521
     14517     14516     14519     14522     14518     14516     14519     14520
     14518     14516     14519     14521     14518     14516     14519     14522
     14519     14522     14525     14526     14519     14522     14525     14527
     14519     14522     14525     14528     14520     14519     14522     14523
     14520     14519     14522     14524     14520     14519     14522     14525
     14521     14519     14522     14523     14521     14519     14522     14524
     14521     14519     14522     14525     14522     14525     14528     14529
     14522     14525     14528     14530     14522     14525     14528     14531
     14523     14522     14525     14526     14523     14522     14525     14527
     14523     14522     14525     14528     14524     14522     14525     14526
     14524     14522     14525     14527     14524     14522     14525     14528
     14525     14528     14531     14532     14525     14528     14531     14533
     14525     14528     14531     14534     14526     14525     14528     14529
     14526     14525     14528     14530     14526     14525     14528     14531
     14527     14525     14528     14529     14527     14525     14528     14530
     14527     14525     14528     14531     14528     14531     14534     14535
     14528     14531     14534     14536     14528     14531     14534     14537
     14529     14528     14531     14532     14529     14528     14531     14533
     14529     14528     14531     14534     14530     14528     14531     14532
     14530     14528     14531     14533     14530     14528     14531     14534
     14531     14534     14537     14538     14531     14534     14537     14539
     14531     14534     14537     14540     14532     14531     14534     14535
     14532     14531     14534     14536     14532     14531     14534     14537
     14533     14531     14534     14535     14533     14531     14534     14536
     14533     14531     14534     14537     14535     14534     14537     14538
     14535     14534     14537     14539     14535     14534     14537     14540
     14536     14534     14537     14538     14536     14534     14537     14539
     14536     14534     14537     14540     14541     14544     14547     14548
     14541     14544     14547     14549     14541     14544     14547     14550
     14542     14541     14544     14545     14542     14541     14544     14546
     14542     14541     14544     14547     14543     14541     14544     14545
     14543     14541     14544     14546     14543     14541     14544     14547
     14544     14547     14550     14551     14544     14547     14550     14552
     14544     14547     14550     14553     14545     14544     14547     14548
     14545     14544     14547     14549     14545     14544     14547     14550
     14546     14544     14547     14548     14546     14544     14547     14549
     14546     14544     14547     14550     14547     14550     14553     14554
     14547     14550     14553     14555     14547     14550     14553     14556
     14548     14547     14550     14551     14548     14547     14550     14552
     14548     14547     14550     14553     14549     14547     14550     14551
     14549     14547     14550     14552     14549     14547     14550     14553
     14550     14553     14556     14557     14550     14553     14556     14558
     14550     14553     14556     14559     14551     14550     14553     14554
     14551     14550     14553     14555     14551     14550     14553     14556
     14552     14550     14553     14554     14552     14550     14553     14555
     14552     14550     14553     14556     14553     14556     14559     14560
     14553     14556     14559     14561     14553     14556     14559     14562
     14554     14553     14556     14557     14554     14553     14556     14558
     14554     14553     14556     14559     14555     14553     14556     14557
     14555     14553     14556     14558     14555     14553     14556     14559
     14556     14559     14562     14563     14556     14559     14562     14564
     14556     14559     14562     14565     14557     14556     14559     14560
     14557     14556     14559     14561     14557     14556     14559     14562
     14558     14556     14559     14560     14558     14556     14559     14561
     14558     14556     14559     14562     14559     14562     14565     14566
     14559     14562     14565     14567     14559     14562     14565     14568
     14560     14559     14562     14563     14560     14559     14562     14564
     14560     14559     14562     14565     14561     14559     14562     14563
     14561     14559     14562     14564     14561     14559     14562     14565
     14562     14565     14568     14569     14562     14565     14568     14570
     14562     14565     14568     14571     14563     14562     14565     14566
     14563     14562     14565     14567     14563     14562     14565     14568
     14564     14562     14565     14566     14564     14562     14565     14567
     14564     14562     14565     14568     14565     14568     14571     14572
     14565     14568     14571     14573     14565     14568     14571     14574
     14566     14565     14568     14569     14566     14565     14568     14570
     14566     14565     14568     14571     14567     14565     14568     14569
     14567     14565     14568     14570     14567     14565     14568     14571
     14568     14571     14574     14575     14568     14571     14574     14576
     14568     14571     14574     14577     14569     14568     14571     14572
     14569     14568     14571     14573     14569     14568     14571     14574
     14570     14568     14571     14572     14570     14568     14571     14573
     14570     14568     14571     14574     14571     14574     14577     14578
     14571     14574     14577     14579     14571     14574     14577     14580
     14572     14571     14574     14575     14572     14571     14574     14576
     14572     14571     14574     14577     14573     14571     14574     14575
     14573     14571     14574     14576     14573     14571     14574     14577
     14574     14577     14580     14581     14574     14577     14580     14582
     14574     14577     14580     14583     14575     14574     14577     14578
     14575     14574     14577     14579     14575     14574     14577     14580
     14576     14574     14577     14578     14576     14574     14577     14579
     14576     14574     14577     14580     14578     14577     14580     14581
     14578     14577     14580     14582     14578     14577     14580     14583
     14579     14577     14580     14581     14579     14577     14580     14582
     14579     14577     14580     14583     14584     14585     14600     14601
     14584     14585     14600     14602     14584     14585     14600     14606
     14585     14584     14588     14589     14585     14584     14588     14590
     14585     14584     14588     14591     14585     14584     14592     14593
     14585     14584     14592     14594     14585     14584     14592     14595
     14585     14584     14596     14597     14585     14584     14596     14598
     14585     14584     14596     14599     14585     14600     14606     14603
     14586     14585     14584     14588     14586     14585     14584     14592
     14586     14585     14584     14596     14586     14585     14600     14601
     14586     14585     14600     14602     14586     14585     14600     14606
     14587     14585     14584     14588     14587     14585     14584     14592
     14587     14585     14584     14596     14587     14585     14600     14601
     14587     14585     14600     14602     14587     14585     14600     14606
     14588     14584     14585     14600     14588     14584     14592     14593
     14588     14584     14592     14594     14588     14584     14592     14595
     14588     14584     14596     14597     14588     14584     14596     14598
     14588     14584     14596     14599     14589     14588     14584     14592
     14589     14588     14584     14596     14590     14588     14584     14592
     14590     14588     14584     14596     14591     14588     14584     14592
     14591     14588     14584     14596     14592     14584     14585     14600
     14592     14584     14596     14597     14592     14584     14596     14598
     14592     14584     14596     14599     14593     14592     14584     14596
     14594     14592     14584     14596     14595     14592     14584     14596
     14596     14584     14585     14600     14600     14606     14603     14604
     14600     14606     14603     14605     14600     14606     14603     14607
     14601     14600     14606     14603     14602     14600     14606     14603
     14603     14607     14608     14609     14603     14607     14608     14610
     14603     14607     14608     14611     14604     14603     14607     14608
     14605     14603     14607     14608     14606     14603     14607     14608
     14607     14608     14611     14612     14607     14608     14611     14613
     14607     14608     14611     14619     14608     14611     14613     14614
     14608     14611     14619     14620     14608     14611     14619     14621
     14608     14611     14619     14622     14609     14608     14611     14612
     14609     14608     14611     14613     14609     14608     14611     14619
     14610     14608     14611     14612     14610     14608     14611     14613
     14610     14608     14611     14619     14611     14613     14614     14615
     14611     14613     14614     14616     14611     14619     14622     14623
     14612     14611     14613     14614     14612     14611     14619     14620
     14612     14611     14619     14621     14612     14611     14619     14622
     14613     14611     14619     14620     14613     14611     14619     14621
     14613     14611     14619     14622     14613     14614     14616     14617
     14613     14614     14616     14618     14613     14614     14616     14628
     14614     14613     14611     14619     14614     14616     14628     14629
     14614     14616     14628     14630     14614     14616     14628     14631
     14615     14614     14616     14617     14615     14614     14616     14618
     14615     14614     14616     14628     14616     14628     14631     14632
     14616     14628     14631     14633     14616     14628     14631     14634
     14617     14616     14628     14629     14617     14616     14628     14630
     14617     14616     14628     14631     14618     14616     14628     14629
     14618     14616     14628     14630     14618     14616     14628     14631
     14619     14622     14623     14624     14619     14622     14623     14625
     14620     14619     14622     14623     14621     14619     14622     14623
     14622     14623     14625     14626     14622     14623     14625     14627
     14622     14623     14625     14675     14623     14625     14675     14676
     14623     14625     14675     14677     14623     14625     14675     14678
     14624     14623     14625     14626     14624     14623     14625     14627
     14624     14623     14625     14675     14625     14675     14678     14679
     14625     14675     14678     14680     14625     14675     14678     14681
     14626     14625     14675     14676     14626     14625     14675     14677
     14626     14625     14675     14678     14627     14625     14675     14676
     14627     14625     14675     14677     14627     14625     14675     14678
     14628     14631     14634     14635     14628     14631     14634     14636
     14628     14631     14634     14637     14629     14628     14631     14632
     14629     14628     14631     14633     14629     14628     14631     14634
     14630     14628     14631     14632     14630     14628     14631     14633
     14630     14628     14631     14634     14631     14634     14637     14638
     14631     14634     14637     14639     14631     14634     14637     14640
     14632     14631     14634     14635     14632     14631     14634     14636
     14632     14631     14634     14637     14633     14631     14634     14635
     14633     14631     14634     14636     14633     14631     14634     14637
     14634     14637     14640     14641     14634     14637     14640     14642
     14634     14637     14640     14643     14635     14634     14637     14638
     14635     14634     14637     14639     14635     14634     14637     14640
     14636     14634     14637     14638     14636     14634     14637     14639
     14636     14634     14637     14640     14637     14640     14643     14644
     14637     14640     14643     14645     14637     14640     14643     14646
     14638     14637     14640     14641     14638     14637     14640     14642
     14638     14637     14640     14643     14639     14637     14640     14641
     14639     14637     14640     14642     14639     14637     14640     14643
     14640     14643     14646     14647     14640     14643     14646     14648
     14641     14640     14643     14644     14641     14640     14643     14645
     14641     14640     14643     14646     14642     14640     14643     14644
     14642     14640     14643     14645     14642     14640     14643     14646
     14643     14646     14648     14649     14643     14646     14648     14650
     14644     14643     14646     14647     14644     14643     14646     14648
     14645     14643     14646     14647     14645     14643     14646     14648
     14646     14648     14650     14651     14646     14648     14650     14652
     14646     14648     14650     14653     14647     14646     14648     14649
     14647     14646     14648     14650     14648     14650     14653     14654
     14648     14650     14653     14655     14648     14650     14653     14656
     14649     14648     14650     14651     14649     14648     14650     14652
     14649     14648     14650     14653     14650     14653     14656     14657
     14650     14653     14656     14658     14650     14653     14656     14659
     14651     14650     14653     14654     14651     14650     14653     14655
     14651     14650     14653     14656     14652     14650     14653     14654
     14652     14650     14653     14655     14652     14650     14653     14656
     14653     14656     14659     14660     14653     14656     14659     14661
     14653     14656     14659     14662     14654     14653     14656     14657
     14654     14653     14656     14658     14654     14653     14656     14659
     14655     14653     14656     14657     14655     14653     14656     14658
     14655     14653     14656     14659     14656     14659     14662     14663
     14656     14659     14662     14664     14656     14659     14662     14665
     14657     14656     14659     14660     14657     14656     14659     14661
     14657     14656     14659     14662     14658     14656     14659     14660
     14658     14656     14659     14661     14658     14656     14659     14662
     14659     14662     14665     14666     14659     14662     14665     14667
     14659     14662     14665     14668     14660     14659     14662     14663
     14660     14659     14662     14664     14660     14659     14662     14665
     14661     14659     14662     14663     14661     14659     14662     14664
     14661     14659     14662     14665     14662     14665     14668     14669
     14662     14665     14668     14670     14662     14665     14668     14671
     14663     14662     14665     14666     14663     14662     14665     14667
     14663     14662     14665     14668     14664     14662     14665     14666
     14664     14662     14665     14667     14664     14662     14665     14668
     14665     14668     14671     14672     14665     14668     14671     14673
     14665     14668     14671     14674     14666     14665     14668     14669
     14666     14665     14668     14670     14666     14665     14668     14671
     14667     14665     14668     14669     14667     14665     14668     14670
     14667     14665     14668     14671     14669     14668     14671     14672
     14669     14668     14671     14673     14669     14668     14671     14674
     14670     14668     14671     14672     14670     14668     14671     14673
     14670     14668     14671     14674     14675     14678     14681     14682
     14675     14678     14681     14683     14675     14678     14681     14684
     14676     14675     14678     14679     14676     14675     14678     14680
     14676     14675     14678     14681     14677     14675     14678     14679
     14677     14675     14678     14680     14677     14675     14678     14681
     14678     14681     14684     14685     14678     14681     14684     14686
     14678     14681     14684     14687     14679     14678     14681     14682
     14679     14678     14681     14683     14679     14678     14681     14684
     14680     14678     14681     14682     14680     14678     14681     14683
     14680     14678     14681     14684     14681     14684     14687     14688
     14681     14684     14687     14689     14681     14684     14687     14690
     14682     14681     14684     14685     14682     14681     14684     14686
     14682     14681     14684     14687     14683     14681     14684     14685
     14683     14681     14684     14686     14683     14681     14684     14687
     14684     14687     14690     14691     14684     14687     14690     14692
     14684     14687     14690     14693     14685     14684     14687     14688
     14685     14684     14687     14689     14685     14684     14687     14690
     14686     14684     14687     14688     14686     14684     14687     14689
     14686     14684     14687     14690     14687     14690     14693     14694
     14687     14690     14693     14695     14687     14690     14693     14696
     14688     14687     14690     14691     14688     14687     14690     14692
     14688     14687     14690     14693     14689     14687     14690     14691
     14689     14687     14690     14692     14689     14687     14690     14693
     14690     14693     14696     14697     14690     14693     14696     14698
     14690     14693     14696     14699     14691     14690     14693     14694
     14691     14690     14693     14695     14691     14690     14693     14696
     14692     14690     14693     14694     14692     14690     14693     14695
     14692     14690     14693     14696     14693     14696     14699     14700
     14693     14696     14699     14701     14693     14696     14699     14702
     14694     14693     14696     14697     14694     14693     14696     14698
     14694     14693     14696     14699     14695     14693     14696     14697
     14695     14693     14696     14698     14695     14693     14696     14699
     14696     14699     14702     14703     14696     14699     14702     14704
     14696     14699     14702     14705     14697     14696     14699     14700
     14697     14696     14699     14701     14697     14696     14699     14702
     14698     14696     14699     14700     14698     14696     14699     14701
     14698     14696     14699     14702     14699     14702     14705     14706
     14699     14702     14705     14707     14699     14702     14705     14708
     14700     14699     14702     14703     14700     14699     14702     14704
     14700     14699     14702     14705     14701     14699     14702     14703
     14701     14699     14702     14704     14701     14699     14702     14705
     14702     14705     14708     14709     14702     14705     14708     14710
     14702     14705     14708     14711     14703     14702     14705     14706
     14703     14702     14705     14707     14703     14702     14705     14708
     14704     14702     14705     14706     14704     14702     14705     14707
     14704     14702     14705     14708     14705     14708     14711     14712
     14705     14708     14711     14713     14705     14708     14711     14714
     14706     14705     14708     14709     14706     14705     14708     14710
     14706     14705     14708     14711     14707     14705     14708     14709
     14707     14705     14708     14710     14707     14705     14708     14711
     14708     14711     14714     14715     14708     14711     14714     14716
     14708     14711     14714     14717     14709     14708     14711     14712
     14709     14708     14711     14713     14709     14708     14711     14714
     14710     14708     14711     14712     14710     14708     14711     14713
     14710     14708     14711     14714     14712     14711     14714     14715
     14712     14711     14714     14716     14712     14711     14714     14717
     14713     14711     14714     14715     14713     14711     14714     14716
     14713     14711     14714     14717     14718     14722     14725     14726
     14718     14722     14725     14727     14718     14722     14725     14732
     14719     14718     14722     14723     14719     14718     14722     14724
     14719     14718     14722     14725     14720     14718     14722     14723
     14720     14718     14722     14724     14720     14718     14722     14725
     14721     14718     14722     14723     14721     14718     14722     14724
     14721     14718     14722     14725     14722     14725     14732     14728
     14723     14722     14725     14726     14723     14722     14725     14727
     14723     14722     14725     14732     14724     14722     14725     14726
     14724     14722     14725     14727     14724     14722     14725     14732
     14725     14732     14728     14729     14725     14732     14728     14730
     14725     14732     14728     14731     14726     14725     14732     14728
     14727     14725     14732     14728     14728     14731     14733     14734
     14728     14731     14733     14735     14728     14731     14733     14736
     14729     14728     14731     14733     14730     14728     14731     14733
     14731     14733     14736     14737     14731     14733     14736     14738
     14731     14733     14736     14744     14732     14728     14731     14733
     14733     14736     14738     14739     14733     14736     14744     14745
     14733     14736     14744     14746     14733     14736     14744     14747
     14734     14733     14736     14737     14734     14733     14736     14738
     14734     14733     14736     14744     14735     14733     14736     14737
     14735     14733     14736     14738     14735     14733     14736     14744
     14736     14738     14739     14740     14736     14738     14739     14741
     14736     14744     14747     14748     14737     14736     14738     14739
     14737     14736     14744     14745     14737     14736     14744     14746
     14737     14736     14744     14747     14738     14736     14744     14745
     14738     14736     14744     14746     14738     14736     14744     14747
     14738     14739     14741     14742     14738     14739     14741     14743
     14738     14739     14741     14753     14739     14738     14736     14744
     14739     14741     14753     14754     14739     14741     14753     14755
     14739     14741     14753     14756     14740     14739     14741     14742
     14740     14739     14741     14743     14740     14739     14741     14753
     14741     14753     14756     14757     14741     14753     14756     14758
     14741     14753     14756     14759     14742     14741     14753     14754
     14742     14741     14753     14755     14742     14741     14753     14756
     14743     14741     14753     14754     14743     14741     14753     14755
     14743     14741     14753     14756     14744     14747     14748     14749
     14744     14747     14748     14750     14745     14744     14747     14748
     14746     14744     14747     14748     14747     14748     14750     14751
     14747     14748     14750     14752     14747     14748     14750     14800
     14748     14750     14800     14801     14748     14750     14800     14802
     14748     14750     14800     14803     14749     14748     14750     14751
     14749     14748     14750     14752     14749     14748     14750     14800
     14750     14800     14803     14804     14750     14800     14803     14805
     14750     14800     14803     14806     14751     14750     14800     14801
     14751     14750     14800     14802     14751     14750     14800     14803
     14752     14750     14800     14801     14752     14750     14800     14802
     14752     14750     14800     14803     14753     14756     14759     14760
     14753     14756     14759     14761     14753     14756     14759     14762
     14754     14753     14756     14757     14754     14753     14756     14758
     14754     14753     14756     14759     14755     14753     14756     14757
     14755     14753     14756     14758     14755     14753     14756     14759
     14756     14759     14762     14763     14756     14759     14762     14764
     14756     14759     14762     14765     14757     14756     14759     14760
     14757     14756     14759     14761     14757     14756     14759     14762
     14758     14756     14759     14760     14758     14756     14759     14761
     14758     14756     14759     14762     14759     14762     14765     14766
     14759     14762     14765     14767     14759     14762     14765     14768
     14760     14759     14762     14763     14760     14759     14762     14764
     14760     14759     14762     14765     14761     14759     14762     14763
     14761     14759     14762     14764     14761     14759     14762     14765
     14762     14765     14768     14769     14762     14765     14768     14770
     14762     14765     14768     14771     14763     14762     14765     14766
     14763     14762     14765     14767     14763     14762     14765     14768
     14764     14762     14765     14766     14764     14762     14765     14767
     14764     14762     14765     14768     14765     14768     14771     14772
     14765     14768     14771     14773     14766     14765     14768     14769
     14766     14765     14768     14770     14766     14765     14768     14771
     14767     14765     14768     14769     14767     14765     14768     14770
     14767     14765     14768     14771     14768     14771     14773     14774
     14768     14771     14773     14775     14769     14768     14771     14772
     14769     14768     14771     14773     14770     14768     14771     14772
     14770     14768     14771     14773     14771     14773     14775     14776
     14771     14773     14775     14777     14771     14773     14775     14778
     14772     14771     14773     14774     14772     14771     14773     14775
     14773     14775     14778     14779     14773     14775     14778     14780
     14773     14775     14778     14781     14774     14773     14775     14776
     14774     14773     14775     14777     14774     14773     14775     14778
     14775     14778     14781     14782     14775     14778     14781     14783
     14775     14778     14781     14784     14776     14775     14778     14779
     14776     14775     14778     14780     14776     14775     14778     14781
     14777     14775     14778     14779     14777     14775     14778     14780
     14777     14775     14778     14781     14778     14781     14784     14785
     14778     14781     14784     14786     14778     14781     14784     14787
     14779     14778     14781     14782     14779     14778     14781     14783
     14779     14778     14781     14784     14780     14778     14781     14782
     14780     14778     14781     14783     14780     14778     14781     14784
     14781     14784     14787     14788     14781     14784     14787     14789
     14781     14784     14787     14790     14782     14781     14784     14785
     14782     14781     14784     14786     14782     14781     14784     14787
     14783     14781     14784     14785     14783     14781     14784     14786
     14783     14781     14784     14787     14784     14787     14790     14791
     14784     14787     14790     14792     14784     14787     14790     14793
     14785     14784     14787     14788     14785     14784     14787     14789
     14785     14784     14787     14790     14786     14784     14787     14788
     14786     14784     14787     14789     14786     14784     14787     14790
     14787     14790     14793     14794     14787     14790     14793     14795
     14787     14790     14793     14796     14788     14787     14790     14791
     14788     14787     14790     14792     14788     14787     14790     14793
     14789     14787     14790     14791     14789     14787     14790     14792
     14789     14787     14790     14793     14790     14793     14796     14797
     14790     14793     14796     14798     14790     14793     14796     14799
     14791     14790     14793     14794     14791     14790     14793     14795
     14791     14790     14793     14796     14792     14790     14793     14794
     14792     14790     14793     14795     14792     14790     14793     14796
     14794     14793     14796     14797     14794     14793     14796     14798
     14794     14793     14796     14799     14795     14793     14796     14797
     14795     14793     14796     14798     14795     14793     14796     14799
     14800     14803     14806     14807     14800     14803     14806     14808
     14800     14803     14806     14809     14801     14800     14803     14804
     14801     14800     14803     14805     14801     14800     14803     14806
     14802     14800     14803     14804     14802     14800     14803     14805
     14802     14800     14803     14806     14803     14806     14809     14810
     14803     14806     14809     14811     14803     14806     14809     14812
     14804     14803     14806     14807     14804     14803     14806     14808
     14804     14803     14806     14809     14805     14803     14806     14807
     14805     14803     14806     14808     14805     14803     14806     14809
     14806     14809     14812     14813     14806     14809     14812     14814
     14806     14809     14812     14815     14807     14806     14809     14810
     14807     14806     14809     14811     14807     14806     14809     14812
     14808     14806     14809     14810     14808     14806     14809     14811
     14808     14806     14809     14812     14809     14812     14815     14816
     14809     14812     14815     14817     14809     14812     14815     14818
     14810     14809     14812     14813     14810     14809     14812     14814
     14810     14809     14812     14815     14811     14809     14812     14813
     14811     14809     14812     14814     14811     14809     14812     14815
     14812     14815     14818     14819     14812     14815     14818     14820
     14812     14815     14818     14821     14813     14812     14815     14816
     14813     14812     14815     14817     14813     14812     14815     14818
     14814     14812     14815     14816     14814     14812     14815     14817
     14814     14812     14815     14818     14815     14818     14821     14822
     14815     14818     14821     14823     14815     14818     14821     14824
     14816     14815     14818     14819     14816     14815     14818     14820
     14816     14815     14818     14821     14817     14815     14818     14819
     14817     14815     14818     14820     14817     14815     14818     14821
     14818     14821     14824     14825     14818     14821     14824     14826
     14818     14821     14824     14827     14819     14818     14821     14822
     14819     14818     14821     14823     14819     14818     14821     14824
     14820     14818     14821     14822     14820     14818     14821     14823
     14820     14818     14821     14824     14821     14824     14827     14828
     14821     14824     14827     14829     14821     14824     14827     14830
     14822     14821     14824     14825     14822     14821     14824     14826
     14822     14821     14824     14827     14823     14821     14824     14825
     14823     14821     14824     14826     14823     14821     14824     14827
     14824     14827     14830     14831     14824     14827     14830     14832
     14824     14827     14830     14833     14825     14824     14827     14828
     14825     14824     14827     14829     14825     14824     14827     14830
     14826     14824     14827     14828     14826     14824     14827     14829
     14826     14824     14827     14830     14827     14830     14833     14834
     14827     14830     14833     14835     14827     14830     14833     14836
     14828     14827     14830     14831     14828     14827     14830     14832
     14828     14827     14830     14833     14829     14827     14830     14831
     14829     14827     14830     14832     14829     14827     14830     14833
     14830     14833     14836     14837     14830     14833     14836     14838
     14830     14833     14836     14839     14831     14830     14833     14834
     14831     14830     14833     14835     14831     14830     14833     14836
     14832     14830     14833     14834     14832     14830     14833     14835
     14832     14830     14833     14836     14833     14836     14839     14840
     14833     14836     14839     14841     14833     14836     14839     14842
     14834     14833     14836     14837     14834     14833     14836     14838
     14834     14833     14836     14839     14835     14833     14836     14837
     14835     14833     14836     14838     14835     14833     14836     14839
     14837     14836     14839     14840     14837     14836     14839     14841
     14837     14836     14839     14842     14838     14836     14839     14840
     14838     14836     14839     14841     14838     14836     14839     14842
     14843     14844     14859     14860     14843     14844     14859     14861
     14843     14844     14859     14865     14844     14843     14847     14848
     14844     14843     14847     14849     14844     14843     14847     14850
     14844     14843     14851     14852     14844     14843     14851     14853
     14844     14843     14851     14854     14844     14843     14855     14856
     14844     14843     14855     14857     14844     14843     14855     14858
     14844     14859     14865     14862     14845     14844     14843     14847
     14845     14844     14843     14851     14845     14844     14843     14855
     14845     14844     14859     14860     14845     14844     14859     14861
     14845     14844     14859     14865     14846     14844     14843     14847
     14846     14844     14843     14851     14846     14844     14843     14855
     14846     14844     14859     14860     14846     14844     14859     14861
     14846     14844     14859     14865     14847     14843     14844     14859
     14847     14843     14851     14852     14847     14843     14851     14853
     14847     14843     14851     14854     14847     14843     14855     14856
     14847     14843     14855     14857     14847     14843     14855     14858
     14848     14847     14843     14851     14848     14847     14843     14855
     14849     14847     14843     14851     14849     14847     14843     14855
     14850     14847     14843     14851     14850     14847     14843     14855
     14851     14843     14844     14859     14851     14843     14855     14856
     14851     14843     14855     14857     14851     14843     14855     14858
     14852     14851     14843     14855     14853     14851     14843     14855
     14854     14851     14843     14855     14855     14843     14844     14859
     14859     14865     14862     14863     14859     14865     14862     14864
     14859     14865     14862     14866     14860     14859     14865     14862
     14861     14859     14865     14862     14862     14866     14867     14868
     14862     14866     14867     14869     14862     14866     14867     14870
     14863     14862     14866     14867     14864     14862     14866     14867
     14865     14862     14866     14867     14866     14867     14870     14871
     14866     14867     14870     14872     14866     14867     14870     14878
     14867     14870     14872     14873     14867     14870     14878     14879
     14867     14870     14878     14880     14867     14870     14878     14881
     14868     14867     14870     14871     14868     14867     14870     14872
     14868     14867     14870     14878     14869     14867     14870     14871
     14869     14867     14870     14872     14869     14867     14870     14878
     14870     14872     14873     14874     14870     14872     14873     14875
     14870     14878     14881     14882     14871     14870     14872     14873
     14871     14870     14878     14879     14871     14870     14878     14880
     14871     14870     14878     14881     14872     14870     14878     14879
     14872     14870     14878     14880     14872     14870     14878     14881
     14872     14873     14875     14876     14872     14873     14875     14877
     14872     14873     14875     14887     14873     14872     14870     14878
     14873     14875     14887     14888     14873     14875     14887     14889
     14873     14875     14887     14890     14874     14873     14875     14876
     14874     14873     14875     14877     14874     14873     14875     14887
     14875     14887     14890     14891     14875     14887     14890     14892
     14875     14887     14890     14893     14876     14875     14887     14888
     14876     14875     14887     14889     14876     14875     14887     14890
     14877     14875     14887     14888     14877     14875     14887     14889
     14877     14875     14887     14890     14878     14881     14882     14883
     14878     14881     14882     14884     14879     14878     14881     14882
     14880     14878     14881     14882     14881     14882     14884     14885
     14881     14882     14884     14886     14881     14882     14884     14934
     14882     14884     14934     14935     14882     14884     14934     14936
     14882     14884     14934     14937     14883     14882     14884     14885
     14883     14882     14884     14886     14883     14882     14884     14934
     14884     14934     14937     14938     14884     14934     14937     14939
     14884     14934     14937     14940     14885     14884     14934     14935
     14885     14884     14934     14936     14885     14884     14934     14937
     14886     14884     14934     14935     14886     14884     14934     14936
     14886     14884     14934     14937     14887     14890     14893     14894
     14887     14890     14893     14895     14887     14890     14893     14896
     14888     14887     14890     14891     14888     14887     14890     14892
     14888     14887     14890     14893     14889     14887     14890     14891
     14889     14887     14890     14892     14889     14887     14890     14893
     14890     14893     14896     14897     14890     14893     14896     14898
     14890     14893     14896     14899     14891     14890     14893     14894
     14891     14890     14893     14895     14891     14890     14893     14896
     14892     14890     14893     14894     14892     14890     14893     14895
     14892     14890     14893     14896     14893     14896     14899     14900
     14893     14896     14899     14901     14893     14896     14899     14902
     14894     14893     14896     14897     14894     14893     14896     14898
     14894     14893     14896     14899     14895     14893     14896     14897
     14895     14893     14896     14898     14895     14893     14896     14899
     14896     14899     14902     14903     14896     14899     14902     14904
     14896     14899     14902     14905     14897     14896     14899     14900
     14897     14896     14899     14901     14897     14896     14899     14902
     14898     14896     14899     14900     14898     14896     14899     14901
     14898     14896     14899     14902     14899     14902     14905     14906
     14899     14902     14905     14907     14900     14899     14902     14903
     14900     14899     14902     14904     14900     14899     14902     14905
     14901     14899     14902     14903     14901     14899     14902     14904
     14901     14899     14902     14905     14902     14905     14907     14908
     14902     14905     14907     14909     14903     14902     14905     14906
     14903     14902     14905     14907     14904     14902     14905     14906
     14904     14902     14905     14907     14905     14907     14909     14910
     14905     14907     14909     14911     14905     14907     14909     14912
     14906     14905     14907     14908     14906     14905     14907     14909
     14907     14909     14912     14913     14907     14909     14912     14914
     14907     14909     14912     14915     14908     14907     14909     14910
     14908     14907     14909     14911     14908     14907     14909     14912
     14909     14912     14915     14916     14909     14912     14915     14917
     14909     14912     14915     14918     14910     14909     14912     14913
     14910     14909     14912     14914     14910     14909     14912     14915
     14911     14909     14912     14913     14911     14909     14912     14914
     14911     14909     14912     14915     14912     14915     14918     14919
     14912     14915     14918     14920     14912     14915     14918     14921
     14913     14912     14915     14916     14913     14912     14915     14917
     14913     14912     14915     14918     14914     14912     14915     14916
     14914     14912     14915     14917     14914     14912     14915     14918
     14915     14918     14921     14922     14915     14918     14921     14923
     14915     14918     14921     14924     14916     14915     14918     14919
     14916     14915     14918     14920     14916     14915     14918     14921
     14917     14915     14918     14919     14917     14915     14918     14920
     14917     14915     14918     14921     14918     14921     14924     14925
     14918     14921     14924     14926     14918     14921     14924     14927
     14919     14918     14921     14922     14919     14918     14921     14923
     14919     14918     14921     14924     14920     14918     14921     14922
     14920     14918     14921     14923     14920     14918     14921     14924
     14921     14924     14927     14928     14921     14924     14927     14929
     14921     14924     14927     14930     14922     14921     14924     14925
     14922     14921     14924     14926     14922     14921     14924     14927
     14923     14921     14924     14925     14923     14921     14924     14926
     14923     14921     14924     14927     14924     14927     14930     14931
     14924     14927     14930     14932     14924     14927     14930     14933
     14925     14924     14927     14928     14925     14924     14927     14929
     14925     14924     14927     14930     14926     14924     14927     14928
     14926     14924     14927     14929     14926     14924     14927     14930
     14928     14927     14930     14931     14928     14927     14930     14932
     14928     14927     14930     14933     14929     14927     14930     14931
     14929     14927     14930     14932     14929     14927     14930     14933
     14934     14937     14940     14941     14934     14937     14940     14942
     14934     14937     14940     14943     14935     14934     14937     14938
     14935     14934     14937     14939     14935     14934     14937     14940
     14936     14934     14937     14938     14936     14934     14937     14939
     14936     14934     14937     14940     14937     14940     14943     14944
     14937     14940     14943     14945     14937     14940     14943     14946
     14938     14937     14940     14941     14938     14937     14940     14942
     14938     14937     14940     14943     14939     14937     14940     14941
     14939     14937     14940     14942     14939     14937     14940     14943
     14940     14943     14946     14947     14940     14943     14946     14948
     14940     14943     14946     14949     14941     14940     14943     14944
     14941     14940     14943     14945     14941     14940     14943     14946
     14942     14940     14943     14944     14942     14940     14943     14945
     14942     14940     14943     14946     14943     14946     14949     14950
     14943     14946     14949     14951     14943     14946     14949     14952
     14944     14943     14946     14947     14944     14943     14946     14948
     14944     14943     14946     14949     14945     14943     14946     14947
     14945     14943     14946     14948     14945     14943     14946     14949
     14946     14949     14952     14953     14946     14949     14952     14954
     14946     14949     14952     14955     14947     14946     14949     14950
     14947     14946     14949     14951     14947     14946     14949     14952
     14948     14946     14949     14950     14948     14946     14949     14951
     14948     14946     14949     14952     14949     14952     14955     14956
     14949     14952     14955     14957     14949     14952     14955     14958
     14950     14949     14952     14953     14950     14949     14952     14954
     14950     14949     14952     14955     14951     14949     14952     14953
     14951     14949     14952     14954     14951     14949     14952     14955
     14952     14955     14958     14959     14952     14955     14958     14960
     14952     14955     14958     14961     14953     14952     14955     14956
     14953     14952     14955     14957     14953     14952     14955     14958
     14954     14952     14955     14956     14954     14952     14955     14957
     14954     14952     14955     14958     14955     14958     14961     14962
     14955     14958     14961     14963     14955     14958     14961     14964
     14956     14955     14958     14959     14956     14955     14958     14960
     14956     14955     14958     14961     14957     14955     14958     14959
     14957     14955     14958     14960     14957     14955     14958     14961
     14958     14961     14964     14965     14958     14961     14964     14966
     14958     14961     14964     14967     14959     14958     14961     14962
     14959     14958     14961     14963     14959     14958     14961     14964
     14960     14958     14961     14962     14960     14958     14961     14963
     14960     14958     14961     14964     14961     14964     14967     14968
     14961     14964     14967     14969     14961     14964     14967     14970
     14962     14961     14964     14965     14962     14961     14964     14966
     14962     14961     14964     14967     14963     14961     14964     14965
     14963     14961     14964     14966     14963     14961     14964     14967
     14964     14967     14970     14971     14964     14967     14970     14972
     14964     14967     14970     14973     14965     14964     14967     14968
     14965     14964     14967     14969     14965     14964     14967     14970
     14966     14964     14967     14968     14966     14964     14967     14969
     14966     14964     14967     14970     14967     14970     14973     14974
     14967     14970     14973     14975     14967     14970     14973     14976
     14968     14967     14970     14971     14968     14967     14970     14972
     14968     14967     14970     14973     14969     14967     14970     14971
     14969     14967     14970     14972     14969     14967     14970     14973
     14971     14970     14973     14974     14971     14970     14973     14975
     14971     14970     14973     14976     14972     14970     14973     14974
     14972     14970     14973     14975     14972     14970     14973     14976
     14977     14978     14993     14994     14977     14978     14993     14995
     14977     14978     14993     14999     14978     14977     14981     14982
     14978     14977     14981     14983     14978     14977     14981     14984
     14978     14977     14985     14986     14978     14977     14985     14987
     14978     14977     14985     14988     14978     14977     14989     14990
     14978     14977     14989     14991     14978     14977     14989     14992
     14978     14993     14999     14996     14979     14978     14977     14981
     14979     14978     14977     14985     14979     14978     14977     14989
     14979     14978     14993     14994     14979     14978     14993     14995
     14979     14978     14993     14999     14980     14978     14977     14981
     14980     14978     14977     14985     14980     14978     14977     14989
     14980     14978     14993     14994     14980     14978     14993     14995
     14980     14978     14993     14999     14981     14977     14978     14993
     14981     14977     14985     14986     14981     14977     14985     14987
     14981     14977     14985     14988     14981     14977     14989     14990
     14981     14977     14989     14991     14981     14977     14989     14992
     14982     14981     14977     14985     14982     14981     14977     14989
     14983     14981     14977     14985     14983     14981     14977     14989
     14984     14981     14977     14985     14984     14981     14977     14989
     14985     14977     14978     14993     14985     14977     14989     14990
     14985     14977     14989     14991     14985     14977     14989     14992
     14986     14985     14977     14989     14987     14985     14977     14989
     14988     14985     14977     14989     14989     14977     14978     14993
     14993     14999     14996     14997     14993     14999     14996     14998
     14993     14999     14996     15000     14994     14993     14999     14996
     14995     14993     14999     14996     14996     15000     15001     15002
     14996     15000     15001     15003     14996     15000     15001     15004
     14997     14996     15000     15001     14998     14996     15000     15001
     14999     14996     15000     15001     15000     15001     15004     15005
     15000     15001     15004     15006     15000     15001     15004     15012
     15001     15004     15006     15007     15001     15004     15012     15013
     15001     15004     15012     15014     15001     15004     15012     15015
     15002     15001     15004     15005     15002     15001     15004     15006
     15002     15001     15004     15012     15003     15001     15004     15005
     15003     15001     15004     15006     15003     15001     15004     15012
     15004     15006     15007     15008     15004     15006     15007     15009
     15004     15012     15015     15016     15005     15004     15006     15007
     15005     15004     15012     15013     15005     15004     15012     15014
     15005     15004     15012     15015     15006     15004     15012     15013
     15006     15004     15012     15014     15006     15004     15012     15015
     15006     15007     15009     15010     15006     15007     15009     15011
     15006     15007     15009     15021     15007     15006     15004     15012
     15007     15009     15021     15022     15007     15009     15021     15023
     15007     15009     15021     15024     15008     15007     15009     15010
     15008     15007     15009     15011     15008     15007     15009     15021
     15009     15021     15024     15025     15009     15021     15024     15026
     15009     15021     15024     15027     15010     15009     15021     15022
     15010     15009     15021     15023     15010     15009     15021     15024
     15011     15009     15021     15022     15011     15009     15021     15023
     15011     15009     15021     15024     15012     15015     15016     15017
     15012     15015     15016     15018     15013     15012     15015     15016
     15014     15012     15015     15016     15015     15016     15018     15019
     15015     15016     15018     15020     15015     15016     15018     15068
     15016     15018     15068     15069     15016     15018     15068     15070
     15016     15018     15068     15071     15017     15016     15018     15019
     15017     15016     15018     15020     15017     15016     15018     15068
     15018     15068     15071     15072     15018     15068     15071     15073
     15018     15068     15071     15074     15019     15018     15068     15069
     15019     15018     15068     15070     15019     15018     15068     15071
     15020     15018     15068     15069     15020     15018     15068     15070
     15020     15018     15068     15071     15021     15024     15027     15028
     15021     15024     15027     15029     15021     15024     15027     15030
     15022     15021     15024     15025     15022     15021     15024     15026
     15022     15021     15024     15027     15023     15021     15024     15025
     15023     15021     15024     15026     15023     15021     15024     15027
     15024     15027     15030     15031     15024     15027     15030     15032
     15024     15027     15030     15033     15025     15024     15027     15028
     15025     15024     15027     15029     15025     15024     15027     15030
     15026     15024     15027     15028     15026     15024     15027     15029
     15026     15024     15027     15030     15027     15030     15033     15034
     15027     15030     15033     15035     15027     15030     15033     15036
     15028     15027     15030     15031     15028     15027     15030     15032
     15028     15027     15030     15033     15029     15027     15030     15031
     15029     15027     15030     15032     15029     15027     15030     15033
     15030     15033     15036     15037     15030     15033     15036     15038
     15030     15033     15036     15039     15031     15030     15033     15034
     15031     15030     15033     15035     15031     15030     15033     15036
     15032     15030     15033     15034     15032     15030     15033     15035
     15032     15030     15033     15036     15033     15036     15039     15040
     15033     15036     15039     15041     15034     15033     15036     15037
     15034     15033     15036     15038     15034     15033     15036     15039
     15035     15033     15036     15037     15035     15033     15036     15038
     15035     15033     15036     15039     15036     15039     15041     15042
     15036     15039     15041     15043     15037     15036     15039     15040
     15037     15036     15039     15041     15038     15036     15039     15040
     15038     15036     15039     15041     15039     15041     15043     15044
     15039     15041     15043     15045     15039     15041     15043     15046
     15040     15039     15041     15042     15040     15039     15041     15043
     15041     15043     15046     15047     15041     15043     15046     15048
     15041     15043     15046     15049     15042     15041     15043     15044
     15042     15041     15043     15045     15042     15041     15043     15046
     15043     15046     15049     15050     15043     15046     15049     15051
     15043     15046     15049     15052     15044     15043     15046     15047
     15044     15043     15046     15048     15044     15043     15046     15049
     15045     15043     15046     15047     15045     15043     15046     15048
     15045     15043     15046     15049     15046     15049     15052     15053
     15046     15049     15052     15054     15046     15049     15052     15055
     15047     15046     15049     15050     15047     15046     15049     15051
     15047     15046     15049     15052     15048     15046     15049     15050
     15048     15046     15049     15051     15048     15046     15049     15052
     15049     15052     15055     15056     15049     15052     15055     15057
     15049     15052     15055     15058     15050     15049     15052     15053
     15050     15049     15052     15054     15050     15049     15052     15055
     15051     15049     15052     15053     15051     15049     15052     15054
     15051     15049     15052     15055     15052     15055     15058     15059
     15052     15055     15058     15060     15052     15055     15058     15061
     15053     15052     15055     15056     15053     15052     15055     15057
     15053     15052     15055     15058     15054     15052     15055     15056
     15054     15052     15055     15057     15054     15052     15055     15058
     15055     15058     15061     15062     15055     15058     15061     15063
     15055     15058     15061     15064     15056     15055     15058     15059
     15056     15055     15058     15060     15056     15055     15058     15061
     15057     15055     15058     15059     15057     15055     15058     15060
     15057     15055     15058     15061     15058     15061     15064     15065
     15058     15061     15064     15066     15058     15061     15064     15067
     15059     15058     15061     15062     15059     15058     15061     15063
     15059     15058     15061     15064     15060     15058     15061     15062
     15060     15058     15061     15063     15060     15058     15061     15064
     15062     15061     15064     15065     15062     15061     15064     15066
     15062     15061     15064     15067     15063     15061     15064     15065
     15063     15061     15064     15066     15063     15061     15064     15067
     15068     15071     15074     15075     15068     15071     15074     15076
     15068     15071     15074     15077     15069     15068     15071     15072
     15069     15068     15071     15073     15069     15068     15071     15074
     15070     15068     15071     15072     15070     15068     15071     15073
     15070     15068     15071     15074     15071     15074     15077     15078
     15071     15074     15077     15079     15071     15074     15077     15080
     15072     15071     15074     15075     15072     15071     15074     15076
     15072     15071     15074     15077     15073     15071     15074     15075
     15073     15071     15074     15076     15073     15071     15074     15077
     15074     15077     15080     15081     15074     15077     15080     15082
     15074     15077     15080     15083     15075     15074     15077     15078
     15075     15074     15077     15079     15075     15074     15077     15080
     15076     15074     15077     15078     15076     15074     15077     15079
     15076     15074     15077     15080     15077     15080     15083     15084
     15077     15080     15083     15085     15077     15080     15083     15086
     15078     15077     15080     15081     15078     15077     15080     15082
     15078     15077     15080     15083     15079     15077     15080     15081
     15079     15077     15080     15082     15079     15077     15080     15083
     15080     15083     15086     15087     15080     15083     15086     15088
     15080     15083     15086     15089     15081     15080     15083     15084
     15081     15080     15083     15085     15081     15080     15083     15086
     15082     15080     15083     15084     15082     15080     15083     15085
     15082     15080     15083     15086     15083     15086     15089     15090
     15083     15086     15089     15091     15083     15086     15089     15092
     15084     15083     15086     15087     15084     15083     15086     15088
     15084     15083     15086     15089     15085     15083     15086     15087
     15085     15083     15086     15088     15085     15083     15086     15089
     15086     15089     15092     15093     15086     15089     15092     15094
     15086     15089     15092     15095     15087     15086     15089     15090
     15087     15086     15089     15091     15087     15086     15089     15092
     15088     15086     15089     15090     15088     15086     15089     15091
     15088     15086     15089     15092     15089     15092     15095     15096
     15089     15092     15095     15097     15089     15092     15095     15098
     15090     15089     15092     15093     15090     15089     15092     15094
     15090     15089     15092     15095     15091     15089     15092     15093
     15091     15089     15092     15094     15091     15089     15092     15095
     15092     15095     15098     15099     15092     15095     15098     15100
     15092     15095     15098     15101     15093     15092     15095     15096
     15093     15092     15095     15097     15093     15092     15095     15098
     15094     15092     15095     15096     15094     15092     15095     15097
     15094     15092     15095     15098     15095     15098     15101     15102
     15095     15098     15101     15103     15095     15098     15101     15104
     15096     15095     15098     15099     15096     15095     15098     15100
     15096     15095     15098     15101     15097     15095     15098     15099
     15097     15095     15098     15100     15097     15095     15098     15101
     15098     15101     15104     15105     15098     15101     15104     15106
     15098     15101     15104     15107     15099     15098     15101     15102
     15099     15098     15101     15103     15099     15098     15101     15104
     15100     15098     15101     15102     15100     15098     15101     15103
     15100     15098     15101     15104     15101     15104     15107     15108
     15101     15104     15107     15109     15101     15104     15107     15110
     15102     15101     15104     15105     15102     15101     15104     15106
     15102     15101     15104     15107     15103     15101     15104     15105
     15103     15101     15104     15106     15103     15101     15104     15107
     15105     15104     15107     15108     15105     15104     15107     15109
     15105     15104     15107     15110     15106     15104     15107     15108
     15106     15104     15107     15109     15106     15104     15107     15110
     15111     15115     15118     15119     15111     15115     15118     15120
     15111     15115     15118     15125     15112     15111     15115     15116
     15112     15111     15115     15117     15112     15111     15115     15118
     15113     15111     15115     15116     15113     15111     15115     15117
     15113     15111     15115     15118     15114     15111     15115     15116
     15114     15111     15115     15117     15114     15111     15115     15118
     15115     15118     15125     15121     15116     15115     15118     15119
     15116     15115     15118     15120     15116     15115     15118     15125
     15117     15115     15118     15119     15117     15115     15118     15120
     15117     15115     15118     15125     15118     15125     15121     15122
     15118     15125     15121     15123     15118     15125     15121     15124
     15119     15118     15125     15121     15120     15118     15125     15121
     15121     15124     15126     15127     15121     15124     15126     15128
     15121     15124     15126     15129     15122     15121     15124     15126
     15123     15121     15124     15126     15124     15126     15129     15130
     15124     15126     15129     15131     15124     15126     15129     15137
     15125     15121     15124     15126     15126     15129     15131     15132
     15126     15129     15137     15138     15126     15129     15137     15139
     15126     15129     15137     15140     15127     15126     15129     15130
     15127     15126     15129     15131     15127     15126     15129     15137
     15128     15126     15129     15130     15128     15126     15129     15131
     15128     15126     15129     15137     15129     15131     15132     15133
     15129     15131     15132     15134     15129     15137     15140     15141
     15130     15129     15131     15132     15130     15129     15137     15138
     15130     15129     15137     15139     15130     15129     15137     15140
     15131     15129     15137     15138     15131     15129     15137     15139
     15131     15129     15137     15140     15131     15132     15134     15135
     15131     15132     15134     15136     15131     15132     15134     15146
     15132     15131     15129     15137     15132     15134     15146     15147
     15132     15134     15146     15148     15132     15134     15146     15149
     15133     15132     15134     15135     15133     15132     15134     15136
     15133     15132     15134     15146     15134     15146     15149     15150
     15134     15146     15149     15151     15134     15146     15149     15152
     15135     15134     15146     15147     15135     15134     15146     15148
     15135     15134     15146     15149     15136     15134     15146     15147
     15136     15134     15146     15148     15136     15134     15146     15149
     15137     15140     15141     15142     15137     15140     15141     15143
     15138     15137     15140     15141     15139     15137     15140     15141
     15140     15141     15143     15144     15140     15141     15143     15145
     15140     15141     15143     15193     15141     15143     15193     15194
     15141     15143     15193     15195     15141     15143     15193     15196
     15142     15141     15143     15144     15142     15141     15143     15145
     15142     15141     15143     15193     15143     15193     15196     15197
     15143     15193     15196     15198     15143     15193     15196     15199
     15144     15143     15193     15194     15144     15143     15193     15195
     15144     15143     15193     15196     15145     15143     15193     15194
     15145     15143     15193     15195     15145     15143     15193     15196
     15146     15149     15152     15153     15146     15149     15152     15154
     15146     15149     15152     15155     15147     15146     15149     15150
     15147     15146     15149     15151     15147     15146     15149     15152
     15148     15146     15149     15150     15148     15146     15149     15151
     15148     15146     15149     15152     15149     15152     15155     15156
     15149     15152     15155     15157     15149     15152     15155     15158
     15150     15149     15152     15153     15150     15149     15152     15154
     15150     15149     15152     15155     15151     15149     15152     15153
     15151     15149     15152     15154     15151     15149     15152     15155
     15152     15155     15158     15159     15152     15155     15158     15160
     15152     15155     15158     15161     15153     15152     15155     15156
     15153     15152     15155     15157     15153     15152     15155     15158
     15154     15152     15155     15156     15154     15152     15155     15157
     15154     15152     15155     15158     15155     15158     15161     15162
     15155     15158     15161     15163     15155     15158     15161     15164
     15156     15155     15158     15159     15156     15155     15158     15160
     15156     15155     15158     15161     15157     15155     15158     15159
     15157     15155     15158     15160     15157     15155     15158     15161
     15158     15161     15164     15165     15158     15161     15164     15166
     15159     15158     15161     15162     15159     15158     15161     15163
     15159     15158     15161     15164     15160     15158     15161     15162
     15160     15158     15161     15163     15160     15158     15161     15164
     15161     15164     15166     15167     15161     15164     15166     15168
     15162     15161     15164     15165     15162     15161     15164     15166
     15163     15161     15164     15165     15163     15161     15164     15166
     15164     15166     15168     15169     15164     15166     15168     15170
     15164     15166     15168     15171     15165     15164     15166     15167
     15165     15164     15166     15168     15166     15168     15171     15172
     15166     15168     15171     15173     15166     15168     15171     15174
     15167     15166     15168     15169     15167     15166     15168     15170
     15167     15166     15168     15171     15168     15171     15174     15175
     15168     15171     15174     15176     15168     15171     15174     15177
     15169     15168     15171     15172     15169     15168     15171     15173
     15169     15168     15171     15174     15170     15168     15171     15172
     15170     15168     15171     15173     15170     15168     15171     15174
     15171     15174     15177     15178     15171     15174     15177     15179
     15171     15174     15177     15180     15172     15171     15174     15175
     15172     15171     15174     15176     15172     15171     15174     15177
     15173     15171     15174     15175     15173     15171     15174     15176
     15173     15171     15174     15177     15174     15177     15180     15181
     15174     15177     15180     15182     15174     15177     15180     15183
     15175     15174     15177     15178     15175     15174     15177     15179
     15175     15174     15177     15180     15176     15174     15177     15178
     15176     15174     15177     15179     15176     15174     15177     15180
     15177     15180     15183     15184     15177     15180     15183     15185
     15177     15180     15183     15186     15178     15177     15180     15181
     15178     15177     15180     15182     15178     15177     15180     15183
     15179     15177     15180     15181     15179     15177     15180     15182
     15179     15177     15180     15183     15180     15183     15186     15187
     15180     15183     15186     15188     15180     15183     15186     15189
     15181     15180     15183     15184     15181     15180     15183     15185
     15181     15180     15183     15186     15182     15180     15183     15184
     15182     15180     15183     15185     15182     15180     15183     15186
     15183     15186     15189     15190     15183     15186     15189     15191
     15183     15186     15189     15192     15184     15183     15186     15187
     15184     15183     15186     15188     15184     15183     15186     15189
     15185     15183     15186     15187     15185     15183     15186     15188
     15185     15183     15186     15189     15187     15186     15189     15190
     15187     15186     15189     15191     15187     15186     15189     15192
     15188     15186     15189     15190     15188     15186     15189     15191
     15188     15186     15189     15192     15193     15196     15199     15200
     15193     15196     15199     15201     15193     15196     15199     15202
     15194     15193     15196     15197     15194     15193     15196     15198
     15194     15193     15196     15199     15195     15193     15196     15197
     15195     15193     15196     15198     15195     15193     15196     15199
     15196     15199     15202     15203     15196     15199     15202     15204
     15196     15199     15202     15205     15197     15196     15199     15200
     15197     15196     15199     15201     15197     15196     15199     15202
     15198     15196     15199     15200     15198     15196     15199     15201
     15198     15196     15199     15202     15199     15202     15205     15206
     15199     15202     15205     15207     15199     15202     15205     15208
     15200     15199     15202     15203     15200     15199     15202     15204
     15200     15199     15202     15205     15201     15199     15202     15203
     15201     15199     15202     15204     15201     15199     15202     15205
     15202     15205     15208     15209     15202     15205     15208     15210
     15202     15205     15208     15211     15203     15202     15205     15206
     15203     15202     15205     15207     15203     15202     15205     15208
     15204     15202     15205     15206     15204     15202     15205     15207
     15204     15202     15205     15208     15205     15208     15211     15212
     15205     15208     15211     15213     15205     15208     15211     15214
     15206     15205     15208     15209     15206     15205     15208     15210
     15206     15205     15208     15211     15207     15205     15208     15209
     15207     15205     15208     15210     15207     15205     15208     15211
     15208     15211     15214     15215     15208     15211     15214     15216
     15208     15211     15214     15217     15209     15208     15211     15212
     15209     15208     15211     15213     15209     15208     15211     15214
     15210     15208     15211     15212     15210     15208     15211     15213
     15210     15208     15211     15214     15211     15214     15217     15218
     15211     15214     15217     15219     15211     15214     15217     15220
     15212     15211     15214     15215     15212     15211     15214     15216
     15212     15211     15214     15217     15213     15211     15214     15215
     15213     15211     15214     15216     15213     15211     15214     15217
     15214     15217     15220     15221     15214     15217     15220     15222
     15214     15217     15220     15223     15215     15214     15217     15218
     15215     15214     15217     15219     15215     15214     15217     15220
     15216     15214     15217     15218     15216     15214     15217     15219
     15216     15214     15217     15220     15217     15220     15223     15224
     15217     15220     15223     15225     15217     15220     15223     15226
     15218     15217     15220     15221     15218     15217     15220     15222
     15218     15217     15220     15223     15219     15217     15220     15221
     15219     15217     15220     15222     15219     15217     15220     15223
     15220     15223     15226     15227     15220     15223     15226     15228
     15220     15223     15226     15229     15221     15220     15223     15224
     15221     15220     15223     15225     15221     15220     15223     15226
     15222     15220     15223     15224     15222     15220     15223     15225
     15222     15220     15223     15226     15223     15226     15229     15230
     15223     15226     15229     15231     15223     15226     15229     15232
     15224     15223     15226     15227     15224     15223     15226     15228
     15224     15223     15226     15229     15225     15223     15226     15227
     15225     15223     15226     15228     15225     15223     15226     15229
     15226     15229     15232     15233     15226     15229     15232     15234
     15226     15229     15232     15235     15227     15226     15229     15230
     15227     15226     15229     15231     15227     15226     15229     15232
     15228     15226     15229     15230     15228     15226     15229     15231
     15228     15226     15229     15232     15230     15229     15232     15233
     15230     15229     15232     15234     15230     15229     15232     15235
     15231     15229     15232     15233     15231     15229     15232     15234
     15231     15229     15232     15235     15236     15240     15243     15244
     15236     15240     15243     15245     15236     15240     15243     15250
     15237     15236     15240     15241     15237     15236     15240     15242
     15237     15236     15240     15243     15238     15236     15240     15241
     15238     15236     15240     15242     15238     15236     15240     15243
     15239     15236     15240     15241     15239     15236     15240     15242
     15239     15236     15240     15243     15240     15243     15250     15246
     15241     15240     15243     15244     15241     15240     15243     15245
     15241     15240     15243     15250     15242     15240     15243     15244
     15242     15240     15243     15245     15242     15240     15243     15250
     15243     15250     15246     15247     15243     15250     15246     15248
     15243     15250     15246     15249     15244     15243     15250     15246
     15245     15243     15250     15246     15246     15249     15251     15252
     15246     15249     15251     15253     15246     15249     15251     15254
     15247     15246     15249     15251     15248     15246     15249     15251
     15249     15251     15254     15255     15249     15251     15254     15256
     15249     15251     15254     15262     15250     15246     15249     15251
     15251     15254     15256     15257     15251     15254     15262     15263
     15251     15254     15262     15264     15251     15254     15262     15265
     15252     15251     15254     15255     15252     15251     15254     15256
     15252     15251     15254     15262     15253     15251     15254     15255
     15253     15251     15254     15256     15253     15251     15254     15262
     15254     15256     15257     15258     15254     15256     15257     15259
     15254     15262     15265     15266     15255     15254     15256     15257
     15255     15254     15262     15263     15255     15254     15262     15264
     15255     15254     15262     15265     15256     15254     15262     15263
     15256     15254     15262     15264     15256     15254     15262     15265
     15256     15257     15259     15260     15256     15257     15259     15261
     15256     15257     15259     15271     15257     15256     15254     15262
     15257     15259     15271     15272     15257     15259     15271     15273
     15257     15259     15271     15274     15258     15257     15259     15260
     15258     15257     15259     15261     15258     15257     15259     15271
     15259     15271     15274     15275     15259     15271     15274     15276
     15259     15271     15274     15277     15260     15259     15271     15272
     15260     15259     15271     15273     15260     15259     15271     15274
     15261     15259     15271     15272     15261     15259     15271     15273
     15261     15259     15271     15274     15262     15265     15266     15267
     15262     15265     15266     15268     15263     15262     15265     15266
     15264     15262     15265     15266     15265     15266     15268     15269
     15265     15266     15268     15270     15265     15266     15268     15318
     15266     15268     15318     15319     15266     15268     15318     15320
     15266     15268     15318     15321     15267     15266     15268     15269
     15267     15266     15268     15270     15267     15266     15268     15318
     15268     15318     15321     15322     15268     15318     15321     15323
     15268     15318     15321     15324     15269     15268     15318     15319
     15269     15268     15318     15320     15269     15268     15318     15321
     15270     15268     15318     15319     15270     15268     15318     15320
     15270     15268     15318     15321     15271     15274     15277     15278
     15271     15274     15277     15279     15271     15274     15277     15280
     15272     15271     15274     15275     15272     15271     15274     15276
     15272     15271     15274     15277     15273     15271     15274     15275
     15273     15271     15274     15276     15273     15271     15274     15277
     15274     15277     15280     15281     15274     15277     15280     15282
     15274     15277     15280     15283     15275     15274     15277     15278
     15275     15274     15277     15279     15275     15274     15277     15280
     15276     15274     15277     15278     15276     15274     15277     15279
     15276     15274     15277     15280     15277     15280     15283     15284
     15277     15280     15283     15285     15277     15280     15283     15286
     15278     15277     15280     15281     15278     15277     15280     15282
     15278     15277     15280     15283     15279     15277     15280     15281
     15279     15277     15280     15282     15279     15277     15280     15283
     15280     15283     15286     15287     15280     15283     15286     15288
     15280     15283     15286     15289     15281     15280     15283     15284
     15281     15280     15283     15285     15281     15280     15283     15286
     15282     15280     15283     15284     15282     15280     15283     15285
     15282     15280     15283     15286     15283     15286     15289     15290
     15283     15286     15289     15291     15284     15283     15286     15287
     15284     15283     15286     15288     15284     15283     15286     15289
     15285     15283     15286     15287     15285     15283     15286     15288
     15285     15283     15286     15289     15286     15289     15291     15292
     15286     15289     15291     15293     15287     15286     15289     15290
     15287     15286     15289     15291     15288     15286     15289     15290
     15288     15286     15289     15291     15289     15291     15293     15294
     15289     15291     15293     15295     15289     15291     15293     15296
     15290     15289     15291     15292     15290     15289     15291     15293
     15291     15293     15296     15297     15291     15293     15296     15298
     15291     15293     15296     15299     15292     15291     15293     15294
     15292     15291     15293     15295     15292     15291     15293     15296
     15293     15296     15299     15300     15293     15296     15299     15301
     15293     15296     15299     15302     15294     15293     15296     15297
     15294     15293     15296     15298     15294     15293     15296     15299
     15295     15293     15296     15297     15295     15293     15296     15298
     15295     15293     15296     15299     15296     15299     15302     15303
     15296     15299     15302     15304     15296     15299     15302     15305
     15297     15296     15299     15300     15297     15296     15299     15301
     15297     15296     15299     15302     15298     15296     15299     15300
     15298     15296     15299     15301     15298     15296     15299     15302
     15299     15302     15305     15306     15299     15302     15305     15307
     15299     15302     15305     15308     15300     15299     15302     15303
     15300     15299     15302     15304     15300     15299     15302     15305
     15301     15299     15302     15303     15301     15299     15302     15304
     15301     15299     15302     15305     15302     15305     15308     15309
     15302     15305     15308     15310     15302     15305     15308     15311
     15303     15302     15305     15306     15303     15302     15305     15307
     15303     15302     15305     15308     15304     15302     15305     15306
     15304     15302     15305     15307     15304     15302     15305     15308
     15305     15308     15311     15312     15305     15308     15311     15313
     15305     15308     15311     15314     15306     15305     15308     15309
     15306     15305     15308     15310     15306     15305     15308     15311
     15307     15305     15308     15309     15307     15305     15308     15310
     15307     15305     15308     15311     15308     15311     15314     15315
     15308     15311     15314     15316     15308     15311     15314     15317
     15309     15308     15311     15312     15309     15308     15311     15313
     15309     15308     15311     15314     15310     15308     15311     15312
     15310     15308     15311     15313     15310     15308     15311     15314
     15312     15311     15314     15315     15312     15311     15314     15316
     15312     15311     15314     15317     15313     15311     15314     15315
     15313     15311     15314     15316     15313     15311     15314     15317
     15318     15321     15324     15325     15318     15321     15324     15326
     15318     15321     15324     15327     15319     15318     15321     15322
     15319     15318     15321     15323     15319     15318     15321     15324
     15320     15318     15321     15322     15320     15318     15321     15323
     15320     15318     15321     15324     15321     15324     15327     15328
     15321     15324     15327     15329     15321     15324     15327     15330
     15322     15321     15324     15325     15322     15321     15324     15326
     15322     15321     15324     15327     15323     15321     15324     15325
     15323     15321     15324     15326     15323     15321     15324     15327
     15324     15327     15330     15331     15324     15327     15330     15332
     15324     15327     15330     15333     15325     15324     15327     15328
     15325     15324     15327     15329     15325     15324     15327     15330
     15326     15324     15327     15328     15326     15324     15327     15329
     15326     15324     15327     15330     15327     15330     15333     15334
     15327     15330     15333     15335     15327     15330     15333     15336
     15328     15327     15330     15331     15328     15327     15330     15332
     15328     15327     15330     15333     15329     15327     15330     15331
     15329     15327     15330     15332     15329     15327     15330     15333
     15330     15333     15336     15337     15330     15333     15336     15338
     15330     15333     15336     15339     15331     15330     15333     15334
     15331     15330     15333     15335     15331     15330     15333     15336
     15332     15330     15333     15334     15332     15330     15333     15335
     15332     15330     15333     15336     15333     15336     15339     15340
     15333     15336     15339     15341     15333     15336     15339     15342
     15334     15333     15336     15337     15334     15333     15336     15338
     15334     15333     15336     15339     15335     15333     15336     15337
     15335     15333     15336     15338     15335     15333     15336     15339
     15336     15339     15342     15343     15336     15339     15342     15344
     15336     15339     15342     15345     15337     15336     15339     15340
     15337     15336     15339     15341     15337     15336     15339     15342
     15338     15336     15339     15340     15338     15336     15339     15341
     15338     15336     15339     15342     15339     15342     15345     15346
     15339     15342     15345     15347     15339     15342     15345     15348
     15340     15339     15342     15343     15340     15339     15342     15344
     15340     15339     15342     15345     15341     15339     15342     15343
     15341     15339     15342     15344     15341     15339     15342     15345
     15342     15345     15348     15349     15342     15345     15348     15350
     15342     15345     15348     15351     15343     15342     15345     15346
     15343     15342     15345     15347     15343     15342     15345     15348
     15344     15342     15345     15346     15344     15342     15345     15347
     15344     15342     15345     15348     15345     15348     15351     15352
     15345     15348     15351     15353     15345     15348     15351     15354
     15346     15345     15348     15349     15346     15345     15348     15350
     15346     15345     15348     15351     15347     15345     15348     15349
     15347     15345     15348     15350     15347     15345     15348     15351
     15348     15351     15354     15355     15348     15351     15354     15356
     15348     15351     15354     15357     15349     15348     15351     15352
     15349     15348     15351     15353     15349     15348     15351     15354
     15350     15348     15351     15352     15350     15348     15351     15353
     15350     15348     15351     15354     15351     15354     15357     15358
     15351     15354     15357     15359     15351     15354     15357     15360
     15352     15351     15354     15355     15352     15351     15354     15356
     15352     15351     15354     15357     15353     15351     15354     15355
     15353     15351     15354     15356     15353     15351     15354     15357
     15355     15354     15357     15358     15355     15354     15357     15359
     15355     15354     15357     15360     15356     15354     15357     15358
     15356     15354     15357     15359     15356     15354     15357     15360
     15361     15365     15368     15369     15361     15365     15368     15370
     15361     15365     15368     15375     15362     15361     15365     15366
     15362     15361     15365     15367     15362     15361     15365     15368
     15363     15361     15365     15366     15363     15361     15365     15367
     15363     15361     15365     15368     15364     15361     15365     15366
     15364     15361     15365     15367     15364     15361     15365     15368
     15365     15368     15375     15371     15366     15365     15368     15369
     15366     15365     15368     15370     15366     15365     15368     15375
     15367     15365     15368     15369     15367     15365     15368     15370
     15367     15365     15368     15375     15368     15375     15371     15372
     15368     15375     15371     15373     15368     15375     15371     15374
     15369     15368     15375     15371     15370     15368     15375     15371
     15371     15374     15376     15377     15371     15374     15376     15378
     15371     15374     15376     15379     15372     15371     15374     15376
     15373     15371     15374     15376     15374     15376     15379     15380
     15374     15376     15379     15381     15374     15376     15379     15387
     15375     15371     15374     15376     15376     15379     15381     15382
     15376     15379     15387     15388     15376     15379     15387     15389
     15376     15379     15387     15390     15377     15376     15379     15380
     15377     15376     15379     15381     15377     15376     15379     15387
     15378     15376     15379     15380     15378     15376     15379     15381
     15378     15376     15379     15387     15379     15381     15382     15383
     15379     15381     15382     15384     15379     15387     15390     15391
     15380     15379     15381     15382     15380     15379     15387     15388
     15380     15379     15387     15389     15380     15379     15387     15390
     15381     15379     15387     15388     15381     15379     15387     15389
     15381     15379     15387     15390     15381     15382     15384     15385
     15381     15382     15384     15386     15381     15382     15384     15396
     15382     15381     15379     15387     15382     15384     15396     15397
     15382     15384     15396     15398     15382     15384     15396     15399
     15383     15382     15384     15385     15383     15382     15384     15386
     15383     15382     15384     15396     15384     15396     15399     15400
     15384     15396     15399     15401     15384     15396     15399     15402
     15385     15384     15396     15397     15385     15384     15396     15398
     15385     15384     15396     15399     15386     15384     15396     15397
     15386     15384     15396     15398     15386     15384     15396     15399
     15387     15390     15391     15392     15387     15390     15391     15393
     15388     15387     15390     15391     15389     15387     15390     15391
     15390     15391     15393     15394     15390     15391     15393     15395
     15390     15391     15393     15443     15391     15393     15443     15444
     15391     15393     15443     15445     15391     15393     15443     15446
     15392     15391     15393     15394     15392     15391     15393     15395
     15392     15391     15393     15443     15393     15443     15446     15447
     15393     15443     15446     15448     15393     15443     15446     15449
     15394     15393     15443     15444     15394     15393     15443     15445
     15394     15393     15443     15446     15395     15393     15443     15444
     15395     15393     15443     15445     15395     15393     15443     15446
     15396     15399     15402     15403     15396     15399     15402     15404
     15396     15399     15402     15405     15397     15396     15399     15400
     15397     15396     15399     15401     15397     15396     15399     15402
     15398     15396     15399     15400     15398     15396     15399     15401
     15398     15396     15399     15402     15399     15402     15405     15406
     15399     15402     15405     15407     15399     15402     15405     15408
     15400     15399     15402     15403     15400     15399     15402     15404
     15400     15399     15402     15405     15401     15399     15402     15403
     15401     15399     15402     15404     15401     15399     15402     15405
     15402     15405     15408     15409     15402     15405     15408     15410
     15402     15405     15408     15411     15403     15402     15405     15406
     15403     15402     15405     15407     15403     15402     15405     15408
     15404     15402     15405     15406     15404     15402     15405     15407
     15404     15402     15405     15408     15405     15408     15411     15412
     15405     15408     15411     15413     15405     15408     15411     15414
     15406     15405     15408     15409     15406     15405     15408     15410
     15406     15405     15408     15411     15407     15405     15408     15409
     15407     15405     15408     15410     15407     15405     15408     15411
     15408     15411     15414     15415     15408     15411     15414     15416
     15409     15408     15411     15412     15409     15408     15411     15413
     15409     15408     15411     15414     15410     15408     15411     15412
     15410     15408     15411     15413     15410     15408     15411     15414
     15411     15414     15416     15417     15411     15414     15416     15418
     15412     15411     15414     15415     15412     15411     15414     15416
     15413     15411     15414     15415     15413     15411     15414     15416
     15414     15416     15418     15419     15414     15416     15418     15420
     15414     15416     15418     15421     15415     15414     15416     15417
     15415     15414     15416     15418     15416     15418     15421     15422
     15416     15418     15421     15423     15416     15418     15421     15424
     15417     15416     15418     15419     15417     15416     15418     15420
     15417     15416     15418     15421     15418     15421     15424     15425
     15418     15421     15424     15426     15418     15421     15424     15427
     15419     15418     15421     15422     15419     15418     15421     15423
     15419     15418     15421     15424     15420     15418     15421     15422
     15420     15418     15421     15423     15420     15418     15421     15424
     15421     15424     15427     15428     15421     15424     15427     15429
     15421     15424     15427     15430     15422     15421     15424     15425
     15422     15421     15424     15426     15422     15421     15424     15427
     15423     15421     15424     15425     15423     15421     15424     15426
     15423     15421     15424     15427     15424     15427     15430     15431
     15424     15427     15430     15432     15424     15427     15430     15433
     15425     15424     15427     15428     15425     15424     15427     15429
     15425     15424     15427     15430     15426     15424     15427     15428
     15426     15424     15427     15429     15426     15424     15427     15430
     15427     15430     15433     15434     15427     15430     15433     15435
     15427     15430     15433     15436     15428     15427     15430     15431
     15428     15427     15430     15432     15428     15427     15430     15433
     15429     15427     15430     15431     15429     15427     15430     15432
     15429     15427     15430     15433     15430     15433     15436     15437
     15430     15433     15436     15438     15430     15433     15436     15439
     15431     15430     15433     15434     15431     15430     15433     15435
     15431     15430     15433     15436     15432     15430     15433     15434
     15432     15430     15433     15435     15432     15430     15433     15436
     15433     15436     15439     15440     15433     15436     15439     15441
     15433     15436     15439     15442     15434     15433     15436     15437
     15434     15433     15436     15438     15434     15433     15436     15439
     15435     15433     15436     15437     15435     15433     15436     15438
     15435     15433     15436     15439     15437     15436     15439     15440
     15437     15436     15439     15441     15437     15436     15439     15442
     15438     15436     15439     15440     15438     15436     15439     15441
     15438     15436     15439     15442     15443     15446     15449     15450
     15443     15446     15449     15451     15443     15446     15449     15452
     15444     15443     15446     15447     15444     15443     15446     15448
     15444     15443     15446     15449     15445     15443     15446     15447
     15445     15443     15446     15448     15445     15443     15446     15449
     15446     15449     15452     15453     15446     15449     15452     15454
     15446     15449     15452     15455     15447     15446     15449     15450
     15447     15446     15449     15451     15447     15446     15449     15452
     15448     15446     15449     15450     15448     15446     15449     15451
     15448     15446     15449     15452     15449     15452     15455     15456
     15449     15452     15455     15457     15449     15452     15455     15458
     15450     15449     15452     15453     15450     15449     15452     15454
     15450     15449     15452     15455     15451     15449     15452     15453
     15451     15449     15452     15454     15451     15449     15452     15455
     15452     15455     15458     15459     15452     15455     15458     15460
     15452     15455     15458     15461     15453     15452     15455     15456
     15453     15452     15455     15457     15453     15452     15455     15458
     15454     15452     15455     15456     15454     15452     15455     15457
     15454     15452     15455     15458     15455     15458     15461     15462
     15455     15458     15461     15463     15455     15458     15461     15464
     15456     15455     15458     15459     15456     15455     15458     15460
     15456     15455     15458     15461     15457     15455     15458     15459
     15457     15455     15458     15460     15457     15455     15458     15461
     15458     15461     15464     15465     15458     15461     15464     15466
     15458     15461     15464     15467     15459     15458     15461     15462
     15459     15458     15461     15463     15459     15458     15461     15464
     15460     15458     15461     15462     15460     15458     15461     15463
     15460     15458     15461     15464     15461     15464     15467     15468
     15461     15464     15467     15469     15461     15464     15467     15470
     15462     15461     15464     15465     15462     15461     15464     15466
     15462     15461     15464     15467     15463     15461     15464     15465
     15463     15461     15464     15466     15463     15461     15464     15467
     15464     15467     15470     15471     15464     15467     15470     15472
     15464     15467     15470     15473     15465     15464     15467     15468
     15465     15464     15467     15469     15465     15464     15467     15470
     15466     15464     15467     15468     15466     15464     15467     15469
     15466     15464     15467     15470     15467     15470     15473     15474
     15467     15470     15473     15475     15467     15470     15473     15476
     15468     15467     15470     15471     15468     15467     15470     15472
     15468     15467     15470     15473     15469     15467     15470     15471
     15469     15467     15470     15472     15469     15467     15470     15473
     15470     15473     15476     15477     15470     15473     15476     15478
     15470     15473     15476     15479     15471     15470     15473     15474
     15471     15470     15473     15475     15471     15470     15473     15476
     15472     15470     15473     15474     15472     15470     15473     15475
     15472     15470     15473     15476     15473     15476     15479     15480
     15473     15476     15479     15481     15473     15476     15479     15482
     15474     15473     15476     15477     15474     15473     15476     15478
     15474     15473     15476     15479     15475     15473     15476     15477
     15475     15473     15476     15478     15475     15473     15476     15479
     15476     15479     15482     15483     15476     15479     15482     15484
     15476     15479     15482     15485     15477     15476     15479     15480
     15477     15476     15479     15481     15477     15476     15479     15482
     15478     15476     15479     15480     15478     15476     15479     15481
     15478     15476     15479     15482     15480     15479     15482     15483
     15480     15479     15482     15484     15480     15479     15482     15485
     15481     15479     15482     15483     15481     15479     15482     15484
     15481     15479     15482     15485     15486     15487     15502     15503
     15486     15487     15502     15504     15486     15487     15502     15508
     15487     15486     15490     15491     15487     15486     15490     15492
     15487     15486     15490     15493     15487     15486     15494     15495
     15487     15486     15494     15496     15487     15486     15494     15497
     15487     15486     15498     15499     15487     15486     15498     15500
     15487     15486     15498     15501     15487     15502     15508     15505
     15488     15487     15486     15490     15488     15487     15486     15494
     15488     15487     15486     15498     15488     15487     15502     15503
     15488     15487     15502     15504     15488     15487     15502     15508
     15489     15487     15486     15490     15489     15487     15486     15494
     15489     15487     15486     15498     15489     15487     15502     15503
     15489     15487     15502     15504     15489     15487     15502     15508
     15490     15486     15487     15502     15490     15486     15494     15495
     15490     15486     15494     15496     15490     15486     15494     15497
     15490     15486     15498     15499     15490     15486     15498     15500
     15490     15486     15498     15501     15491     15490     15486     15494
     15491     15490     15486     15498     15492     15490     15486     15494
     15492     15490     15486     15498     15493     15490     15486     15494
     15493     15490     15486     15498     15494     15486     15487     15502
     15494     15486     15498     15499     15494     15486     15498     15500
     15494     15486     15498     15501     15495     15494     15486     15498
     15496     15494     15486     15498     15497     15494     15486     15498
     15498     15486     15487     15502     15502     15508     15505     15506
     15502     15508     15505     15507     15502     15508     15505     15509
     15503     15502     15508     15505     15504     15502     15508     15505
     15505     15509     15510     15511     15505     15509     15510     15512
     15505     15509     15510     15513     15506     15505     15509     15510
     15507     15505     15509     15510     15508     15505     15509     15510
     15509     15510     15513     15514     15509     15510     15513     15515
     15509     15510     15513     15521     15510     15513     15515     15516
     15510     15513     15521     15522     15510     15513     15521     15523
     15510     15513     15521     15524     15511     15510     15513     15514
     15511     15510     15513     15515     15511     15510     15513     15521
     15512     15510     15513     15514     15512     15510     15513     15515
     15512     15510     15513     15521     15513     15515     15516     15517
     15513     15515     15516     15518     15513     15521     15524     15525
     15514     15513     15515     15516     15514     15513     15521     15522
     15514     15513     15521     15523     15514     15513     15521     15524
     15515     15513     15521     15522     15515     15513     15521     15523
     15515     15513     15521     15524     15515     15516     15518     15519
     15515     15516     15518     15520     15515     15516     15518     15530
     15516     15515     15513     15521     15516     15518     15530     15531
     15516     15518     15530     15532     15516     15518     15530     15533
     15517     15516     15518     15519     15517     15516     15518     15520
     15517     15516     15518     15530     15518     15530     15533     15534
     15518     15530     15533     15535     15518     15530     15533     15536
     15519     15518     15530     15531     15519     15518     15530     15532
     15519     15518     15530     15533     15520     15518     15530     15531
     15520     15518     15530     15532     15520     15518     15530     15533
     15521     15524     15525     15526     15521     15524     15525     15527
     15522     15521     15524     15525     15523     15521     15524     15525
     15524     15525     15527     15528     15524     15525     15527     15529
     15524     15525     15527     15577     15525     15527     15577     15578
     15525     15527     15577     15579     15525     15527     15577     15580
     15526     15525     15527     15528     15526     15525     15527     15529
     15526     15525     15527     15577     15527     15577     15580     15581
     15527     15577     15580     15582     15527     15577     15580     15583
     15528     15527     15577     15578     15528     15527     15577     15579
     15528     15527     15577     15580     15529     15527     15577     15578
     15529     15527     15577     15579     15529     15527     15577     15580
     15530     15533     15536     15537     15530     15533     15536     15538
     15530     15533     15536     15539     15531     15530     15533     15534
     15531     15530     15533     15535     15531     15530     15533     15536
     15532     15530     15533     15534     15532     15530     15533     15535
     15532     15530     15533     15536     15533     15536     15539     15540
     15533     15536     15539     15541     15533     15536     15539     15542
     15534     15533     15536     15537     15534     15533     15536     15538
     15534     15533     15536     15539     15535     15533     15536     15537
     15535     15533     15536     15538     15535     15533     15536     15539
     15536     15539     15542     15543     15536     15539     15542     15544
     15536     15539     15542     15545     15537     15536     15539     15540
     15537     15536     15539     15541     15537     15536     15539     15542
     15538     15536     15539     15540     15538     15536     15539     15541
     15538     15536     15539     15542     15539     15542     15545     15546
     15539     15542     15545     15547     15539     15542     15545     15548
     15540     15539     15542     15543     15540     15539     15542     15544
     15540     15539     15542     15545     15541     15539     15542     15543
     15541     15539     15542     15544     15541     15539     15542     15545
     15542     15545     15548     15549     15542     15545     15548     15550
     15543     15542     15545     15546     15543     15542     15545     15547
     15543     15542     15545     15548     15544     15542     15545     15546
     15544     15542     15545     15547     15544     15542     15545     15548
     15545     15548     15550     15551     15545     15548     15550     15552
     15546     15545     15548     15549     15546     15545     15548     15550
     15547     15545     15548     15549     15547     15545     15548     15550
     15548     15550     15552     15553     15548     15550     15552     15554
     15548     15550     15552     15555     15549     15548     15550     15551
     15549     15548     15550     15552     15550     15552     15555     15556
     15550     15552     15555     15557     15550     15552     15555     15558
     15551     15550     15552     15553     15551     15550     15552     15554
     15551     15550     15552     15555     15552     15555     15558     15559
     15552     15555     15558     15560     15552     15555     15558     15561
     15553     15552     15555     15556     15553     15552     15555     15557
     15553     15552     15555     15558     15554     15552     15555     15556
     15554     15552     15555     15557     15554     15552     15555     15558
     15555     15558     15561     15562     15555     15558     15561     15563
     15555     15558     15561     15564     15556     15555     15558     15559
     15556     15555     15558     15560     15556     15555     15558     15561
     15557     15555     15558     15559     15557     15555     15558     15560
     15557     15555     15558     15561     15558     15561     15564     15565
     15558     15561     15564     15566     15558     15561     15564     15567
     15559     15558     15561     15562     15559     15558     15561     15563
     15559     15558     15561     15564     15560     15558     15561     15562
     15560     15558     15561     15563     15560     15558     15561     15564
     15561     15564     15567     15568     15561     15564     15567     15569
     15561     15564     15567     15570     15562     15561     15564     15565
     15562     15561     15564     15566     15562     15561     15564     15567
     15563     15561     15564     15565     15563     15561     15564     15566
     15563     15561     15564     15567     15564     15567     15570     15571
     15564     15567     15570     15572     15564     15567     15570     15573
     15565     15564     15567     15568     15565     15564     15567     15569
     15565     15564     15567     15570     15566     15564     15567     15568
     15566     15564     15567     15569     15566     15564     15567     15570
     15567     15570     15573     15574     15567     15570     15573     15575
     15567     15570     15573     15576     15568     15567     15570     15571
     15568     15567     15570     15572     15568     15567     15570     15573
     15569     15567     15570     15571     15569     15567     15570     15572
     15569     15567     15570     15573     15571     15570     15573     15574
     15571     15570     15573     15575     15571     15570     15573     15576
     15572     15570     15573     15574     15572     15570     15573     15575
     15572     15570     15573     15576     15577     15580     15583     15584
     15577     15580     15583     15585     15577     15580     15583     15586
     15578     15577     15580     15581     15578     15577     15580     15582
     15578     15577     15580     15583     15579     15577     15580     15581
     15579     15577     15580     15582     15579     15577     15580     15583
     15580     15583     15586     15587     15580     15583     15586     15588
     15580     15583     15586     15589     15581     15580     15583     15584
     15581     15580     15583     15585     15581     15580     15583     15586
     15582     15580     15583     15584     15582     15580     15583     15585
     15582     15580     15583     15586     15583     15586     15589     15590
     15583     15586     15589     15591     15583     15586     15589     15592
     15584     15583     15586     15587     15584     15583     15586     15588
     15584     15583     15586     15589     15585     15583     15586     15587
     15585     15583     15586     15588     15585     15583     15586     15589
     15586     15589     15592     15593     15586     15589     15592     15594
     15586     15589     15592     15595     15587     15586     15589     15590
     15587     15586     15589     15591     15587     15586     15589     15592
     15588     15586     15589     15590     15588     15586     15589     15591
     15588     15586     15589     15592     15589     15592     15595     15596
     15589     15592     15595     15597     15589     15592     15595     15598
     15590     15589     15592     15593     15590     15589     15592     15594
     15590     15589     15592     15595     15591     15589     15592     15593
     15591     15589     15592     15594     15591     15589     15592     15595
     15592     15595     15598     15599     15592     15595     15598     15600
     15592     15595     15598     15601     15593     15592     15595     15596
     15593     15592     15595     15597     15593     15592     15595     15598
     15594     15592     15595     15596     15594     15592     15595     15597
     15594     15592     15595     15598     15595     15598     15601     15602
     15595     15598     15601     15603     15595     15598     15601     15604
     15596     15595     15598     15599     15596     15595     15598     15600
     15596     15595     15598     15601     15597     15595     15598     15599
     15597     15595     15598     15600     15597     15595     15598     15601
     15598     15601     15604     15605     15598     15601     15604     15606
     15598     15601     15604     15607     15599     15598     15601     15602
     15599     15598     15601     15603     15599     15598     15601     15604
     15600     15598     15601     15602     15600     15598     15601     15603
     15600     15598     15601     15604     15601     15604     15607     15608
     15601     15604     15607     15609     15601     15604     15607     15610
     15602     15601     15604     15605     15602     15601     15604     15606
     15602     15601     15604     15607     15603     15601     15604     15605
     15603     15601     15604     15606     15603     15601     15604     15607
     15604     15607     15610     15611     15604     15607     15610     15612
     15604     15607     15610     15613     15605     15604     15607     15608
     15605     15604     15607     15609     15605     15604     15607     15610
     15606     15604     15607     15608     15606     15604     15607     15609
     15606     15604     15607     15610     15607     15610     15613     15614
     15607     15610     15613     15615     15607     15610     15613     15616
     15608     15607     15610     15611     15608     15607     15610     15612
     15608     15607     15610     15613     15609     15607     15610     15611
     15609     15607     15610     15612     15609     15607     15610     15613
     15610     15613     15616     15617     15610     15613     15616     15618
     15610     15613     15616     15619     15611     15610     15613     15614
     15611     15610     15613     15615     15611     15610     15613     15616
     15612     15610     15613     15614     15612     15610     15613     15615
     15612     15610     15613     15616     15614     15613     15616     15617
     15614     15613     15616     15618     15614     15613     15616     15619
     15615     15613     15616     15617     15615     15613     15616     15618
     15615     15613     15616     15619     15620     15624     15627     15628
     15620     15624     15627     15629     15620     15624     15627     15634
     15621     15620     15624     15625     15621     15620     15624     15626
     15621     15620     15624     15627     15622     15620     15624     15625
     15622     15620     15624     15626     15622     15620     15624     15627
     15623     15620     15624     15625     15623     15620     15624     15626
     15623     15620     15624     15627     15624     15627     15634     15630
     15625     15624     15627     15628     15625     15624     15627     15629
     15625     15624     15627     15634     15626     15624     15627     15628
     15626     15624     15627     15629     15626     15624     15627     15634
     15627     15634     15630     15631     15627     15634     15630     15632
     15627     15634     15630     15633     15628     15627     15634     15630
     15629     15627     15634     15630     15630     15633     15635     15636
     15630     15633     15635     15637     15630     15633     15635     15638
     15631     15630     15633     15635     15632     15630     15633     15635
     15633     15635     15638     15639     15633     15635     15638     15640
     15633     15635     15638     15646     15634     15630     15633     15635
     15635     15638     15640     15641     15635     15638     15646     15647
     15635     15638     15646     15648     15635     15638     15646     15649
     15636     15635     15638     15639     15636     15635     15638     15640
     15636     15635     15638     15646     15637     15635     15638     15639
     15637     15635     15638     15640     15637     15635     15638     15646
     15638     15640     15641     15642     15638     15640     15641     15643
     15638     15646     15649     15650     15639     15638     15640     15641
     15639     15638     15646     15647     15639     15638     15646     15648
     15639     15638     15646     15649     15640     15638     15646     15647
     15640     15638     15646     15648     15640     15638     15646     15649
     15640     15641     15643     15644     15640     15641     15643     15645
     15640     15641     15643     15655     15641     15640     15638     15646
     15641     15643     15655     15656     15641     15643     15655     15657
     15641     15643     15655     15658     15642     15641     15643     15644
     15642     15641     15643     15645     15642     15641     15643     15655
     15643     15655     15658     15659     15643     15655     15658     15660
     15643     15655     15658     15661     15644     15643     15655     15656
     15644     15643     15655     15657     15644     15643     15655     15658
     15645     15643     15655     15656     15645     15643     15655     15657
     15645     15643     15655     15658     15646     15649     15650     15651
     15646     15649     15650     15652     15647     15646     15649     15650
     15648     15646     15649     15650     15649     15650     15652     15653
     15649     15650     15652     15654     15649     15650     15652     15702
     15650     15652     15702     15703     15650     15652     15702     15704
     15650     15652     15702     15705     15651     15650     15652     15653
     15651     15650     15652     15654     15651     15650     15652     15702
     15652     15702     15705     15706     15652     15702     15705     15707
     15652     15702     15705     15708     15653     15652     15702     15703
     15653     15652     15702     15704     15653     15652     15702     15705
     15654     15652     15702     15703     15654     15652     15702     15704
     15654     15652     15702     15705     15655     15658     15661     15662
     15655     15658     15661     15663     15655     15658     15661     15664
     15656     15655     15658     15659     15656     15655     15658     15660
     15656     15655     15658     15661     15657     15655     15658     15659
     15657     15655     15658     15660     15657     15655     15658     15661
     15658     15661     15664     15665     15658     15661     15664     15666
     15658     15661     15664     15667     15659     15658     15661     15662
     15659     15658     15661     15663     15659     15658     15661     15664
     15660     15658     15661     15662     15660     15658     15661     15663
     15660     15658     15661     15664     15661     15664     15667     15668
     15661     15664     15667     15669     15661     15664     15667     15670
     15662     15661     15664     15665     15662     15661     15664     15666
     15662     15661     15664     15667     15663     15661     15664     15665
     15663     15661     15664     15666     15663     15661     15664     15667
     15664     15667     15670     15671     15664     15667     15670     15672
     15664     15667     15670     15673     15665     15664     15667     15668
     15665     15664     15667     15669     15665     15664     15667     15670
     15666     15664     15667     15668     15666     15664     15667     15669
     15666     15664     15667     15670     15667     15670     15673     15674
     15667     15670     15673     15675     15668     15667     15670     15671
     15668     15667     15670     15672     15668     15667     15670     15673
     15669     15667     15670     15671     15669     15667     15670     15672
     15669     15667     15670     15673     15670     15673     15675     15676
     15670     15673     15675     15677     15671     15670     15673     15674
     15671     15670     15673     15675     15672     15670     15673     15674
     15672     15670     15673     15675     15673     15675     15677     15678
     15673     15675     15677     15679     15673     15675     15677     15680
     15674     15673     15675     15676     15674     15673     15675     15677
     15675     15677     15680     15681     15675     15677     15680     15682
     15675     15677     15680     15683     15676     15675     15677     15678
     15676     15675     15677     15679     15676     15675     15677     15680
     15677     15680     15683     15684     15677     15680     15683     15685
     15677     15680     15683     15686     15678     15677     15680     15681
     15678     15677     15680     15682     15678     15677     15680     15683
     15679     15677     15680     15681     15679     15677     15680     15682
     15679     15677     15680     15683     15680     15683     15686     15687
     15680     15683     15686     15688     15680     15683     15686     15689
     15681     15680     15683     15684     15681     15680     15683     15685
     15681     15680     15683     15686     15682     15680     15683     15684
     15682     15680     15683     15685     15682     15680     15683     15686
     15683     15686     15689     15690     15683     15686     15689     15691
     15683     15686     15689     15692     15684     15683     15686     15687
     15684     15683     15686     15688     15684     15683     15686     15689
     15685     15683     15686     15687     15685     15683     15686     15688
     15685     15683     15686     15689     15686     15689     15692     15693
     15686     15689     15692     15694     15686     15689     15692     15695
     15687     15686     15689     15690     15687     15686     15689     15691
     15687     15686     15689     15692     15688     15686     15689     15690
     15688     15686     15689     15691     15688     15686     15689     15692
     15689     15692     15695     15696     15689     15692     15695     15697
     15689     15692     15695     15698     15690     15689     15692     15693
     15690     15689     15692     15694     15690     15689     15692     15695
     15691     15689     15692     15693     15691     15689     15692     15694
     15691     15689     15692     15695     15692     15695     15698     15699
     15692     15695     15698     15700     15692     15695     15698     15701
     15693     15692     15695     15696     15693     15692     15695     15697
     15693     15692     15695     15698     15694     15692     15695     15696
     15694     15692     15695     15697     15694     15692     15695     15698
     15696     15695     15698     15699     15696     15695     15698     15700
     15696     15695     15698     15701     15697     15695     15698     15699
     15697     15695     15698     15700     15697     15695     15698     15701
     15702     15705     15708     15709     15702     15705     15708     15710
     15702     15705     15708     15711     15703     15702     15705     15706
     15703     15702     15705     15707     15703     15702     15705     15708
     15704     15702     15705     15706     15704     15702     15705     15707
     15704     15702     15705     15708     15705     15708     15711     15712
     15705     15708     15711     15713     15705     15708     15711     15714
     15706     15705     15708     15709     15706     15705     15708     15710
     15706     15705     15708     15711     15707     15705     15708     15709
     15707     15705     15708     15710     15707     15705     15708     15711
     15708     15711     15714     15715     15708     15711     15714     15716
     15708     15711     15714     15717     15709     15708     15711     15712
     15709     15708     15711     15713     15709     15708     15711     15714
     15710     15708     15711     15712     15710     15708     15711     15713
     15710     15708     15711     15714     15711     15714     15717     15718
     15711     15714     15717     15719     15711     15714     15717     15720
     15712     15711     15714     15715     15712     15711     15714     15716
     15712     15711     15714     15717     15713     15711     15714     15715
     15713     15711     15714     15716     15713     15711     15714     15717
     15714     15717     15720     15721     15714     15717     15720     15722
     15714     15717     15720     15723     15715     15714     15717     15718
     15715     15714     15717     15719     15715     15714     15717     15720
     15716     15714     15717     15718     15716     15714     15717     15719
     15716     15714     15717     15720     15717     15720     15723     15724
     15717     15720     15723     15725     15717     15720     15723     15726
     15718     15717     15720     15721     15718     15717     15720     15722
     15718     15717     15720     15723     15719     15717     15720     15721
     15719     15717     15720     15722     15719     15717     15720     15723
     15720     15723     15726     15727     15720     15723     15726     15728
     15720     15723     15726     15729     15721     15720     15723     15724
     15721     15720     15723     15725     15721     15720     15723     15726
     15722     15720     15723     15724     15722     15720     15723     15725
     15722     15720     15723     15726     15723     15726     15729     15730
     15723     15726     15729     15731     15723     15726     15729     15732
     15724     15723     15726     15727     15724     15723     15726     15728
     15724     15723     15726     15729     15725     15723     15726     15727
     15725     15723     15726     15728     15725     15723     15726     15729
     15726     15729     15732     15733     15726     15729     15732     15734
     15726     15729     15732     15735     15727     15726     15729     15730
     15727     15726     15729     15731     15727     15726     15729     15732
     15728     15726     15729     15730     15728     15726     15729     15731
     15728     15726     15729     15732     15729     15732     15735     15736
     15729     15732     15735     15737     15729     15732     15735     15738
     15730     15729     15732     15733     15730     15729     15732     15734
     15730     15729     15732     15735     15731     15729     15732     15733
     15731     15729     15732     15734     15731     15729     15732     15735
     15732     15735     15738     15739     15732     15735     15738     15740
     15732     15735     15738     15741     15733     15732     15735     15736
     15733     15732     15735     15737     15733     15732     15735     15738
     15734     15732     15735     15736     15734     15732     15735     15737
     15734     15732     15735     15738     15735     15738     15741     15742
     15735     15738     15741     15743     15735     15738     15741     15744
     15736     15735     15738     15739     15736     15735     15738     15740
     15736     15735     15738     15741     15737     15735     15738     15739
     15737     15735     15738     15740     15737     15735     15738     15741
     15739     15738     15741     15742     15739     15738     15741     15743
     15739     15738     15741     15744     15740     15738     15741     15742
     15740     15738     15741     15743     15740     15738     15741     15744
     15745     15749     15752     15753     15745     15749     15752     15754
     15745     15749     15752     15759     15746     15745     15749     15750
     15746     15745     15749     15751     15746     15745     15749     15752
     15747     15745     15749     15750     15747     15745     15749     15751
     15747     15745     15749     15752     15748     15745     15749     15750
     15748     15745     15749     15751     15748     15745     15749     15752
     15749     15752     15759     15755     15750     15749     15752     15753
     15750     15749     15752     15754     15750     15749     15752     15759
     15751     15749     15752     15753     15751     15749     15752     15754
     15751     15749     15752     15759     15752     15759     15755     15756
     15752     15759     15755     15757     15752     15759     15755     15758
     15753     15752     15759     15755     15754     15752     15759     15755
     15755     15758     15760     15761     15755     15758     15760     15762
     15755     15758     15760     15763     15756     15755     15758     15760
     15757     15755     15758     15760     15758     15760     15763     15764
     15758     15760     15763     15765     15758     15760     15763     15771
     15759     15755     15758     15760     15760     15763     15765     15766
     15760     15763     15771     15772     15760     15763     15771     15773
     15760     15763     15771     15774     15761     15760     15763     15764
     15761     15760     15763     15765     15761     15760     15763     15771
     15762     15760     15763     15764     15762     15760     15763     15765
     15762     15760     15763     15771     15763     15765     15766     15767
     15763     15765     15766     15768     15763     15771     15774     15775
     15764     15763     15765     15766     15764     15763     15771     15772
     15764     15763     15771     15773     15764     15763     15771     15774
     15765     15763     15771     15772     15765     15763     15771     15773
     15765     15763     15771     15774     15765     15766     15768     15769
     15765     15766     15768     15770     15765     15766     15768     15780
     15766     15765     15763     15771     15766     15768     15780     15781
     15766     15768     15780     15782     15766     15768     15780     15783
     15767     15766     15768     15769     15767     15766     15768     15770
     15767     15766     15768     15780     15768     15780     15783     15784
     15768     15780     15783     15785     15768     15780     15783     15786
     15769     15768     15780     15781     15769     15768     15780     15782
     15769     15768     15780     15783     15770     15768     15780     15781
     15770     15768     15780     15782     15770     15768     15780     15783
     15771     15774     15775     15776     15771     15774     15775     15777
     15772     15771     15774     15775     15773     15771     15774     15775
     15774     15775     15777     15778     15774     15775     15777     15779
     15774     15775     15777     15827     15775     15777     15827     15828
     15775     15777     15827     15829     15775     15777     15827     15830
     15776     15775     15777     15778     15776     15775     15777     15779
     15776     15775     15777     15827     15777     15827     15830     15831
     15777     15827     15830     15832     15777     15827     15830     15833
     15778     15777     15827     15828     15778     15777     15827     15829
     15778     15777     15827     15830     15779     15777     15827     15828
     15779     15777     15827     15829     15779     15777     15827     15830
     15780     15783     15786     15787     15780     15783     15786     15788
     15780     15783     15786     15789     15781     15780     15783     15784
     15781     15780     15783     15785     15781     15780     15783     15786
     15782     15780     15783     15784     15782     15780     15783     15785
     15782     15780     15783     15786     15783     15786     15789     15790
     15783     15786     15789     15791     15783     15786     15789     15792
     15784     15783     15786     15787     15784     15783     15786     15788
     15784     15783     15786     15789     15785     15783     15786     15787
     15785     15783     15786     15788     15785     15783     15786     15789
     15786     15789     15792     15793     15786     15789     15792     15794
     15786     15789     15792     15795     15787     15786     15789     15790
     15787     15786     15789     15791     15787     15786     15789     15792
     15788     15786     15789     15790     15788     15786     15789     15791
     15788     15786     15789     15792     15789     15792     15795     15796
     15789     15792     15795     15797     15789     15792     15795     15798
     15790     15789     15792     15793     15790     15789     15792     15794
     15790     15789     15792     15795     15791     15789     15792     15793
     15791     15789     15792     15794     15791     15789     15792     15795
     15792     15795     15798     15799     15792     15795     15798     15800
     15793     15792     15795     15796     15793     15792     15795     15797
     15793     15792     15795     15798     15794     15792     15795     15796
     15794     15792     15795     15797     15794     15792     15795     15798
     15795     15798     15800     15801     15795     15798     15800     15802
     15796     15795     15798     15799     15796     15795     15798     15800
     15797     15795     15798     15799     15797     15795     15798     15800
     15798     15800     15802     15803     15798     15800     15802     15804
     15798     15800     15802     15805     15799     15798     15800     15801
     15799     15798     15800     15802     15800     15802     15805     15806
     15800     15802     15805     15807     15800     15802     15805     15808
     15801     15800     15802     15803     15801     15800     15802     15804
     15801     15800     15802     15805     15802     15805     15808     15809
     15802     15805     15808     15810     15802     15805     15808     15811
     15803     15802     15805     15806     15803     15802     15805     15807
     15803     15802     15805     15808     15804     15802     15805     15806
     15804     15802     15805     15807     15804     15802     15805     15808
     15805     15808     15811     15812     15805     15808     15811     15813
     15805     15808     15811     15814     15806     15805     15808     15809
     15806     15805     15808     15810     15806     15805     15808     15811
     15807     15805     15808     15809     15807     15805     15808     15810
     15807     15805     15808     15811     15808     15811     15814     15815
     15808     15811     15814     15816     15808     15811     15814     15817
     15809     15808     15811     15812     15809     15808     15811     15813
     15809     15808     15811     15814     15810     15808     15811     15812
     15810     15808     15811     15813     15810     15808     15811     15814
     15811     15814     15817     15818     15811     15814     15817     15819
     15811     15814     15817     15820     15812     15811     15814     15815
     15812     15811     15814     15816     15812     15811     15814     15817
     15813     15811     15814     15815     15813     15811     15814     15816
     15813     15811     15814     15817     15814     15817     15820     15821
     15814     15817     15820     15822     15814     15817     15820     15823
     15815     15814     15817     15818     15815     15814     15817     15819
     15815     15814     15817     15820     15816     15814     15817     15818
     15816     15814     15817     15819     15816     15814     15817     15820
     15817     15820     15823     15824     15817     15820     15823     15825
     15817     15820     15823     15826     15818     15817     15820     15821
     15818     15817     15820     15822     15818     15817     15820     15823
     15819     15817     15820     15821     15819     15817     15820     15822
     15819     15817     15820     15823     15821     15820     15823     15824
     15821     15820     15823     15825     15821     15820     15823     15826
     15822     15820     15823     15824     15822     15820     15823     15825
     15822     15820     15823     15826     15827     15830     15833     15834
     15827     15830     15833     15835     15827     15830     15833     15836
     15828     15827     15830     15831     15828     15827     15830     15832
     15828     15827     15830     15833     15829     15827     15830     15831
     15829     15827     15830     15832     15829     15827     15830     15833
     15830     15833     15836     15837     15830     15833     15836     15838
     15830     15833     15836     15839     15831     15830     15833     15834
     15831     15830     15833     15835     15831     15830     15833     15836
     15832     15830     15833     15834     15832     15830     15833     15835
     15832     15830     15833     15836     15833     15836     15839     15840
     15833     15836     15839     15841     15833     15836     15839     15842
     15834     15833     15836     15837     15834     15833     15836     15838
     15834     15833     15836     15839     15835     15833     15836     15837
     15835     15833     15836     15838     15835     15833     15836     15839
     15836     15839     15842     15843     15836     15839     15842     15844
     15836     15839     15842     15845     15837     15836     15839     15840
     15837     15836     15839     15841     15837     15836     15839     15842
     15838     15836     15839     15840     15838     15836     15839     15841
     15838     15836     15839     15842     15839     15842     15845     15846
     15839     15842     15845     15847     15839     15842     15845     15848
     15840     15839     15842     15843     15840     15839     15842     15844
     15840     15839     15842     15845     15841     15839     15842     15843
     15841     15839     15842     15844     15841     15839     15842     15845
     15842     15845     15848     15849     15842     15845     15848     15850
     15842     15845     15848     15851     15843     15842     15845     15846
     15843     15842     15845     15847     15843     15842     15845     15848
     15844     15842     15845     15846     15844     15842     15845     15847
     15844     15842     15845     15848     15845     15848     15851     15852
     15845     15848     15851     15853     15845     15848     15851     15854
     15846     15845     15848     15849     15846     15845     15848     15850
     15846     15845     15848     15851     15847     15845     15848     15849
     15847     15845     15848     15850     15847     15845     15848     15851
     15848     15851     15854     15855     15848     15851     15854     15856
     15848     15851     15854     15857     15849     15848     15851     15852
     15849     15848     15851     15853     15849     15848     15851     15854
     15850     15848     15851     15852     15850     15848     15851     15853
     15850     15848     15851     15854     15851     15854     15857     15858
     15851     15854     15857     15859     15851     15854     15857     15860
     15852     15851     15854     15855     15852     15851     15854     15856
     15852     15851     15854     15857     15853     15851     15854     15855
     15853     15851     15854     15856     15853     15851     15854     15857
     15854     15857     15860     15861     15854     15857     15860     15862
     15854     15857     15860     15863     15855     15854     15857     15858
     15855     15854     15857     15859     15855     15854     15857     15860
     15856     15854     15857     15858     15856     15854     15857     15859
     15856     15854     15857     15860     15857     15860     15863     15864
     15857     15860     15863     15865     15857     15860     15863     15866
     15858     15857     15860     15861     15858     15857     15860     15862
     15858     15857     15860     15863     15859     15857     15860     15861
     15859     15857     15860     15862     15859     15857     15860     15863
     15860     15863     15866     15867     15860     15863     15866     15868
     15860     15863     15866     15869     15861     15860     15863     15864
     15861     15860     15863     15865     15861     15860     15863     15866
     15862     15860     15863     15864     15862     15860     15863     15865
     15862     15860     15863     15866     15864     15863     15866     15867
     15864     15863     15866     15868     15864     15863     15866     15869
     15865     15863     15866     15867     15865     15863     15866     15868
     15865     15863     15866     15869     15870     15874     15877     15878
     15870     15874     15877     15879     15870     15874     15877     15884
     15871     15870     15874     15875     15871     15870     15874     15876
     15871     15870     15874     15877     15872     15870     15874     15875
     15872     15870     15874     15876     15872     15870     15874     15877
     15873     15870     15874     15875     15873     15870     15874     15876
     15873     15870     15874     15877     15874     15877     15884     15880
     15875     15874     15877     15878     15875     15874     15877     15879
     15875     15874     15877     15884     15876     15874     15877     15878
     15876     15874     15877     15879     15876     15874     15877     15884
     15877     15884     15880     15881     15877     15884     15880     15882
     15877     15884     15880     15883     15878     15877     15884     15880
     15879     15877     15884     15880     15880     15883     15885     15886
     15880     15883     15885     15887     15880     15883     15885     15888
     15881     15880     15883     15885     15882     15880     15883     15885
     15883     15885     15888     15889     15883     15885     15888     15890
     15883     15885     15888     15896     15884     15880     15883     15885
     15885     15888     15890     15891     15885     15888     15896     15897
     15885     15888     15896     15898     15885     15888     15896     15899
     15886     15885     15888     15889     15886     15885     15888     15890
     15886     15885     15888     15896     15887     15885     15888     15889
     15887     15885     15888     15890     15887     15885     15888     15896
     15888     15890     15891     15892     15888     15890     15891     15893
     15888     15896     15899     15900     15889     15888     15890     15891
     15889     15888     15896     15897     15889     15888     15896     15898
     15889     15888     15896     15899     15890     15888     15896     15897
     15890     15888     15896     15898     15890     15888     15896     15899
     15890     15891     15893     15894     15890     15891     15893     15895
     15890     15891     15893     15905     15891     15890     15888     15896
     15891     15893     15905     15906     15891     15893     15905     15907
     15891     15893     15905     15908     15892     15891     15893     15894
     15892     15891     15893     15895     15892     15891     15893     15905
     15893     15905     15908     15909     15893     15905     15908     15910
     15893     15905     15908     15911     15894     15893     15905     15906
     15894     15893     15905     15907     15894     15893     15905     15908
     15895     15893     15905     15906     15895     15893     15905     15907
     15895     15893     15905     15908     15896     15899     15900     15901
     15896     15899     15900     15902     15897     15896     15899     15900
     15898     15896     15899     15900     15899     15900     15902     15903
     15899     15900     15902     15904     15899     15900     15902     15952
     15900     15902     15952     15953     15900     15902     15952     15954
     15900     15902     15952     15955     15901     15900     15902     15903
     15901     15900     15902     15904     15901     15900     15902     15952
     15902     15952     15955     15956     15902     15952     15955     15957
     15902     15952     15955     15958     15903     15902     15952     15953
     15903     15902     15952     15954     15903     15902     15952     15955
     15904     15902     15952     15953     15904     15902     15952     15954
     15904     15902     15952     15955     15905     15908     15911     15912
     15905     15908     15911     15913     15905     15908     15911     15914
     15906     15905     15908     15909     15906     15905     15908     15910
     15906     15905     15908     15911     15907     15905     15908     15909
     15907     15905     15908     15910     15907     15905     15908     15911
     15908     15911     15914     15915     15908     15911     15914     15916
     15908     15911     15914     15917     15909     15908     15911     15912
     15909     15908     15911     15913     15909     15908     15911     15914
     15910     15908     15911     15912     15910     15908     15911     15913
     15910     15908     15911     15914     15911     15914     15917     15918
     15911     15914     15917     15919     15911     15914     15917     15920
     15912     15911     15914     15915     15912     15911     15914     15916
     15912     15911     15914     15917     15913     15911     15914     15915
     15913     15911     15914     15916     15913     15911     15914     15917
     15914     15917     15920     15921     15914     15917     15920     15922
     15914     15917     15920     15923     15915     15914     15917     15918
     15915     15914     15917     15919     15915     15914     15917     15920
     15916     15914     15917     15918     15916     15914     15917     15919
     15916     15914     15917     15920     15917     15920     15923     15924
     15917     15920     15923     15925     15918     15917     15920     15921
     15918     15917     15920     15922     15918     15917     15920     15923
     15919     15917     15920     15921     15919     15917     15920     15922
     15919     15917     15920     15923     15920     15923     15925     15926
     15920     15923     15925     15927     15921     15920     15923     15924
     15921     15920     15923     15925     15922     15920     15923     15924
     15922     15920     15923     15925     15923     15925     15927     15928
     15923     15925     15927     15929     15923     15925     15927     15930
     15924     15923     15925     15926     15924     15923     15925     15927
     15925     15927     15930     15931     15925     15927     15930     15932
     15925     15927     15930     15933     15926     15925     15927     15928
     15926     15925     15927     15929     15926     15925     15927     15930
     15927     15930     15933     15934     15927     15930     15933     15935
     15927     15930     15933     15936     15928     15927     15930     15931
     15928     15927     15930     15932     15928     15927     15930     15933
     15929     15927     15930     15931     15929     15927     15930     15932
     15929     15927     15930     15933     15930     15933     15936     15937
     15930     15933     15936     15938     15930     15933     15936     15939
     15931     15930     15933     15934     15931     15930     15933     15935
     15931     15930     15933     15936     15932     15930     15933     15934
     15932     15930     15933     15935     15932     15930     15933     15936
     15933     15936     15939     15940     15933     15936     15939     15941
     15933     15936     15939     15942     15934     15933     15936     15937
     15934     15933     15936     15938     15934     15933     15936     15939
     15935     15933     15936     15937     15935     15933     15936     15938
     15935     15933     15936     15939     15936     15939     15942     15943
     15936     15939     15942     15944     15936     15939     15942     15945
     15937     15936     15939     15940     15937     15936     15939     15941
     15937     15936     15939     15942     15938     15936     15939     15940
     15938     15936     15939     15941     15938     15936     15939     15942
     15939     15942     15945     15946     15939     15942     15945     15947
     15939     15942     15945     15948     15940     15939     15942     15943
     15940     15939     15942     15944     15940     15939     15942     15945
     15941     15939     15942     15943     15941     15939     15942     15944
     15941     15939     15942     15945     15942     15945     15948     15949
     15942     15945     15948     15950     15942     15945     15948     15951
     15943     15942     15945     15946     15943     15942     15945     15947
     15943     15942     15945     15948     15944     15942     15945     15946
     15944     15942     15945     15947     15944     15942     15945     15948
     15946     15945     15948     15949     15946     15945     15948     15950
     15946     15945     15948     15951     15947     15945     15948     15949
     15947     15945     15948     15950     15947     15945     15948     15951
     15952     15955     15958     15959     15952     15955     15958     15960
     15952     15955     15958     15961     15953     15952     15955     15956
     15953     15952     15955     15957     15953     15952     15955     15958
     15954     15952     15955     15956     15954     15952     15955     15957
     15954     15952     15955     15958     15955     15958     15961     15962
     15955     15958     15961     15963     15955     15958     15961     15964
     15956     15955     15958     15959     15956     15955     15958     15960
     15956     15955     15958     15961     15957     15955     15958     15959
     15957     15955     15958     15960     15957     15955     15958     15961
     15958     15961     15964     15965     15958     15961     15964     15966
     15958     15961     15964     15967     15959     15958     15961     15962
     15959     15958     15961     15963     15959     15958     15961     15964
     15960     15958     15961     15962     15960     15958     15961     15963
     15960     15958     15961     15964     15961     15964     15967     15968
     15961     15964     15967     15969     15961     15964     15967     15970
     15962     15961     15964     15965     15962     15961     15964     15966
     15962     15961     15964     15967     15963     15961     15964     15965
     15963     15961     15964     15966     15963     15961     15964     15967
     15964     15967     15970     15971     15964     15967     15970     15972
     15964     15967     15970     15973     15965     15964     15967     15968
     15965     15964     15967     15969     15965     15964     15967     15970
     15966     15964     15967     15968     15966     15964     15967     15969
     15966     15964     15967     15970     15967     15970     15973     15974
     15967     15970     15973     15975     15967     15970     15973     15976
     15968     15967     15970     15971     15968     15967     15970     15972
     15968     15967     15970     15973     15969     15967     15970     15971
     15969     15967     15970     15972     15969     15967     15970     15973
     15970     15973     15976     15977     15970     15973     15976     15978
     15970     15973     15976     15979     15971     15970     15973     15974
     15971     15970     15973     15975     15971     15970     15973     15976
     15972     15970     15973     15974     15972     15970     15973     15975
     15972     15970     15973     15976     15973     15976     15979     15980
     15973     15976     15979     15981     15973     15976     15979     15982
     15974     15973     15976     15977     15974     15973     15976     15978
     15974     15973     15976     15979     15975     15973     15976     15977
     15975     15973     15976     15978     15975     15973     15976     15979
     15976     15979     15982     15983     15976     15979     15982     15984
     15976     15979     15982     15985     15977     15976     15979     15980
     15977     15976     15979     15981     15977     15976     15979     15982
     15978     15976     15979     15980     15978     15976     15979     15981
     15978     15976     15979     15982     15979     15982     15985     15986
     15979     15982     15985     15987     15979     15982     15985     15988
     15980     15979     15982     15983     15980     15979     15982     15984
     15980     15979     15982     15985     15981     15979     15982     15983
     15981     15979     15982     15984     15981     15979     15982     15985
     15982     15985     15988     15989     15982     15985     15988     15990
     15982     15985     15988     15991     15983     15982     15985     15986
     15983     15982     15985     15987     15983     15982     15985     15988
     15984     15982     15985     15986     15984     15982     15985     15987
     15984     15982     15985     15988     15985     15988     15991     15992
     15985     15988     15991     15993     15985     15988     15991     15994
     15986     15985     15988     15989     15986     15985     15988     15990
     15986     15985     15988     15991     15987     15985     15988     15989
     15987     15985     15988     15990     15987     15985     15988     15991
     15989     15988     15991     15992     15989     15988     15991     15993
     15989     15988     15991     15994     15990     15988     15991     15992
     15990     15988     15991     15993     15990     15988     15991     15994
     15995     15999     16002     16003     15995     15999     16002     16004
     15995     15999     16002     16009     15996     15995     15999     16000
     15996     15995     15999     16001     15996     15995     15999     16002
     15997     15995     15999     16000     15997     15995     15999     16001
     15997     15995     15999     16002     15998     15995     15999     16000
     15998     15995     15999     16001     15998     15995     15999     16002
     15999     16002     16009     16005     16000     15999     16002     16003
     16000     15999     16002     16004     16000     15999     16002     16009
     16001     15999     16002     16003     16001     15999     16002     16004
     16001     15999     16002     16009     16002     16009     16005     16006
     16002     16009     16005     16007     16002     16009     16005     16008
     16003     16002     16009     16005     16004     16002     16009     16005
     16005     16008     16010     16011     16005     16008     16010     16012
     16005     16008     16010     16013     16006     16005     16008     16010
     16007     16005     16008     16010     16008     16010     16013     16014
     16008     16010     16013     16015     16008     16010     16013     16021
     16009     16005     16008     16010     16010     16013     16015     16016
     16010     16013     16021     16022     16010     16013     16021     16023
     16010     16013     16021     16024     16011     16010     16013     16014
     16011     16010     16013     16015     16011     16010     16013     16021
     16012     16010     16013     16014     16012     16010     16013     16015
     16012     16010     16013     16021     16013     16015     16016     16017
     16013     16015     16016     16018     16013     16021     16024     16025
     16014     16013     16015     16016     16014     16013     16021     16022
     16014     16013     16021     16023     16014     16013     16021     16024
     16015     16013     16021     16022     16015     16013     16021     16023
     16015     16013     16021     16024     16015     16016     16018     16019
     16015     16016     16018     16020     16015     16016     16018     16030
     16016     16015     16013     16021     16016     16018     16030     16031
     16016     16018     16030     16032     16016     16018     16030     16033
     16017     16016     16018     16019     16017     16016     16018     16020
     16017     16016     16018     16030     16018     16030     16033     16034
     16018     16030     16033     16035     16018     16030     16033     16036
     16019     16018     16030     16031     16019     16018     16030     16032
     16019     16018     16030     16033     16020     16018     16030     16031
     16020     16018     16030     16032     16020     16018     16030     16033
     16021     16024     16025     16026     16021     16024     16025     16027
     16022     16021     16024     16025     16023     16021     16024     16025
     16024     16025     16027     16028     16024     16025     16027     16029
     16024     16025     16027     16077     16025     16027     16077     16078
     16025     16027     16077     16079     16025     16027     16077     16080
     16026     16025     16027     16028     16026     16025     16027     16029
     16026     16025     16027     16077     16027     16077     16080     16081
     16027     16077     16080     16082     16027     16077     16080     16083
     16028     16027     16077     16078     16028     16027     16077     16079
     16028     16027     16077     16080     16029     16027     16077     16078
     16029     16027     16077     16079     16029     16027     16077     16080
     16030     16033     16036     16037     16030     16033     16036     16038
     16030     16033     16036     16039     16031     16030     16033     16034
     16031     16030     16033     16035     16031     16030     16033     16036
     16032     16030     16033     16034     16032     16030     16033     16035
     16032     16030     16033     16036     16033     16036     16039     16040
     16033     16036     16039     16041     16033     16036     16039     16042
     16034     16033     16036     16037     16034     16033     16036     16038
     16034     16033     16036     16039     16035     16033     16036     16037
     16035     16033     16036     16038     16035     16033     16036     16039
     16036     16039     16042     16043     16036     16039     16042     16044
     16036     16039     16042     16045     16037     16036     16039     16040
     16037     16036     16039     16041     16037     16036     16039     16042
     16038     16036     16039     16040     16038     16036     16039     16041
     16038     16036     16039     16042     16039     16042     16045     16046
     16039     16042     16045     16047     16039     16042     16045     16048
     16040     16039     16042     16043     16040     16039     16042     16044
     16040     16039     16042     16045     16041     16039     16042     16043
     16041     16039     16042     16044     16041     16039     16042     16045
     16042     16045     16048     16049     16042     16045     16048     16050
     16043     16042     16045     16046     16043     16042     16045     16047
     16043     16042     16045     16048     16044     16042     16045     16046
     16044     16042     16045     16047     16044     16042     16045     16048
     16045     16048     16050     16051     16045     16048     16050     16052
     16046     16045     16048     16049     16046     16045     16048     16050
     16047     16045     16048     16049     16047     16045     16048     16050
     16048     16050     16052     16053     16048     16050     16052     16054
     16048     16050     16052     16055     16049     16048     16050     16051
     16049     16048     16050     16052     16050     16052     16055     16056
     16050     16052     16055     16057     16050     16052     16055     16058
     16051     16050     16052     16053     16051     16050     16052     16054
     16051     16050     16052     16055     16052     16055     16058     16059
     16052     16055     16058     16060     16052     16055     16058     16061
     16053     16052     16055     16056     16053     16052     16055     16057
     16053     16052     16055     16058     16054     16052     16055     16056
     16054     16052     16055     16057     16054     16052     16055     16058
     16055     16058     16061     16062     16055     16058     16061     16063
     16055     16058     16061     16064     16056     16055     16058     16059
     16056     16055     16058     16060     16056     16055     16058     16061
     16057     16055     16058     16059     16057     16055     16058     16060
     16057     16055     16058     16061     16058     16061     16064     16065
     16058     16061     16064     16066     16058     16061     16064     16067
     16059     16058     16061     16062     16059     16058     16061     16063
     16059     16058     16061     16064     16060     16058     16061     16062
     16060     16058     16061     16063     16060     16058     16061     16064
     16061     16064     16067     16068     16061     16064     16067     16069
     16061     16064     16067     16070     16062     16061     16064     16065
     16062     16061     16064     16066     16062     16061     16064     16067
     16063     16061     16064     16065     16063     16061     16064     16066
     16063     16061     16064     16067     16064     16067     16070     16071
     16064     16067     16070     16072     16064     16067     16070     16073
     16065     16064     16067     16068     16065     16064     16067     16069
     16065     16064     16067     16070     16066     16064     16067     16068
     16066     16064     16067     16069     16066     16064     16067     16070
     16067     16070     16073     16074     16067     16070     16073     16075
     16067     16070     16073     16076     16068     16067     16070     16071
     16068     16067     16070     16072     16068     16067     16070     16073
     16069     16067     16070     16071     16069     16067     16070     16072
     16069     16067     16070     16073     16071     16070     16073     16074
     16071     16070     16073     16075     16071     16070     16073     16076
     16072     16070     16073     16074     16072     16070     16073     16075
     16072     16070     16073     16076     16077     16080     16083     16084
     16077     16080     16083     16085     16077     16080     16083     16086
     16078     16077     16080     16081     16078     16077     16080     16082
     16078     16077     16080     16083     16079     16077     16080     16081
     16079     16077     16080     16082     16079     16077     16080     16083
     16080     16083     16086     16087     16080     16083     16086     16088
     16080     16083     16086     16089     16081     16080     16083     16084
     16081     16080     16083     16085     16081     16080     16083     16086
     16082     16080     16083     16084     16082     16080     16083     16085
     16082     16080     16083     16086     16083     16086     16089     16090
     16083     16086     16089     16091     16083     16086     16089     16092
     16084     16083     16086     16087     16084     16083     16086     16088
     16084     16083     16086     16089     16085     16083     16086     16087
     16085     16083     16086     16088     16085     16083     16086     16089
     16086     16089     16092     16093     16086     16089     16092     16094
     16086     16089     16092     16095     16087     16086     16089     16090
     16087     16086     16089     16091     16087     16086     16089     16092
     16088     16086     16089     16090     16088     16086     16089     16091
     16088     16086     16089     16092     16089     16092     16095     16096
     16089     16092     16095     16097     16089     16092     16095     16098
     16090     16089     16092     16093     16090     16089     16092     16094
     16090     16089     16092     16095     16091     16089     16092     16093
     16091     16089     16092     16094     16091     16089     16092     16095
     16092     16095     16098     16099     16092     16095     16098     16100
     16092     16095     16098     16101     16093     16092     16095     16096
     16093     16092     16095     16097     16093     16092     16095     16098
     16094     16092     16095     16096     16094     16092     16095     16097
     16094     16092     16095     16098     16095     16098     16101     16102
     16095     16098     16101     16103     16095     16098     16101     16104
     16096     16095     16098     16099     16096     16095     16098     16100
     16096     16095     16098     16101     16097     16095     16098     16099
     16097     16095     16098     16100     16097     16095     16098     16101
     16098     16101     16104     16105     16098     16101     16104     16106
     16098     16101     16104     16107     16099     16098     16101     16102
     16099     16098     16101     16103     16099     16098     16101     16104
     16100     16098     16101     16102     16100     16098     16101     16103
     16100     16098     16101     16104     16101     16104     16107     16108
     16101     16104     16107     16109     16101     16104     16107     16110
     16102     16101     16104     16105     16102     16101     16104     16106
     16102     16101     16104     16107     16103     16101     16104     16105
     16103     16101     16104     16106     16103     16101     16104     16107
     16104     16107     16110     16111     16104     16107     16110     16112
     16104     16107     16110     16113     16105     16104     16107     16108
     16105     16104     16107     16109     16105     16104     16107     16110
     16106     16104     16107     16108     16106     16104     16107     16109
     16106     16104     16107     16110     16107     16110     16113     16114
     16107     16110     16113     16115     16107     16110     16113     16116
     16108     16107     16110     16111     16108     16107     16110     16112
     16108     16107     16110     16113     16109     16107     16110     16111
     16109     16107     16110     16112     16109     16107     16110     16113
     16110     16113     16116     16117     16110     16113     16116     16118
     16110     16113     16116     16119     16111     16110     16113     16114
     16111     16110     16113     16115     16111     16110     16113     16116
     16112     16110     16113     16114     16112     16110     16113     16115
     16112     16110     16113     16116     16114     16113     16116     16117
     16114     16113     16116     16118     16114     16113     16116     16119
     16115     16113     16116     16117     16115     16113     16116     16118
     16115     16113     16116     16119     16120     16121     16136     16137
     16120     16121     16136     16138     16120     16121     16136     16142
     16121     16120     16124     16125     16121     16120     16124     16126
     16121     16120     16124     16127     16121     16120     16128     16129
     16121     16120     16128     16130     16121     16120     16128     16131
     16121     16120     16132     16133     16121     16120     16132     16134
     16121     16120     16132     16135     16121     16136     16142     16139
     16122     16121     16120     16124     16122     16121     16120     16128
     16122     16121     16120     16132     16122     16121     16136     16137
     16122     16121     16136     16138     16122     16121     16136     16142
     16123     16121     16120     16124     16123     16121     16120     16128
     16123     16121     16120     16132     16123     16121     16136     16137
     16123     16121     16136     16138     16123     16121     16136     16142
     16124     16120     16121     16136     16124     16120     16128     16129
     16124     16120     16128     16130     16124     16120     16128     16131
     16124     16120     16132     16133     16124     16120     16132     16134
     16124     16120     16132     16135     16125     16124     16120     16128
     16125     16124     16120     16132     16126     16124     16120     16128
     16126     16124     16120     16132     16127     16124     16120     16128
     16127     16124     16120     16132     16128     16120     16121     16136
     16128     16120     16132     16133     16128     16120     16132     16134
     16128     16120     16132     16135     16129     16128     16120     16132
     16130     16128     16120     16132     16131     16128     16120     16132
     16132     16120     16121     16136     16136     16142     16139     16140
     16136     16142     16139     16141     16136     16142     16139     16143
     16137     16136     16142     16139     16138     16136     16142     16139
     16139     16143     16144     16145     16139     16143     16144     16146
     16139     16143     16144     16147     16140     16139     16143     16144
     16141     16139     16143     16144     16142     16139     16143     16144
     16143     16144     16147     16148     16143     16144     16147     16149
     16143     16144     16147     16155     16144     16147     16149     16150
     16144     16147     16155     16156     16144     16147     16155     16157
     16144     16147     16155     16158     16145     16144     16147     16148
     16145     16144     16147     16149     16145     16144     16147     16155
     16146     16144     16147     16148     16146     16144     16147     16149
     16146     16144     16147     16155     16147     16149     16150     16151
     16147     16149     16150     16152     16147     16155     16158     16159
     16148     16147     16149     16150     16148     16147     16155     16156
     16148     16147     16155     16157     16148     16147     16155     16158
     16149     16147     16155     16156     16149     16147     16155     16157
     16149     16147     16155     16158     16149     16150     16152     16153
     16149     16150     16152     16154     16149     16150     16152     16164
     16150     16149     16147     16155     16150     16152     16164     16165
     16150     16152     16164     16166     16150     16152     16164     16167
     16151     16150     16152     16153     16151     16150     16152     16154
     16151     16150     16152     16164     16152     16164     16167     16168
     16152     16164     16167     16169     16152     16164     16167     16170
     16153     16152     16164     16165     16153     16152     16164     16166
     16153     16152     16164     16167     16154     16152     16164     16165
     16154     16152     16164     16166     16154     16152     16164     16167
     16155     16158     16159     16160     16155     16158     16159     16161
     16156     16155     16158     16159     16157     16155     16158     16159
     16158     16159     16161     16162     16158     16159     16161     16163
     16158     16159     16161     16211     16159     16161     16211     16212
     16159     16161     16211     16213     16159     16161     16211     16214
     16160     16159     16161     16162     16160     16159     16161     16163
     16160     16159     16161     16211     16161     16211     16214     16215
     16161     16211     16214     16216     16161     16211     16214     16217
     16162     16161     16211     16212     16162     16161     16211     16213
     16162     16161     16211     16214     16163     16161     16211     16212
     16163     16161     16211     16213     16163     16161     16211     16214
     16164     16167     16170     16171     16164     16167     16170     16172
     16164     16167     16170     16173     16165     16164     16167     16168
     16165     16164     16167     16169     16165     16164     16167     16170
     16166     16164     16167     16168     16166     16164     16167     16169
     16166     16164     16167     16170     16167     16170     16173     16174
     16167     16170     16173     16175     16167     16170     16173     16176
     16168     16167     16170     16171     16168     16167     16170     16172
     16168     16167     16170     16173     16169     16167     16170     16171
     16169     16167     16170     16172     16169     16167     16170     16173
     16170     16173     16176     16177     16170     16173     16176     16178
     16170     16173     16176     16179     16171     16170     16173     16174
     16171     16170     16173     16175     16171     16170     16173     16176
     16172     16170     16173     16174     16172     16170     16173     16175
     16172     16170     16173     16176     16173     16176     16179     16180
     16173     16176     16179     16181     16173     16176     16179     16182
     16174     16173     16176     16177     16174     16173     16176     16178
     16174     16173     16176     16179     16175     16173     16176     16177
     16175     16173     16176     16178     16175     16173     16176     16179
     16176     16179     16182     16183     16176     16179     16182     16184
     16177     16176     16179     16180     16177     16176     16179     16181
     16177     16176     16179     16182     16178     16176     16179     16180
     16178     16176     16179     16181     16178     16176     16179     16182
     16179     16182     16184     16185     16179     16182     16184     16186
     16180     16179     16182     16183     16180     16179     16182     16184
     16181     16179     16182     16183     16181     16179     16182     16184
     16182     16184     16186     16187     16182     16184     16186     16188
     16182     16184     16186     16189     16183     16182     16184     16185
     16183     16182     16184     16186     16184     16186     16189     16190
     16184     16186     16189     16191     16184     16186     16189     16192
     16185     16184     16186     16187     16185     16184     16186     16188
     16185     16184     16186     16189     16186     16189     16192     16193
     16186     16189     16192     16194     16186     16189     16192     16195
     16187     16186     16189     16190     16187     16186     16189     16191
     16187     16186     16189     16192     16188     16186     16189     16190
     16188     16186     16189     16191     16188     16186     16189     16192
     16189     16192     16195     16196     16189     16192     16195     16197
     16189     16192     16195     16198     16190     16189     16192     16193
     16190     16189     16192     16194     16190     16189     16192     16195
     16191     16189     16192     16193     16191     16189     16192     16194
     16191     16189     16192     16195     16192     16195     16198     16199
     16192     16195     16198     16200     16192     16195     16198     16201
     16193     16192     16195     16196     16193     16192     16195     16197
     16193     16192     16195     16198     16194     16192     16195     16196
     16194     16192     16195     16197     16194     16192     16195     16198
     16195     16198     16201     16202     16195     16198     16201     16203
     16195     16198     16201     16204     16196     16195     16198     16199
     16196     16195     16198     16200     16196     16195     16198     16201
     16197     16195     16198     16199     16197     16195     16198     16200
     16197     16195     16198     16201     16198     16201     16204     16205
     16198     16201     16204     16206     16198     16201     16204     16207
     16199     16198     16201     16202     16199     16198     16201     16203
     16199     16198     16201     16204     16200     16198     16201     16202
     16200     16198     16201     16203     16200     16198     16201     16204
     16201     16204     16207     16208     16201     16204     16207     16209
     16201     16204     16207     16210     16202     16201     16204     16205
     16202     16201     16204     16206     16202     16201     16204     16207
     16203     16201     16204     16205     16203     16201     16204     16206
     16203     16201     16204     16207     16205     16204     16207     16208
     16205     16204     16207     16209     16205     16204     16207     16210
     16206     16204     16207     16208     16206     16204     16207     16209
     16206     16204     16207     16210     16211     16214     16217     16218
     16211     16214     16217     16219     16211     16214     16217     16220
     16212     16211     16214     16215     16212     16211     16214     16216
     16212     16211     16214     16217     16213     16211     16214     16215
     16213     16211     16214     16216     16213     16211     16214     16217
     16214     16217     16220     16221     16214     16217     16220     16222
     16214     16217     16220     16223     16215     16214     16217     16218
     16215     16214     16217     16219     16215     16214     16217     16220
     16216     16214     16217     16218     16216     16214     16217     16219
     16216     16214     16217     16220     16217     16220     16223     16224
     16217     16220     16223     16225     16217     16220     16223     16226
     16218     16217     16220     16221     16218     16217     16220     16222
     16218     16217     16220     16223     16219     16217     16220     16221
     16219     16217     16220     16222     16219     16217     16220     16223
     16220     16223     16226     16227     16220     16223     16226     16228
     16220     16223     16226     16229     16221     16220     16223     16224
     16221     16220     16223     16225     16221     16220     16223     16226
     16222     16220     16223     16224     16222     16220     16223     16225
     16222     16220     16223     16226     16223     16226     16229     16230
     16223     16226     16229     16231     16223     16226     16229     16232
     16224     16223     16226     16227     16224     16223     16226     16228
     16224     16223     16226     16229     16225     16223     16226     16227
     16225     16223     16226     16228     16225     16223     16226     16229
     16226     16229     16232     16233     16226     16229     16232     16234
     16226     16229     16232     16235     16227     16226     16229     16230
     16227     16226     16229     16231     16227     16226     16229     16232
     16228     16226     16229     16230     16228     16226     16229     16231
     16228     16226     16229     16232     16229     16232     16235     16236
     16229     16232     16235     16237     16229     16232     16235     16238
     16230     16229     16232     16233     16230     16229     16232     16234
     16230     16229     16232     16235     16231     16229     16232     16233
     16231     16229     16232     16234     16231     16229     16232     16235
     16232     16235     16238     16239     16232     16235     16238     16240
     16232     16235     16238     16241     16233     16232     16235     16236
     16233     16232     16235     16237     16233     16232     16235     16238
     16234     16232     16235     16236     16234     16232     16235     16237
     16234     16232     16235     16238     16235     16238     16241     16242
     16235     16238     16241     16243     16235     16238     16241     16244
     16236     16235     16238     16239     16236     16235     16238     16240
     16236     16235     16238     16241     16237     16235     16238     16239
     16237     16235     16238     16240     16237     16235     16238     16241
     16238     16241     16244     16245     16238     16241     16244     16246
     16238     16241     16244     16247     16239     16238     16241     16242
     16239     16238     16241     16243     16239     16238     16241     16244
     16240     16238     16241     16242     16240     16238     16241     16243
     16240     16238     16241     16244     16241     16244     16247     16248
     16241     16244     16247     16249     16241     16244     16247     16250
     16242     16241     16244     16245     16242     16241     16244     16246
     16242     16241     16244     16247     16243     16241     16244     16245
     16243     16241     16244     16246     16243     16241     16244     16247
     16244     16247     16250     16251     16244     16247     16250     16252
     16244     16247     16250     16253     16245     16244     16247     16248
     16245     16244     16247     16249     16245     16244     16247     16250
     16246     16244     16247     16248     16246     16244     16247     16249
     16246     16244     16247     16250     16248     16247     16250     16251
     16248     16247     16250     16252     16248     16247     16250     16253
     16249     16247     16250     16251     16249     16247     16250     16252
     16249     16247     16250     16253     16254     16255     16270     16271
     16254     16255     16270     16272     16254     16255     16270     16276
     16255     16254     16258     16259     16255     16254     16258     16260
     16255     16254     16258     16261     16255     16254     16262     16263
     16255     16254     16262     16264     16255     16254     16262     16265
     16255     16254     16266     16267     16255     16254     16266     16268
     16255     16254     16266     16269     16255     16270     16276     16273
     16256     16255     16254     16258     16256     16255     16254     16262
     16256     16255     16254     16266     16256     16255     16270     16271
     16256     16255     16270     16272     16256     16255     16270     16276
     16257     16255     16254     16258     16257     16255     16254     16262
     16257     16255     16254     16266     16257     16255     16270     16271
     16257     16255     16270     16272     16257     16255     16270     16276
     16258     16254     16255     16270     16258     16254     16262     16263
     16258     16254     16262     16264     16258     16254     16262     16265
     16258     16254     16266     16267     16258     16254     16266     16268
     16258     16254     16266     16269     16259     16258     16254     16262
     16259     16258     16254     16266     16260     16258     16254     16262
     16260     16258     16254     16266     16261     16258     16254     16262
     16261     16258     16254     16266     16262     16254     16255     16270
     16262     16254     16266     16267     16262     16254     16266     16268
     16262     16254     16266     16269     16263     16262     16254     16266
     16264     16262     16254     16266     16265     16262     16254     16266
     16266     16254     16255     16270     16270     16276     16273     16274
     16270     16276     16273     16275     16270     16276     16273     16277
     16271     16270     16276     16273     16272     16270     16276     16273
     16273     16277     16278     16279     16273     16277     16278     16280
     16273     16277     16278     16281     16274     16273     16277     16278
     16275     16273     16277     16278     16276     16273     16277     16278
     16277     16278     16281     16282     16277     16278     16281     16283
     16277     16278     16281     16289     16278     16281     16283     16284
     16278     16281     16289     16290     16278     16281     16289     16291
     16278     16281     16289     16292     16279     16278     16281     16282
     16279     16278     16281     16283     16279     16278     16281     16289
     16280     16278     16281     16282     16280     16278     16281     16283
     16280     16278     16281     16289     16281     16283     16284     16285
     16281     16283     16284     16286     16281     16289     16292     16293
     16282     16281     16283     16284     16282     16281     16289     16290
     16282     16281     16289     16291     16282     16281     16289     16292
     16283     16281     16289     16290     16283     16281     16289     16291
     16283     16281     16289     16292     16283     16284     16286     16287
     16283     16284     16286     16288     16283     16284     16286     16298
     16284     16283     16281     16289     16284     16286     16298     16299
     16284     16286     16298     16300     16284     16286     16298     16301
     16285     16284     16286     16287     16285     16284     16286     16288
     16285     16284     16286     16298     16286     16298     16301     16302
     16286     16298     16301     16303     16286     16298     16301     16304
     16287     16286     16298     16299     16287     16286     16298     16300
     16287     16286     16298     16301     16288     16286     16298     16299
     16288     16286     16298     16300     16288     16286     16298     16301
     16289     16292     16293     16294     16289     16292     16293     16295
     16290     16289     16292     16293     16291     16289     16292     16293
     16292     16293     16295     16296     16292     16293     16295     16297
     16292     16293     16295     16345     16293     16295     16345     16346
     16293     16295     16345     16347     16293     16295     16345     16348
     16294     16293     16295     16296     16294     16293     16295     16297
     16294     16293     16295     16345     16295     16345     16348     16349
     16295     16345     16348     16350     16295     16345     16348     16351
     16296     16295     16345     16346     16296     16295     16345     16347
     16296     16295     16345     16348     16297     16295     16345     16346
     16297     16295     16345     16347     16297     16295     16345     16348
     16298     16301     16304     16305     16298     16301     16304     16306
     16298     16301     16304     16307     16299     16298     16301     16302
     16299     16298     16301     16303     16299     16298     16301     16304
     16300     16298     16301     16302     16300     16298     16301     16303
     16300     16298     16301     16304     16301     16304     16307     16308
     16301     16304     16307     16309     16301     16304     16307     16310
     16302     16301     16304     16305     16302     16301     16304     16306
     16302     16301     16304     16307     16303     16301     16304     16305
     16303     16301     16304     16306     16303     16301     16304     16307
     16304     16307     16310     16311     16304     16307     16310     16312
     16304     16307     16310     16313     16305     16304     16307     16308
     16305     16304     16307     16309     16305     16304     16307     16310
     16306     16304     16307     16308     16306     16304     16307     16309
     16306     16304     16307     16310     16307     16310     16313     16314
     16307     16310     16313     16315     16307     16310     16313     16316
     16308     16307     16310     16311     16308     16307     16310     16312
     16308     16307     16310     16313     16309     16307     16310     16311
     16309     16307     16310     16312     16309     16307     16310     16313
     16310     16313     16316     16317     16310     16313     16316     16318
     16311     16310     16313     16314     16311     16310     16313     16315
     16311     16310     16313     16316     16312     16310     16313     16314
     16312     16310     16313     16315     16312     16310     16313     16316
     16313     16316     16318     16319     16313     16316     16318     16320
     16314     16313     16316     16317     16314     16313     16316     16318
     16315     16313     16316     16317     16315     16313     16316     16318
     16316     16318     16320     16321     16316     16318     16320     16322
     16316     16318     16320     16323     16317     16316     16318     16319
     16317     16316     16318     16320     16318     16320     16323     16324
     16318     16320     16323     16325     16318     16320     16323     16326
     16319     16318     16320     16321     16319     16318     16320     16322
     16319     16318     16320     16323     16320     16323     16326     16327
     16320     16323     16326     16328     16320     16323     16326     16329
     16321     16320     16323     16324     16321     16320     16323     16325
     16321     16320     16323     16326     16322     16320     16323     16324
     16322     16320     16323     16325     16322     16320     16323     16326
     16323     16326     16329     16330     16323     16326     16329     16331
     16323     16326     16329     16332     16324     16323     16326     16327
     16324     16323     16326     16328     16324     16323     16326     16329
     16325     16323     16326     16327     16325     16323     16326     16328
     16325     16323     16326     16329     16326     16329     16332     16333
     16326     16329     16332     16334     16326     16329     16332     16335
     16327     16326     16329     16330     16327     16326     16329     16331
     16327     16326     16329     16332     16328     16326     16329     16330
     16328     16326     16329     16331     16328     16326     16329     16332
     16329     16332     16335     16336     16329     16332     16335     16337
     16329     16332     16335     16338     16330     16329     16332     16333
     16330     16329     16332     16334     16330     16329     16332     16335
     16331     16329     16332     16333     16331     16329     16332     16334
     16331     16329     16332     16335     16332     16335     16338     16339
     16332     16335     16338     16340     16332     16335     16338     16341
     16333     16332     16335     16336     16333     16332     16335     16337
     16333     16332     16335     16338     16334     16332     16335     16336
     16334     16332     16335     16337     16334     16332     16335     16338
     16335     16338     16341     16342     16335     16338     16341     16343
     16335     16338     16341     16344     16336     16335     16338     16339
     16336     16335     16338     16340     16336     16335     16338     16341
     16337     16335     16338     16339     16337     16335     16338     16340
     16337     16335     16338     16341     16339     16338     16341     16342
     16339     16338     16341     16343     16339     16338     16341     16344
     16340     16338     16341     16342     16340     16338     16341     16343
     16340     16338     16341     16344     16345     16348     16351     16352
     16345     16348     16351     16353     16345     16348     16351     16354
     16346     16345     16348     16349     16346     16345     16348     16350
     16346     16345     16348     16351     16347     16345     16348     16349
     16347     16345     16348     16350     16347     16345     16348     16351
     16348     16351     16354     16355     16348     16351     16354     16356
     16348     16351     16354     16357     16349     16348     16351     16352
     16349     16348     16351     16353     16349     16348     16351     16354
     16350     16348     16351     16352     16350     16348     16351     16353
     16350     16348     16351     16354     16351     16354     16357     16358
     16351     16354     16357     16359     16351     16354     16357     16360
     16352     16351     16354     16355     16352     16351     16354     16356
     16352     16351     16354     16357     16353     16351     16354     16355
     16353     16351     16354     16356     16353     16351     16354     16357
     16354     16357     16360     16361     16354     16357     16360     16362
     16354     16357     16360     16363     16355     16354     16357     16358
     16355     16354     16357     16359     16355     16354     16357     16360
     16356     16354     16357     16358     16356     16354     16357     16359
     16356     16354     16357     16360     16357     16360     16363     16364
     16357     16360     16363     16365     16357     16360     16363     16366
     16358     16357     16360     16361     16358     16357     16360     16362
     16358     16357     16360     16363     16359     16357     16360     16361
     16359     16357     16360     16362     16359     16357     16360     16363
     16360     16363     16366     16367     16360     16363     16366     16368
     16360     16363     16366     16369     16361     16360     16363     16364
     16361     16360     16363     16365     16361     16360     16363     16366
     16362     16360     16363     16364     16362     16360     16363     16365
     16362     16360     16363     16366     16363     16366     16369     16370
     16363     16366     16369     16371     16363     16366     16369     16372
     16364     16363     16366     16367     16364     16363     16366     16368
     16364     16363     16366     16369     16365     16363     16366     16367
     16365     16363     16366     16368     16365     16363     16366     16369
     16366     16369     16372     16373     16366     16369     16372     16374
     16366     16369     16372     16375     16367     16366     16369     16370
     16367     16366     16369     16371     16367     16366     16369     16372
     16368     16366     16369     16370     16368     16366     16369     16371
     16368     16366     16369     16372     16369     16372     16375     16376
     16369     16372     16375     16377     16369     16372     16375     16378
     16370     16369     16372     16373     16370     16369     16372     16374
     16370     16369     16372     16375     16371     16369     16372     16373
     16371     16369     16372     16374     16371     16369     16372     16375
     16372     16375     16378     16379     16372     16375     16378     16380
     16372     16375     16378     16381     16373     16372     16375     16376
     16373     16372     16375     16377     16373     16372     16375     16378
     16374     16372     16375     16376     16374     16372     16375     16377
     16374     16372     16375     16378     16375     16378     16381     16382
     16375     16378     16381     16383     16375     16378     16381     16384
     16376     16375     16378     16379     16376     16375     16378     16380
     16376     16375     16378     16381     16377     16375     16378     16379
     16377     16375     16378     16380     16377     16375     16378     16381
     16378     16381     16384     16385     16378     16381     16384     16386
     16378     16381     16384     16387     16379     16378     16381     16382
     16379     16378     16381     16383     16379     16378     16381     16384
     16380     16378     16381     16382     16380     16378     16381     16383
     16380     16378     16381     16384     16382     16381     16384     16385
     16382     16381     16384     16386     16382     16381     16384     16387
     16383     16381     16384     16385     16383     16381     16384     16386
     16383     16381     16384     16387     16388     16392     16395     16396
     16388     16392     16395     16397     16388     16392     16395     16402
     16389     16388     16392     16393     16389     16388     16392     16394
     16389     16388     16392     16395     16390     16388     16392     16393
     16390     16388     16392     16394     16390     16388     16392     16395
     16391     16388     16392     16393     16391     16388     16392     16394
     16391     16388     16392     16395     16392     16395     16402     16398
     16393     16392     16395     16396     16393     16392     16395     16397
     16393     16392     16395     16402     16394     16392     16395     16396
     16394     16392     16395     16397     16394     16392     16395     16402
     16395     16402     16398     16399     16395     16402     16398     16400
     16395     16402     16398     16401     16396     16395     16402     16398
     16397     16395     16402     16398     16398     16401     16403     16404
     16398     16401     16403     16405     16398     16401     16403     16406
     16399     16398     16401     16403     16400     16398     16401     16403
     16401     16403     16406     16407     16401     16403     16406     16408
     16401     16403     16406     16414     16402     16398     16401     16403
     16403     16406     16408     16409     16403     16406     16414     16415
     16403     16406     16414     16416     16403     16406     16414     16417
     16404     16403     16406     16407     16404     16403     16406     16408
     16404     16403     16406     16414     16405     16403     16406     16407
     16405     16403     16406     16408     16405     16403     16406     16414
     16406     16408     16409     16410     16406     16408     16409     16411
     16406     16414     16417     16418     16407     16406     16408     16409
     16407     16406     16414     16415     16407     16406     16414     16416
     16407     16406     16414     16417     16408     16406     16414     16415
     16408     16406     16414     16416     16408     16406     16414     16417
     16408     16409     16411     16412     16408     16409     16411     16413
     16408     16409     16411     16423     16409     16408     16406     16414
     16409     16411     16423     16424     16409     16411     16423     16425
     16409     16411     16423     16426     16410     16409     16411     16412
     16410     16409     16411     16413     16410     16409     16411     16423
     16411     16423     16426     16427     16411     16423     16426     16428
     16411     16423     16426     16429     16412     16411     16423     16424
     16412     16411     16423     16425     16412     16411     16423     16426
     16413     16411     16423     16424     16413     16411     16423     16425
     16413     16411     16423     16426     16414     16417     16418     16419
     16414     16417     16418     16420     16415     16414     16417     16418
     16416     16414     16417     16418     16417     16418     16420     16421
     16417     16418     16420     16422     16417     16418     16420     16470
     16418     16420     16470     16471     16418     16420     16470     16472
     16418     16420     16470     16473     16419     16418     16420     16421
     16419     16418     16420     16422     16419     16418     16420     16470
     16420     16470     16473     16474     16420     16470     16473     16475
     16420     16470     16473     16476     16421     16420     16470     16471
     16421     16420     16470     16472     16421     16420     16470     16473
     16422     16420     16470     16471     16422     16420     16470     16472
     16422     16420     16470     16473     16423     16426     16429     16430
     16423     16426     16429     16431     16423     16426     16429     16432
     16424     16423     16426     16427     16424     16423     16426     16428
     16424     16423     16426     16429     16425     16423     16426     16427
     16425     16423     16426     16428     16425     16423     16426     16429
     16426     16429     16432     16433     16426     16429     16432     16434
     16426     16429     16432     16435     16427     16426     16429     16430
     16427     16426     16429     16431     16427     16426     16429     16432
     16428     16426     16429     16430     16428     16426     16429     16431
     16428     16426     16429     16432     16429     16432     16435     16436
     16429     16432     16435     16437     16429     16432     16435     16438
     16430     16429     16432     16433     16430     16429     16432     16434
     16430     16429     16432     16435     16431     16429     16432     16433
     16431     16429     16432     16434     16431     16429     16432     16435
     16432     16435     16438     16439     16432     16435     16438     16440
     16432     16435     16438     16441     16433     16432     16435     16436
     16433     16432     16435     16437     16433     16432     16435     16438
     16434     16432     16435     16436     16434     16432     16435     16437
     16434     16432     16435     16438     16435     16438     16441     16442
     16435     16438     16441     16443     16436     16435     16438     16439
     16436     16435     16438     16440     16436     16435     16438     16441
     16437     16435     16438     16439     16437     16435     16438     16440
     16437     16435     16438     16441     16438     16441     16443     16444
     16438     16441     16443     16445     16439     16438     16441     16442
     16439     16438     16441     16443     16440     16438     16441     16442
     16440     16438     16441     16443     16441     16443     16445     16446
     16441     16443     16445     16447     16441     16443     16445     16448
     16442     16441     16443     16444     16442     16441     16443     16445
     16443     16445     16448     16449     16443     16445     16448     16450
     16443     16445     16448     16451     16444     16443     16445     16446
     16444     16443     16445     16447     16444     16443     16445     16448
     16445     16448     16451     16452     16445     16448     16451     16453
     16445     16448     16451     16454     16446     16445     16448     16449
     16446     16445     16448     16450     16446     16445     16448     16451
     16447     16445     16448     16449     16447     16445     16448     16450
     16447     16445     16448     16451     16448     16451     16454     16455
     16448     16451     16454     16456     16448     16451     16454     16457
     16449     16448     16451     16452     16449     16448     16451     16453
     16449     16448     16451     16454     16450     16448     16451     16452
     16450     16448     16451     16453     16450     16448     16451     16454
     16451     16454     16457     16458     16451     16454     16457     16459
     16451     16454     16457     16460     16452     16451     16454     16455
     16452     16451     16454     16456     16452     16451     16454     16457
     16453     16451     16454     16455     16453     16451     16454     16456
     16453     16451     16454     16457     16454     16457     16460     16461
     16454     16457     16460     16462     16454     16457     16460     16463
     16455     16454     16457     16458     16455     16454     16457     16459
     16455     16454     16457     16460     16456     16454     16457     16458
     16456     16454     16457     16459     16456     16454     16457     16460
     16457     16460     16463     16464     16457     16460     16463     16465
     16457     16460     16463     16466     16458     16457     16460     16461
     16458     16457     16460     16462     16458     16457     16460     16463
     16459     16457     16460     16461     16459     16457     16460     16462
     16459     16457     16460     16463     16460     16463     16466     16467
     16460     16463     16466     16468     16460     16463     16466     16469
     16461     16460     16463     16464     16461     16460     16463     16465
     16461     16460     16463     16466     16462     16460     16463     16464
     16462     16460     16463     16465     16462     16460     16463     16466
     16464     16463     16466     16467     16464     16463     16466     16468
     16464     16463     16466     16469     16465     16463     16466     16467
     16465     16463     16466     16468     16465     16463     16466     16469
     16470     16473     16476     16477     16470     16473     16476     16478
     16470     16473     16476     16479     16471     16470     16473     16474
     16471     16470     16473     16475     16471     16470     16473     16476
     16472     16470     16473     16474     16472     16470     16473     16475
     16472     16470     16473     16476     16473     16476     16479     16480
     16473     16476     16479     16481     16473     16476     16479     16482
     16474     16473     16476     16477     16474     16473     16476     16478
     16474     16473     16476     16479     16475     16473     16476     16477
     16475     16473     16476     16478     16475     16473     16476     16479
     16476     16479     16482     16483     16476     16479     16482     16484
     16476     16479     16482     16485     16477     16476     16479     16480
     16477     16476     16479     16481     16477     16476     16479     16482
     16478     16476     16479     16480     16478     16476     16479     16481
     16478     16476     16479     16482     16479     16482     16485     16486
     16479     16482     16485     16487     16479     16482     16485     16488
     16480     16479     16482     16483     16480     16479     16482     16484
     16480     16479     16482     16485     16481     16479     16482     16483
     16481     16479     16482     16484     16481     16479     16482     16485
     16482     16485     16488     16489     16482     16485     16488     16490
     16482     16485     16488     16491     16483     16482     16485     16486
     16483     16482     16485     16487     16483     16482     16485     16488
     16484     16482     16485     16486     16484     16482     16485     16487
     16484     16482     16485     16488     16485     16488     16491     16492
     16485     16488     16491     16493     16485     16488     16491     16494
     16486     16485     16488     16489     16486     16485     16488     16490
     16486     16485     16488     16491     16487     16485     16488     16489
     16487     16485     16488     16490     16487     16485     16488     16491
     16488     16491     16494     16495     16488     16491     16494     16496
     16488     16491     16494     16497     16489     16488     16491     16492
     16489     16488     16491     16493     16489     16488     16491     16494
     16490     16488     16491     16492     16490     16488     16491     16493
     16490     16488     16491     16494     16491     16494     16497     16498
     16491     16494     16497     16499     16491     16494     16497     16500
     16492     16491     16494     16495     16492     16491     16494     16496
     16492     16491     16494     16497     16493     16491     16494     16495
     16493     16491     16494     16496     16493     16491     16494     16497
     16494     16497     16500     16501     16494     16497     16500     16502
     16494     16497     16500     16503     16495     16494     16497     16498
     16495     16494     16497     16499     16495     16494     16497     16500
     16496     16494     16497     16498     16496     16494     16497     16499
     16496     16494     16497     16500     16497     16500     16503     16504
     16497     16500     16503     16505     16497     16500     16503     16506
     16498     16497     16500     16501     16498     16497     16500     16502
     16498     16497     16500     16503     16499     16497     16500     16501
     16499     16497     16500     16502     16499     16497     16500     16503
     16500     16503     16506     16507     16500     16503     16506     16508
     16500     16503     16506     16509     16501     16500     16503     16504
     16501     16500     16503     16505     16501     16500     16503     16506
     16502     16500     16503     16504     16502     16500     16503     16505
     16502     16500     16503     16506     16503     16506     16509     16510
     16503     16506     16509     16511     16503     16506     16509     16512
     16504     16503     16506     16507     16504     16503     16506     16508
     16504     16503     16506     16509     16505     16503     16506     16507
     16505     16503     16506     16508     16505     16503     16506     16509
     16507     16506     16509     16510     16507     16506     16509     16511
     16507     16506     16509     16512     16508     16506     16509     16510
     16508     16506     16509     16511     16508     16506     16509     16512
     16513     16514     16529     16530     16513     16514     16529     16531
     16513     16514     16529     16535     16514     16513     16517     16518
     16514     16513     16517     16519     16514     16513     16517     16520
     16514     16513     16521     16522     16514     16513     16521     16523
     16514     16513     16521     16524     16514     16513     16525     16526
     16514     16513     16525     16527     16514     16513     16525     16528
     16514     16529     16535     16532     16515     16514     16513     16517
     16515     16514     16513     16521     16515     16514     16513     16525
     16515     16514     16529     16530     16515     16514     16529     16531
     16515     16514     16529     16535     16516     16514     16513     16517
     16516     16514     16513     16521     16516     16514     16513     16525
     16516     16514     16529     16530     16516     16514     16529     16531
     16516     16514     16529     16535     16517     16513     16514     16529
     16517     16513     16521     16522     16517     16513     16521     16523
     16517     16513     16521     16524     16517     16513     16525     16526
     16517     16513     16525     16527     16517     16513     16525     16528
     16518     16517     16513     16521     16518     16517     16513     16525
     16519     16517     16513     16521     16519     16517     16513     16525
     16520     16517     16513     16521     16520     16517     16513     16525
     16521     16513     16514     16529     16521     16513     16525     16526
     16521     16513     16525     16527     16521     16513     16525     16528
     16522     16521     16513     16525     16523     16521     16513     16525
     16524     16521     16513     16525     16525     16513     16514     16529
     16529     16535     16532     16533     16529     16535     16532     16534
     16529     16535     16532     16536     16530     16529     16535     16532
     16531     16529     16535     16532     16532     16536     16537     16538
     16532     16536     16537     16539     16532     16536     16537     16540
     16533     16532     16536     16537     16534     16532     16536     16537
     16535     16532     16536     16537     16536     16537     16540     16541
     16536     16537     16540     16542     16536     16537     16540     16548
     16537     16540     16542     16543     16537     16540     16548     16549
     16537     16540     16548     16550     16537     16540     16548     16551
     16538     16537     16540     16541     16538     16537     16540     16542
     16538     16537     16540     16548     16539     16537     16540     16541
     16539     16537     16540     16542     16539     16537     16540     16548
     16540     16542     16543     16544     16540     16542     16543     16545
     16540     16548     16551     16552     16541     16540     16542     16543
     16541     16540     16548     16549     16541     16540     16548     16550
     16541     16540     16548     16551     16542     16540     16548     16549
     16542     16540     16548     16550     16542     16540     16548     16551
     16542     16543     16545     16546     16542     16543     16545     16547
     16542     16543     16545     16557     16543     16542     16540     16548
     16543     16545     16557     16558     16543     16545     16557     16559
     16543     16545     16557     16560     16544     16543     16545     16546
     16544     16543     16545     16547     16544     16543     16545     16557
     16545     16557     16560     16561     16545     16557     16560     16562
     16545     16557     16560     16563     16546     16545     16557     16558
     16546     16545     16557     16559     16546     16545     16557     16560
     16547     16545     16557     16558     16547     16545     16557     16559
     16547     16545     16557     16560     16548     16551     16552     16553
     16548     16551     16552     16554     16549     16548     16551     16552
     16550     16548     16551     16552     16551     16552     16554     16555
     16551     16552     16554     16556     16551     16552     16554     16604
     16552     16554     16604     16605     16552     16554     16604     16606
     16552     16554     16604     16607     16553     16552     16554     16555
     16553     16552     16554     16556     16553     16552     16554     16604
     16554     16604     16607     16608     16554     16604     16607     16609
     16554     16604     16607     16610     16555     16554     16604     16605
     16555     16554     16604     16606     16555     16554     16604     16607
     16556     16554     16604     16605     16556     16554     16604     16606
     16556     16554     16604     16607     16557     16560     16563     16564
     16557     16560     16563     16565     16557     16560     16563     16566
     16558     16557     16560     16561     16558     16557     16560     16562
     16558     16557     16560     16563     16559     16557     16560     16561
     16559     16557     16560     16562     16559     16557     16560     16563
     16560     16563     16566     16567     16560     16563     16566     16568
     16560     16563     16566     16569     16561     16560     16563     16564
     16561     16560     16563     16565     16561     16560     16563     16566
     16562     16560     16563     16564     16562     16560     16563     16565
     16562     16560     16563     16566     16563     16566     16569     16570
     16563     16566     16569     16571     16563     16566     16569     16572
     16564     16563     16566     16567     16564     16563     16566     16568
     16564     16563     16566     16569     16565     16563     16566     16567
     16565     16563     16566     16568     16565     16563     16566     16569
     16566     16569     16572     16573     16566     16569     16572     16574
     16566     16569     16572     16575     16567     16566     16569     16570
     16567     16566     16569     16571     16567     16566     16569     16572
     16568     16566     16569     16570     16568     16566     16569     16571
     16568     16566     16569     16572     16569     16572     16575     16576
     16569     16572     16575     16577     16570     16569     16572     16573
     16570     16569     16572     16574     16570     16569     16572     16575
     16571     16569     16572     16573     16571     16569     16572     16574
     16571     16569     16572     16575     16572     16575     16577     16578
     16572     16575     16577     16579     16573     16572     16575     16576
     16573     16572     16575     16577     16574     16572     16575     16576
     16574     16572     16575     16577     16575     16577     16579     16580
     16575     16577     16579     16581     16575     16577     16579     16582
     16576     16575     16577     16578     16576     16575     16577     16579
     16577     16579     16582     16583     16577     16579     16582     16584
     16577     16579     16582     16585     16578     16577     16579     16580
     16578     16577     16579     16581     16578     16577     16579     16582
     16579     16582     16585     16586     16579     16582     16585     16587
     16579     16582     16585     16588     16580     16579     16582     16583
     16580     16579     16582     16584     16580     16579     16582     16585
     16581     16579     16582     16583     16581     16579     16582     16584
     16581     16579     16582     16585     16582     16585     16588     16589
     16582     16585     16588     16590     16582     16585     16588     16591
     16583     16582     16585     16586     16583     16582     16585     16587
     16583     16582     16585     16588     16584     16582     16585     16586
     16584     16582     16585     16587     16584     16582     16585     16588
     16585     16588     16591     16592     16585     16588     16591     16593
     16585     16588     16591     16594     16586     16585     16588     16589
     16586     16585     16588     16590     16586     16585     16588     16591
     16587     16585     16588     16589     16587     16585     16588     16590
     16587     16585     16588     16591     16588     16591     16594     16595
     16588     16591     16594     16596     16588     16591     16594     16597
     16589     16588     16591     16592     16589     16588     16591     16593
     16589     16588     16591     16594     16590     16588     16591     16592
     16590     16588     16591     16593     16590     16588     16591     16594
     16591     16594     16597     16598     16591     16594     16597     16599
     16591     16594     16597     16600     16592     16591     16594     16595
     16592     16591     16594     16596     16592     16591     16594     16597
     16593     16591     16594     16595     16593     16591     16594     16596
     16593     16591     16594     16597     16594     16597     16600     16601
     16594     16597     16600     16602     16594     16597     16600     16603
     16595     16594     16597     16598     16595     16594     16597     16599
     16595     16594     16597     16600     16596     16594     16597     16598
     16596     16594     16597     16599     16596     16594     16597     16600
     16598     16597     16600     16601     16598     16597     16600     16602
     16598     16597     16600     16603     16599     16597     16600     16601
     16599     16597     16600     16602     16599     16597     16600     16603
     16604     16607     16610     16611     16604     16607     16610     16612
     16604     16607     16610     16613     16605     16604     16607     16608
     16605     16604     16607     16609     16605     16604     16607     16610
     16606     16604     16607     16608     16606     16604     16607     16609
     16606     16604     16607     16610     16607     16610     16613     16614
     16607     16610     16613     16615     16607     16610     16613     16616
     16608     16607     16610     16611     16608     16607     16610     16612
     16608     16607     16610     16613     16609     16607     16610     16611
     16609     16607     16610     16612     16609     16607     16610     16613
     16610     16613     16616     16617     16610     16613     16616     16618
     16610     16613     16616     16619     16611     16610     16613     16614
     16611     16610     16613     16615     16611     16610     16613     16616
     16612     16610     16613     16614     16612     16610     16613     16615
     16612     16610     16613     16616     16613     16616     16619     16620
     16613     16616     16619     16621     16613     16616     16619     16622
     16614     16613     16616     16617     16614     16613     16616     16618
     16614     16613     16616     16619     16615     16613     16616     16617
     16615     16613     16616     16618     16615     16613     16616     16619
     16616     16619     16622     16623     16616     16619     16622     16624
     16616     16619     16622     16625     16617     16616     16619     16620
     16617     16616     16619     16621     16617     16616     16619     16622
     16618     16616     16619     16620     16618     16616     16619     16621
     16618     16616     16619     16622     16619     16622     16625     16626
     16619     16622     16625     16627     16619     16622     16625     16628
     16620     16619     16622     16623     16620     16619     16622     16624
     16620     16619     16622     16625     16621     16619     16622     16623
     16621     16619     16622     16624     16621     16619     16622     16625
     16622     16625     16628     16629     16622     16625     16628     16630
     16622     16625     16628     16631     16623     16622     16625     16626
     16623     16622     16625     16627     16623     16622     16625     16628
     16624     16622     16625     16626     16624     16622     16625     16627
     16624     16622     16625     16628     16625     16628     16631     16632
     16625     16628     16631     16633     16625     16628     16631     16634
     16626     16625     16628     16629     16626     16625     16628     16630
     16626     16625     16628     16631     16627     16625     16628     16629
     16627     16625     16628     16630     16627     16625     16628     16631
     16628     16631     16634     16635     16628     16631     16634     16636
     16628     16631     16634     16637     16629     16628     16631     16632
     16629     16628     16631     16633     16629     16628     16631     16634
     16630     16628     16631     16632     16630     16628     16631     16633
     16630     16628     16631     16634     16631     16634     16637     16638
     16631     16634     16637     16639     16631     16634     16637     16640
     16632     16631     16634     16635     16632     16631     16634     16636
     16632     16631     16634     16637     16633     16631     16634     16635
     16633     16631     16634     16636     16633     16631     16634     16637
     16634     16637     16640     16641     16634     16637     16640     16642
     16634     16637     16640     16643     16635     16634     16637     16638
     16635     16634     16637     16639     16635     16634     16637     16640
     16636     16634     16637     16638     16636     16634     16637     16639
     16636     16634     16637     16640     16637     16640     16643     16644
     16637     16640     16643     16645     16637     16640     16643     16646
     16638     16637     16640     16641     16638     16637     16640     16642
     16638     16637     16640     16643     16639     16637     16640     16641
     16639     16637     16640     16642     16639     16637     16640     16643
     16641     16640     16643     16644     16641     16640     16643     16645
     16641     16640     16643     16646     16642     16640     16643     16644
     16642     16640     16643     16645     16642     16640     16643     16646
     16647     16648     16663     16664     16647     16648     16663     16665
     16647     16648     16663     16669     16648     16647     16651     16652
     16648     16647     16651     16653     16648     16647     16651     16654
     16648     16647     16655     16656     16648     16647     16655     16657
     16648     16647     16655     16658     16648     16647     16659     16660
     16648     16647     16659     16661     16648     16647     16659     16662
     16648     16663     16669     16666     16649     16648     16647     16651
     16649     16648     16647     16655     16649     16648     16647     16659
     16649     16648     16663     16664     16649     16648     16663     16665
     16649     16648     16663     16669     16650     16648     16647     16651
     16650     16648     16647     16655     16650     16648     16647     16659
     16650     16648     16663     16664     16650     16648     16663     16665
     16650     16648     16663     16669     16651     16647     16648     16663
     16651     16647     16655     16656     16651     16647     16655     16657
     16651     16647     16655     16658     16651     16647     16659     16660
     16651     16647     16659     16661     16651     16647     16659     16662
     16652     16651     16647     16655     16652     16651     16647     16659
     16653     16651     16647     16655     16653     16651     16647     16659
     16654     16651     16647     16655     16654     16651     16647     16659
     16655     16647     16648     16663     16655     16647     16659     16660
     16655     16647     16659     16661     16655     16647     16659     16662
     16656     16655     16647     16659     16657     16655     16647     16659
     16658     16655     16647     16659     16659     16647     16648     16663
     16663     16669     16666     16667     16663     16669     16666     16668
     16663     16669     16666     16670     16664     16663     16669     16666
     16665     16663     16669     16666     16666     16670     16671     16672
     16666     16670     16671     16673     16666     16670     16671     16674
     16667     16666     16670     16671     16668     16666     16670     16671
     16669     16666     16670     16671     16670     16671     16674     16675
     16670     16671     16674     16676     16670     16671     16674     16682
     16671     16674     16676     16677     16671     16674     16682     16683
     16671     16674     16682     16684     16671     16674     16682     16685
     16672     16671     16674     16675     16672     16671     16674     16676
     16672     16671     16674     16682     16673     16671     16674     16675
     16673     16671     16674     16676     16673     16671     16674     16682
     16674     16676     16677     16678     16674     16676     16677     16679
     16674     16682     16685     16686     16675     16674     16676     16677
     16675     16674     16682     16683     16675     16674     16682     16684
     16675     16674     16682     16685     16676     16674     16682     16683
     16676     16674     16682     16684     16676     16674     16682     16685
     16676     16677     16679     16680     16676     16677     16679     16681
     16676     16677     16679     16691     16677     16676     16674     16682
     16677     16679     16691     16692     16677     16679     16691     16693
     16677     16679     16691     16694     16678     16677     16679     16680
     16678     16677     16679     16681     16678     16677     16679     16691
     16679     16691     16694     16695     16679     16691     16694     16696
     16679     16691     16694     16697     16680     16679     16691     16692
     16680     16679     16691     16693     16680     16679     16691     16694
     16681     16679     16691     16692     16681     16679     16691     16693
     16681     16679     16691     16694     16682     16685     16686     16687
     16682     16685     16686     16688     16683     16682     16685     16686
     16684     16682     16685     16686     16685     16686     16688     16689
     16685     16686     16688     16690     16685     16686     16688     16738
     16686     16688     16738     16739     16686     16688     16738     16740
     16686     16688     16738     16741     16687     16686     16688     16689
     16687     16686     16688     16690     16687     16686     16688     16738
     16688     16738     16741     16742     16688     16738     16741     16743
     16688     16738     16741     16744     16689     16688     16738     16739
     16689     16688     16738     16740     16689     16688     16738     16741
     16690     16688     16738     16739     16690     16688     16738     16740
     16690     16688     16738     16741     16691     16694     16697     16698
     16691     16694     16697     16699     16691     16694     16697     16700
     16692     16691     16694     16695     16692     16691     16694     16696
     16692     16691     16694     16697     16693     16691     16694     16695
     16693     16691     16694     16696     16693     16691     16694     16697
     16694     16697     16700     16701     16694     16697     16700     16702
     16694     16697     16700     16703     16695     16694     16697     16698
     16695     16694     16697     16699     16695     16694     16697     16700
     16696     16694     16697     16698     16696     16694     16697     16699
     16696     16694     16697     16700     16697     16700     16703     16704
     16697     16700     16703     16705     16697     16700     16703     16706
     16698     16697     16700     16701     16698     16697     16700     16702
     16698     16697     16700     16703     16699     16697     16700     16701
     16699     16697     16700     16702     16699     16697     16700     16703
     16700     16703     16706     16707     16700     16703     16706     16708
     16700     16703     16706     16709     16701     16700     16703     16704
     16701     16700     16703     16705     16701     16700     16703     16706
     16702     16700     16703     16704     16702     16700     16703     16705
     16702     16700     16703     16706     16703     16706     16709     16710
     16703     16706     16709     16711     16704     16703     16706     16707
     16704     16703     16706     16708     16704     16703     16706     16709
     16705     16703     16706     16707     16705     16703     16706     16708
     16705     16703     16706     16709     16706     16709     16711     16712
     16706     16709     16711     16713     16707     16706     16709     16710
     16707     16706     16709     16711     16708     16706     16709     16710
     16708     16706     16709     16711     16709     16711     16713     16714
     16709     16711     16713     16715     16709     16711     16713     16716
     16710     16709     16711     16712     16710     16709     16711     16713
     16711     16713     16716     16717     16711     16713     16716     16718
     16711     16713     16716     16719     16712     16711     16713     16714
     16712     16711     16713     16715     16712     16711     16713     16716
     16713     16716     16719     16720     16713     16716     16719     16721
     16713     16716     16719     16722     16714     16713     16716     16717
     16714     16713     16716     16718     16714     16713     16716     16719
     16715     16713     16716     16717     16715     16713     16716     16718
     16715     16713     16716     16719     16716     16719     16722     16723
     16716     16719     16722     16724     16716     16719     16722     16725
     16717     16716     16719     16720     16717     16716     16719     16721
     16717     16716     16719     16722     16718     16716     16719     16720
     16718     16716     16719     16721     16718     16716     16719     16722
     16719     16722     16725     16726     16719     16722     16725     16727
     16719     16722     16725     16728     16720     16719     16722     16723
     16720     16719     16722     16724     16720     16719     16722     16725
     16721     16719     16722     16723     16721     16719     16722     16724
     16721     16719     16722     16725     16722     16725     16728     16729
     16722     16725     16728     16730     16722     16725     16728     16731
     16723     16722     16725     16726     16723     16722     16725     16727
     16723     16722     16725     16728     16724     16722     16725     16726
     16724     16722     16725     16727     16724     16722     16725     16728
     16725     16728     16731     16732     16725     16728     16731     16733
     16725     16728     16731     16734     16726     16725     16728     16729
     16726     16725     16728     16730     16726     16725     16728     16731
     16727     16725     16728     16729     16727     16725     16728     16730
     16727     16725     16728     16731     16728     16731     16734     16735
     16728     16731     16734     16736     16728     16731     16734     16737
     16729     16728     16731     16732     16729     16728     16731     16733
     16729     16728     16731     16734     16730     16728     16731     16732
     16730     16728     16731     16733     16730     16728     16731     16734
     16732     16731     16734     16735     16732     16731     16734     16736
     16732     16731     16734     16737     16733     16731     16734     16735
     16733     16731     16734     16736     16733     16731     16734     16737
     16738     16741     16744     16745     16738     16741     16744     16746
     16738     16741     16744     16747     16739     16738     16741     16742
     16739     16738     16741     16743     16739     16738     16741     16744
     16740     16738     16741     16742     16740     16738     16741     16743
     16740     16738     16741     16744     16741     16744     16747     16748
     16741     16744     16747     16749     16741     16744     16747     16750
     16742     16741     16744     16745     16742     16741     16744     16746
     16742     16741     16744     16747     16743     16741     16744     16745
     16743     16741     16744     16746     16743     16741     16744     16747
     16744     16747     16750     16751     16744     16747     16750     16752
     16744     16747     16750     16753     16745     16744     16747     16748
     16745     16744     16747     16749     16745     16744     16747     16750
     16746     16744     16747     16748     16746     16744     16747     16749
     16746     16744     16747     16750     16747     16750     16753     16754
     16747     16750     16753     16755     16747     16750     16753     16756
     16748     16747     16750     16751     16748     16747     16750     16752
     16748     16747     16750     16753     16749     16747     16750     16751
     16749     16747     16750     16752     16749     16747     16750     16753
     16750     16753     16756     16757     16750     16753     16756     16758
     16750     16753     16756     16759     16751     16750     16753     16754
     16751     16750     16753     16755     16751     16750     16753     16756
     16752     16750     16753     16754     16752     16750     16753     16755
     16752     16750     16753     16756     16753     16756     16759     16760
     16753     16756     16759     16761     16753     16756     16759     16762
     16754     16753     16756     16757     16754     16753     16756     16758
     16754     16753     16756     16759     16755     16753     16756     16757
     16755     16753     16756     16758     16755     16753     16756     16759
     16756     16759     16762     16763     16756     16759     16762     16764
     16756     16759     16762     16765     16757     16756     16759     16760
     16757     16756     16759     16761     16757     16756     16759     16762
     16758     16756     16759     16760     16758     16756     16759     16761
     16758     16756     16759     16762     16759     16762     16765     16766
     16759     16762     16765     16767     16759     16762     16765     16768
     16760     16759     16762     16763     16760     16759     16762     16764
     16760     16759     16762     16765     16761     16759     16762     16763
     16761     16759     16762     16764     16761     16759     16762     16765
     16762     16765     16768     16769     16762     16765     16768     16770
     16762     16765     16768     16771     16763     16762     16765     16766
     16763     16762     16765     16767     16763     16762     16765     16768
     16764     16762     16765     16766     16764     16762     16765     16767
     16764     16762     16765     16768     16765     16768     16771     16772
     16765     16768     16771     16773     16765     16768     16771     16774
     16766     16765     16768     16769     16766     16765     16768     16770
     16766     16765     16768     16771     16767     16765     16768     16769
     16767     16765     16768     16770     16767     16765     16768     16771
     16768     16771     16774     16775     16768     16771     16774     16776
     16768     16771     16774     16777     16769     16768     16771     16772
     16769     16768     16771     16773     16769     16768     16771     16774
     16770     16768     16771     16772     16770     16768     16771     16773
     16770     16768     16771     16774     16771     16774     16777     16778
     16771     16774     16777     16779     16771     16774     16777     16780
     16772     16771     16774     16775     16772     16771     16774     16776
     16772     16771     16774     16777     16773     16771     16774     16775
     16773     16771     16774     16776     16773     16771     16774     16777
     16775     16774     16777     16778     16775     16774     16777     16779
     16775     16774     16777     16780     16776     16774     16777     16778
     16776     16774     16777     16779     16776     16774     16777     16780
     16781     16782     16797     16798     16781     16782     16797     16799
     16781     16782     16797     16803     16782     16781     16785     16786
     16782     16781     16785     16787     16782     16781     16785     16788
     16782     16781     16789     16790     16782     16781     16789     16791
     16782     16781     16789     16792     16782     16781     16793     16794
     16782     16781     16793     16795     16782     16781     16793     16796
     16782     16797     16803     16800     16783     16782     16781     16785
     16783     16782     16781     16789     16783     16782     16781     16793
     16783     16782     16797     16798     16783     16782     16797     16799
     16783     16782     16797     16803     16784     16782     16781     16785
     16784     16782     16781     16789     16784     16782     16781     16793
     16784     16782     16797     16798     16784     16782     16797     16799
     16784     16782     16797     16803     16785     16781     16782     16797
     16785     16781     16789     16790     16785     16781     16789     16791
     16785     16781     16789     16792     16785     16781     16793     16794
     16785     16781     16793     16795     16785     16781     16793     16796
     16786     16785     16781     16789     16786     16785     16781     16793
     16787     16785     16781     16789     16787     16785     16781     16793
     16788     16785     16781     16789     16788     16785     16781     16793
     16789     16781     16782     16797     16789     16781     16793     16794
     16789     16781     16793     16795     16789     16781     16793     16796
     16790     16789     16781     16793     16791     16789     16781     16793
     16792     16789     16781     16793     16793     16781     16782     16797
     16797     16803     16800     16801     16797     16803     16800     16802
     16797     16803     16800     16804     16798     16797     16803     16800
     16799     16797     16803     16800     16800     16804     16805     16806
     16800     16804     16805     16807     16800     16804     16805     16808
     16801     16800     16804     16805     16802     16800     16804     16805
     16803     16800     16804     16805     16804     16805     16808     16809
     16804     16805     16808     16810     16804     16805     16808     16816
     16805     16808     16810     16811     16805     16808     16816     16817
     16805     16808     16816     16818     16805     16808     16816     16819
     16806     16805     16808     16809     16806     16805     16808     16810
     16806     16805     16808     16816     16807     16805     16808     16809
     16807     16805     16808     16810     16807     16805     16808     16816
     16808     16810     16811     16812     16808     16810     16811     16813
     16808     16816     16819     16820     16809     16808     16810     16811
     16809     16808     16816     16817     16809     16808     16816     16818
     16809     16808     16816     16819     16810     16808     16816     16817
     16810     16808     16816     16818     16810     16808     16816     16819
     16810     16811     16813     16814     16810     16811     16813     16815
     16810     16811     16813     16825     16811     16810     16808     16816
     16811     16813     16825     16826     16811     16813     16825     16827
     16811     16813     16825     16828     16812     16811     16813     16814
     16812     16811     16813     16815     16812     16811     16813     16825
     16813     16825     16828     16829     16813     16825     16828     16830
     16813     16825     16828     16831     16814     16813     16825     16826
     16814     16813     16825     16827     16814     16813     16825     16828
     16815     16813     16825     16826     16815     16813     16825     16827
     16815     16813     16825     16828     16816     16819     16820     16821
     16816     16819     16820     16822     16817     16816     16819     16820
     16818     16816     16819     16820     16819     16820     16822     16823
     16819     16820     16822     16824     16819     16820     16822     16872
     16820     16822     16872     16873     16820     16822     16872     16874
     16820     16822     16872     16875     16821     16820     16822     16823
     16821     16820     16822     16824     16821     16820     16822     16872
     16822     16872     16875     16876     16822     16872     16875     16877
     16822     16872     16875     16878     16823     16822     16872     16873
     16823     16822     16872     16874     16823     16822     16872     16875
     16824     16822     16872     16873     16824     16822     16872     16874
     16824     16822     16872     16875     16825     16828     16831     16832
     16825     16828     16831     16833     16825     16828     16831     16834
     16826     16825     16828     16829     16826     16825     16828     16830
     16826     16825     16828     16831     16827     16825     16828     16829
     16827     16825     16828     16830     16827     16825     16828     16831
     16828     16831     16834     16835     16828     16831     16834     16836
     16828     16831     16834     16837     16829     16828     16831     16832
     16829     16828     16831     16833     16829     16828     16831     16834
     16830     16828     16831     16832     16830     16828     16831     16833
     16830     16828     16831     16834     16831     16834     16837     16838
     16831     16834     16837     16839     16831     16834     16837     16840
     16832     16831     16834     16835     16832     16831     16834     16836
     16832     16831     16834     16837     16833     16831     16834     16835
     16833     16831     16834     16836     16833     16831     16834     16837
     16834     16837     16840     16841     16834     16837     16840     16842
     16834     16837     16840     16843     16835     16834     16837     16838
     16835     16834     16837     16839     16835     16834     16837     16840
     16836     16834     16837     16838     16836     16834     16837     16839
     16836     16834     16837     16840     16837     16840     16843     16844
     16837     16840     16843     16845     16838     16837     16840     16841
     16838     16837     16840     16842     16838     16837     16840     16843
     16839     16837     16840     16841     16839     16837     16840     16842
     16839     16837     16840     16843     16840     16843     16845     16846
     16840     16843     16845     16847     16841     16840     16843     16844
     16841     16840     16843     16845     16842     16840     16843     16844
     16842     16840     16843     16845     16843     16845     16847     16848
     16843     16845     16847     16849     16843     16845     16847     16850
     16844     16843     16845     16846     16844     16843     16845     16847
     16845     16847     16850     16851     16845     16847     16850     16852
     16845     16847     16850     16853     16846     16845     16847     16848
     16846     16845     16847     16849     16846     16845     16847     16850
     16847     16850     16853     16854     16847     16850     16853     16855
     16847     16850     16853     16856     16848     16847     16850     16851
     16848     16847     16850     16852     16848     16847     16850     16853
     16849     16847     16850     16851     16849     16847     16850     16852
     16849     16847     16850     16853     16850     16853     16856     16857
     16850     16853     16856     16858     16850     16853     16856     16859
     16851     16850     16853     16854     16851     16850     16853     16855
     16851     16850     16853     16856     16852     16850     16853     16854
     16852     16850     16853     16855     16852     16850     16853     16856
     16853     16856     16859     16860     16853     16856     16859     16861
     16853     16856     16859     16862     16854     16853     16856     16857
     16854     16853     16856     16858     16854     16853     16856     16859
     16855     16853     16856     16857     16855     16853     16856     16858
     16855     16853     16856     16859     16856     16859     16862     16863
     16856     16859     16862     16864     16856     16859     16862     16865
     16857     16856     16859     16860     16857     16856     16859     16861
     16857     16856     16859     16862     16858     16856     16859     16860
     16858     16856     16859     16861     16858     16856     16859     16862
     16859     16862     16865     16866     16859     16862     16865     16867
     16859     16862     16865     16868     16860     16859     16862     16863
     16860     16859     16862     16864     16860     16859     16862     16865
     16861     16859     16862     16863     16861     16859     16862     16864
     16861     16859     16862     16865     16862     16865     16868     16869
     16862     16865     16868     16870     16862     16865     16868     16871
     16863     16862     16865     16866     16863     16862     16865     16867
     16863     16862     16865     16868     16864     16862     16865     16866
     16864     16862     16865     16867     16864     16862     16865     16868
     16866     16865     16868     16869     16866     16865     16868     16870
     16866     16865     16868     16871     16867     16865     16868     16869
     16867     16865     16868     16870     16867     16865     16868     16871
     16872     16875     16878     16879     16872     16875     16878     16880
     16872     16875     16878     16881     16873     16872     16875     16876
     16873     16872     16875     16877     16873     16872     16875     16878
     16874     16872     16875     16876     16874     16872     16875     16877
     16874     16872     16875     16878     16875     16878     16881     16882
     16875     16878     16881     16883     16875     16878     16881     16884
     16876     16875     16878     16879     16876     16875     16878     16880
     16876     16875     16878     16881     16877     16875     16878     16879
     16877     16875     16878     16880     16877     16875     16878     16881
     16878     16881     16884     16885     16878     16881     16884     16886
     16878     16881     16884     16887     16879     16878     16881     16882
     16879     16878     16881     16883     16879     16878     16881     16884
     16880     16878     16881     16882     16880     16878     16881     16883
     16880     16878     16881     16884     16881     16884     16887     16888
     16881     16884     16887     16889     16881     16884     16887     16890
     16882     16881     16884     16885     16882     16881     16884     16886
     16882     16881     16884     16887     16883     16881     16884     16885
     16883     16881     16884     16886     16883     16881     16884     16887
     16884     16887     16890     16891     16884     16887     16890     16892
     16884     16887     16890     16893     16885     16884     16887     16888
     16885     16884     16887     16889     16885     16884     16887     16890
     16886     16884     16887     16888     16886     16884     16887     16889
     16886     16884     16887     16890     16887     16890     16893     16894
     16887     16890     16893     16895     16887     16890     16893     16896
     16888     16887     16890     16891     16888     16887     16890     16892
     16888     16887     16890     16893     16889     16887     16890     16891
     16889     16887     16890     16892     16889     16887     16890     16893
     16890     16893     16896     16897     16890     16893     16896     16898
     16890     16893     16896     16899     16891     16890     16893     16894
     16891     16890     16893     16895     16891     16890     16893     16896
     16892     16890     16893     16894     16892     16890     16893     16895
     16892     16890     16893     16896     16893     16896     16899     16900
     16893     16896     16899     16901     16893     16896     16899     16902
     16894     16893     16896     16897     16894     16893     16896     16898
     16894     16893     16896     16899     16895     16893     16896     16897
     16895     16893     16896     16898     16895     16893     16896     16899
     16896     16899     16902     16903     16896     16899     16902     16904
     16896     16899     16902     16905     16897     16896     16899     16900
     16897     16896     16899     16901     16897     16896     16899     16902
     16898     16896     16899     16900     16898     16896     16899     16901
     16898     16896     16899     16902     16899     16902     16905     16906
     16899     16902     16905     16907     16899     16902     16905     16908
     16900     16899     16902     16903     16900     16899     16902     16904
     16900     16899     16902     16905     16901     16899     16902     16903
     16901     16899     16902     16904     16901     16899     16902     16905
     16902     16905     16908     16909     16902     16905     16908     16910
     16902     16905     16908     16911     16903     16902     16905     16906
     16903     16902     16905     16907     16903     16902     16905     16908
     16904     16902     16905     16906     16904     16902     16905     16907
     16904     16902     16905     16908     16905     16908     16911     16912
     16905     16908     16911     16913     16905     16908     16911     16914
     16906     16905     16908     16909     16906     16905     16908     16910
     16906     16905     16908     16911     16907     16905     16908     16909
     16907     16905     16908     16910     16907     16905     16908     16911
     16909     16908     16911     16912     16909     16908     16911     16913
     16909     16908     16911     16914     16910     16908     16911     16912
     16910     16908     16911     16913     16910     16908     16911     16914
     16915     16916     16931     16932     16915     16916     16931     16933
     16915     16916     16931     16937     16916     16915     16919     16920
     16916     16915     16919     16921     16916     16915     16919     16922
     16916     16915     16923     16924     16916     16915     16923     16925
     16916     16915     16923     16926     16916     16915     16927     16928
     16916     16915     16927     16929     16916     16915     16927     16930
     16916     16931     16937     16934     16917     16916     16915     16919
     16917     16916     16915     16923     16917     16916     16915     16927
     16917     16916     16931     16932     16917     16916     16931     16933
     16917     16916     16931     16937     16918     16916     16915     16919
     16918     16916     16915     16923     16918     16916     16915     16927
     16918     16916     16931     16932     16918     16916     16931     16933
     16918     16916     16931     16937     16919     16915     16916     16931
     16919     16915     16923     16924     16919     16915     16923     16925
     16919     16915     16923     16926     16919     16915     16927     16928
     16919     16915     16927     16929     16919     16915     16927     16930
     16920     16919     16915     16923     16920     16919     16915     16927
     16921     16919     16915     16923     16921     16919     16915     16927
     16922     16919     16915     16923     16922     16919     16915     16927
     16923     16915     16916     16931     16923     16915     16927     16928
     16923     16915     16927     16929     16923     16915     16927     16930
     16924     16923     16915     16927     16925     16923     16915     16927
     16926     16923     16915     16927     16927     16915     16916     16931
     16931     16937     16934     16935     16931     16937     16934     16936
     16931     16937     16934     16938     16932     16931     16937     16934
     16933     16931     16937     16934     16934     16938     16939     16940
     16934     16938     16939     16941     16934     16938     16939     16942
     16935     16934     16938     16939     16936     16934     16938     16939
     16937     16934     16938     16939     16938     16939     16942     16943
     16938     16939     16942     16944     16938     16939     16942     16950
     16939     16942     16944     16945     16939     16942     16950     16951
     16939     16942     16950     16952     16939     16942     16950     16953
     16940     16939     16942     16943     16940     16939     16942     16944
     16940     16939     16942     16950     16941     16939     16942     16943
     16941     16939     16942     16944     16941     16939     16942     16950
     16942     16944     16945     16946     16942     16944     16945     16947
     16942     16950     16953     16954     16943     16942     16944     16945
     16943     16942     16950     16951     16943     16942     16950     16952
     16943     16942     16950     16953     16944     16942     16950     16951
     16944     16942     16950     16952     16944     16942     16950     16953
     16944     16945     16947     16948     16944     16945     16947     16949
     16944     16945     16947     16959     16945     16944     16942     16950
     16945     16947     16959     16960     16945     16947     16959     16961
     16945     16947     16959     16962     16946     16945     16947     16948
     16946     16945     16947     16949     16946     16945     16947     16959
     16947     16959     16962     16963     16947     16959     16962     16964
     16947     16959     16962     16965     16948     16947     16959     16960
     16948     16947     16959     16961     16948     16947     16959     16962
     16949     16947     16959     16960     16949     16947     16959     16961
     16949     16947     16959     16962     16950     16953     16954     16955
     16950     16953     16954     16956     16951     16950     16953     16954
     16952     16950     16953     16954     16953     16954     16956     16957
     16953     16954     16956     16958     16953     16954     16956     17006
     16954     16956     17006     17007     16954     16956     17006     17008
     16954     16956     17006     17009     16955     16954     16956     16957
     16955     16954     16956     16958     16955     16954     16956     17006
     16956     17006     17009     17010     16956     17006     17009     17011
     16956     17006     17009     17012     16957     16956     17006     17007
     16957     16956     17006     17008     16957     16956     17006     17009
     16958     16956     17006     17007     16958     16956     17006     17008
     16958     16956     17006     17009     16959     16962     16965     16966
     16959     16962     16965     16967     16959     16962     16965     16968
     16960     16959     16962     16963     16960     16959     16962     16964
     16960     16959     16962     16965     16961     16959     16962     16963
     16961     16959     16962     16964     16961     16959     16962     16965
     16962     16965     16968     16969     16962     16965     16968     16970
     16962     16965     16968     16971     16963     16962     16965     16966
     16963     16962     16965     16967     16963     16962     16965     16968
     16964     16962     16965     16966     16964     16962     16965     16967
     16964     16962     16965     16968     16965     16968     16971     16972
     16965     16968     16971     16973     16965     16968     16971     16974
     16966     16965     16968     16969     16966     16965     16968     16970
     16966     16965     16968     16971     16967     16965     16968     16969
     16967     16965     16968     16970     16967     16965     16968     16971
     16968     16971     16974     16975     16968     16971     16974     16976
     16968     16971     16974     16977     16969     16968     16971     16972
     16969     16968     16971     16973     16969     16968     16971     16974
     16970     16968     16971     16972     16970     16968     16971     16973
     16970     16968     16971     16974     16971     16974     16977     16978
     16971     16974     16977     16979     16972     16971     16974     16975
     16972     16971     16974     16976     16972     16971     16974     16977
     16973     16971     16974     16975     16973     16971     16974     16976
     16973     16971     16974     16977     16974     16977     16979     16980
     16974     16977     16979     16981     16975     16974     16977     16978
     16975     16974     16977     16979     16976     16974     16977     16978
     16976     16974     16977     16979     16977     16979     16981     16982
     16977     16979     16981     16983     16977     16979     16981     16984
     16978     16977     16979     16980     16978     16977     16979     16981
     16979     16981     16984     16985     16979     16981     16984     16986
     16979     16981     16984     16987     16980     16979     16981     16982
     16980     16979     16981     16983     16980     16979     16981     16984
     16981     16984     16987     16988     16981     16984     16987     16989
     16981     16984     16987     16990     16982     16981     16984     16985
     16982     16981     16984     16986     16982     16981     16984     16987
     16983     16981     16984     16985     16983     16981     16984     16986
     16983     16981     16984     16987     16984     16987     16990     16991
     16984     16987     16990     16992     16984     16987     16990     16993
     16985     16984     16987     16988     16985     16984     16987     16989
     16985     16984     16987     16990     16986     16984     16987     16988
     16986     16984     16987     16989     16986     16984     16987     16990
     16987     16990     16993     16994     16987     16990     16993     16995
     16987     16990     16993     16996     16988     16987     16990     16991
     16988     16987     16990     16992     16988     16987     16990     16993
     16989     16987     16990     16991     16989     16987     16990     16992
     16989     16987     16990     16993     16990     16993     16996     16997
     16990     16993     16996     16998     16990     16993     16996     16999
     16991     16990     16993     16994     16991     16990     16993     16995
     16991     16990     16993     16996     16992     16990     16993     16994
     16992     16990     16993     16995     16992     16990     16993     16996
     16993     16996     16999     17000     16993     16996     16999     17001
     16993     16996     16999     17002     16994     16993     16996     16997
     16994     16993     16996     16998     16994     16993     16996     16999
     16995     16993     16996     16997     16995     16993     16996     16998
     16995     16993     16996     16999     16996     16999     17002     17003
     16996     16999     17002     17004     16996     16999     17002     17005
     16997     16996     16999     17000     16997     16996     16999     17001
     16997     16996     16999     17002     16998     16996     16999     17000
     16998     16996     16999     17001     16998     16996     16999     17002
     17000     16999     17002     17003     17000     16999     17002     17004
     17000     16999     17002     17005     17001     16999     17002     17003
     17001     16999     17002     17004     17001     16999     17002     17005
     17006     17009     17012     17013     17006     17009     17012     17014
     17006     17009     17012     17015     17007     17006     17009     17010
     17007     17006     17009     17011     17007     17006     17009     17012
     17008     17006     17009     17010     17008     17006     17009     17011
     17008     17006     17009     17012     17009     17012     17015     17016
     17009     17012     17015     17017     17009     17012     17015     17018
     17010     17009     17012     17013     17010     17009     17012     17014
     17010     17009     17012     17015     17011     17009     17012     17013
     17011     17009     17012     17014     17011     17009     17012     17015
     17012     17015     17018     17019     17012     17015     17018     17020
     17012     17015     17018     17021     17013     17012     17015     17016
     17013     17012     17015     17017     17013     17012     17015     17018
     17014     17012     17015     17016     17014     17012     17015     17017
     17014     17012     17015     17018     17015     17018     17021     17022
     17015     17018     17021     17023     17015     17018     17021     17024
     17016     17015     17018     17019     17016     17015     17018     17020
     17016     17015     17018     17021     17017     17015     17018     17019
     17017     17015     17018     17020     17017     17015     17018     17021
     17018     17021     17024     17025     17018     17021     17024     17026
     17018     17021     17024     17027     17019     17018     17021     17022
     17019     17018     17021     17023     17019     17018     17021     17024
     17020     17018     17021     17022     17020     17018     17021     17023
     17020     17018     17021     17024     17021     17024     17027     17028
     17021     17024     17027     17029     17021     17024     17027     17030
     17022     17021     17024     17025     17022     17021     17024     17026
     17022     17021     17024     17027     17023     17021     17024     17025
     17023     17021     17024     17026     17023     17021     17024     17027
     17024     17027     17030     17031     17024     17027     17030     17032
     17024     17027     17030     17033     17025     17024     17027     17028
     17025     17024     17027     17029     17025     17024     17027     17030
     17026     17024     17027     17028     17026     17024     17027     17029
     17026     17024     17027     17030     17027     17030     17033     17034
     17027     17030     17033     17035     17027     17030     17033     17036
     17028     17027     17030     17031     17028     17027     17030     17032
     17028     17027     17030     17033     17029     17027     17030     17031
     17029     17027     17030     17032     17029     17027     17030     17033
     17030     17033     17036     17037     17030     17033     17036     17038
     17030     17033     17036     17039     17031     17030     17033     17034
     17031     17030     17033     17035     17031     17030     17033     17036
     17032     17030     17033     17034     17032     17030     17033     17035
     17032     17030     17033     17036     17033     17036     17039     17040
     17033     17036     17039     17041     17033     17036     17039     17042
     17034     17033     17036     17037     17034     17033     17036     17038
     17034     17033     17036     17039     17035     17033     17036     17037
     17035     17033     17036     17038     17035     17033     17036     17039
     17036     17039     17042     17043     17036     17039     17042     17044
     17036     17039     17042     17045     17037     17036     17039     17040
     17037     17036     17039     17041     17037     17036     17039     17042
     17038     17036     17039     17040     17038     17036     17039     17041
     17038     17036     17039     17042     17039     17042     17045     17046
     17039     17042     17045     17047     17039     17042     17045     17048
     17040     17039     17042     17043     17040     17039     17042     17044
     17040     17039     17042     17045     17041     17039     17042     17043
     17041     17039     17042     17044     17041     17039     17042     17045
     17043     17042     17045     17046     17043     17042     17045     17047
     17043     17042     17045     17048     17044     17042     17045     17046
     17044     17042     17045     17047     17044     17042     17045     17048
     17049     17053     17056     17057     17049     17053     17056     17058
     17049     17053     17056     17063     17050     17049     17053     17054
     17050     17049     17053     17055     17050     17049     17053     17056
     17051     17049     17053     17054     17051     17049     17053     17055
     17051     17049     17053     17056     17052     17049     17053     17054
     17052     17049     17053     17055     17052     17049     17053     17056
     17053     17056     17063     17059     17054     17053     17056     17057
     17054     17053     17056     17058     17054     17053     17056     17063
     17055     17053     17056     17057     17055     17053     17056     17058
     17055     17053     17056     17063     17056     17063     17059     17060
     17056     17063     17059     17061     17056     17063     17059     17062
     17057     17056     17063     17059     17058     17056     17063     17059
     17059     17062     17064     17065     17059     17062     17064     17066
     17059     17062     17064     17067     17060     17059     17062     17064
     17061     17059     17062     17064     17062     17064     17067     17068
     17062     17064     17067     17069     17062     17064     17067     17075
     17063     17059     17062     17064     17064     17067     17069     17070
     17064     17067     17075     17076     17064     17067     17075     17077
     17064     17067     17075     17078     17065     17064     17067     17068
     17065     17064     17067     17069     17065     17064     17067     17075
     17066     17064     17067     17068     17066     17064     17067     17069
     17066     17064     17067     17075     17067     17069     17070     17071
     17067     17069     17070     17072     17067     17075     17078     17079
     17068     17067     17069     17070     17068     17067     17075     17076
     17068     17067     17075     17077     17068     17067     17075     17078
     17069     17067     17075     17076     17069     17067     17075     17077
     17069     17067     17075     17078     17069     17070     17072     17073
     17069     17070     17072     17074     17069     17070     17072     17084
     17070     17069     17067     17075     17070     17072     17084     17085
     17070     17072     17084     17086     17070     17072     17084     17087
     17071     17070     17072     17073     17071     17070     17072     17074
     17071     17070     17072     17084     17072     17084     17087     17088
     17072     17084     17087     17089     17072     17084     17087     17090
     17073     17072     17084     17085     17073     17072     17084     17086
     17073     17072     17084     17087     17074     17072     17084     17085
     17074     17072     17084     17086     17074     17072     17084     17087
     17075     17078     17079     17080     17075     17078     17079     17081
     17076     17075     17078     17079     17077     17075     17078     17079
     17078     17079     17081     17082     17078     17079     17081     17083
     17078     17079     17081     17131     17079     17081     17131     17132
     17079     17081     17131     17133     17079     17081     17131     17134
     17080     17079     17081     17082     17080     17079     17081     17083
     17080     17079     17081     17131     17081     17131     17134     17135
     17081     17131     17134     17136     17081     17131     17134     17137
     17082     17081     17131     17132     17082     17081     17131     17133
     17082     17081     17131     17134     17083     17081     17131     17132
     17083     17081     17131     17133     17083     17081     17131     17134
     17084     17087     17090     17091     17084     17087     17090     17092
     17084     17087     17090     17093     17085     17084     17087     17088
     17085     17084     17087     17089     17085     17084     17087     17090
     17086     17084     17087     17088     17086     17084     17087     17089
     17086     17084     17087     17090     17087     17090     17093     17094
     17087     17090     17093     17095     17087     17090     17093     17096
     17088     17087     17090     17091     17088     17087     17090     17092
     17088     17087     17090     17093     17089     17087     17090     17091
     17089     17087     17090     17092     17089     17087     17090     17093
     17090     17093     17096     17097     17090     17093     17096     17098
     17090     17093     17096     17099     17091     17090     17093     17094
     17091     17090     17093     17095     17091     17090     17093     17096
     17092     17090     17093     17094     17092     17090     17093     17095
     17092     17090     17093     17096     17093     17096     17099     17100
     17093     17096     17099     17101     17093     17096     17099     17102
     17094     17093     17096     17097     17094     17093     17096     17098
     17094     17093     17096     17099     17095     17093     17096     17097
     17095     17093     17096     17098     17095     17093     17096     17099
     17096     17099     17102     17103     17096     17099     17102     17104
     17097     17096     17099     17100     17097     17096     17099     17101
     17097     17096     17099     17102     17098     17096     17099     17100
     17098     17096     17099     17101     17098     17096     17099     17102
     17099     17102     17104     17105     17099     17102     17104     17106
     17100     17099     17102     17103     17100     17099     17102     17104
     17101     17099     17102     17103     17101     17099     17102     17104
     17102     17104     17106     17107     17102     17104     17106     17108
     17102     17104     17106     17109     17103     17102     17104     17105
     17103     17102     17104     17106     17104     17106     17109     17110
     17104     17106     17109     17111     17104     17106     17109     17112
     17105     17104     17106     17107     17105     17104     17106     17108
     17105     17104     17106     17109     17106     17109     17112     17113
     17106     17109     17112     17114     17106     17109     17112     17115
     17107     17106     17109     17110     17107     17106     17109     17111
     17107     17106     17109     17112     17108     17106     17109     17110
     17108     17106     17109     17111     17108     17106     17109     17112
     17109     17112     17115     17116     17109     17112     17115     17117
     17109     17112     17115     17118     17110     17109     17112     17113
     17110     17109     17112     17114     17110     17109     17112     17115
     17111     17109     17112     17113     17111     17109     17112     17114
     17111     17109     17112     17115     17112     17115     17118     17119
     17112     17115     17118     17120     17112     17115     17118     17121
     17113     17112     17115     17116     17113     17112     17115     17117
     17113     17112     17115     17118     17114     17112     17115     17116
     17114     17112     17115     17117     17114     17112     17115     17118
     17115     17118     17121     17122     17115     17118     17121     17123
     17115     17118     17121     17124     17116     17115     17118     17119
     17116     17115     17118     17120     17116     17115     17118     17121
     17117     17115     17118     17119     17117     17115     17118     17120
     17117     17115     17118     17121     17118     17121     17124     17125
     17118     17121     17124     17126     17118     17121     17124     17127
     17119     17118     17121     17122     17119     17118     17121     17123
     17119     17118     17121     17124     17120     17118     17121     17122
     17120     17118     17121     17123     17120     17118     17121     17124
     17121     17124     17127     17128     17121     17124     17127     17129
     17121     17124     17127     17130     17122     17121     17124     17125
     17122     17121     17124     17126     17122     17121     17124     17127
     17123     17121     17124     17125     17123     17121     17124     17126
     17123     17121     17124     17127     17125     17124     17127     17128
     17125     17124     17127     17129     17125     17124     17127     17130
     17126     17124     17127     17128     17126     17124     17127     17129
     17126     17124     17127     17130     17131     17134     17137     17138
     17131     17134     17137     17139     17131     17134     17137     17140
     17132     17131     17134     17135     17132     17131     17134     17136
     17132     17131     17134     17137     17133     17131     17134     17135
     17133     17131     17134     17136     17133     17131     17134     17137
     17134     17137     17140     17141     17134     17137     17140     17142
     17134     17137     17140     17143     17135     17134     17137     17138
     17135     17134     17137     17139     17135     17134     17137     17140
     17136     17134     17137     17138     17136     17134     17137     17139
     17136     17134     17137     17140     17137     17140     17143     17144
     17137     17140     17143     17145     17137     17140     17143     17146
     17138     17137     17140     17141     17138     17137     17140     17142
     17138     17137     17140     17143     17139     17137     17140     17141
     17139     17137     17140     17142     17139     17137     17140     17143
     17140     17143     17146     17147     17140     17143     17146     17148
     17140     17143     17146     17149     17141     17140     17143     17144
     17141     17140     17143     17145     17141     17140     17143     17146
     17142     17140     17143     17144     17142     17140     17143     17145
     17142     17140     17143     17146     17143     17146     17149     17150
     17143     17146     17149     17151     17143     17146     17149     17152
     17144     17143     17146     17147     17144     17143     17146     17148
     17144     17143     17146     17149     17145     17143     17146     17147
     17145     17143     17146     17148     17145     17143     17146     17149
     17146     17149     17152     17153     17146     17149     17152     17154
     17146     17149     17152     17155     17147     17146     17149     17150
     17147     17146     17149     17151     17147     17146     17149     17152
     17148     17146     17149     17150     17148     17146     17149     17151
     17148     17146     17149     17152     17149     17152     17155     17156
     17149     17152     17155     17157     17149     17152     17155     17158
     17150     17149     17152     17153     17150     17149     17152     17154
     17150     17149     17152     17155     17151     17149     17152     17153
     17151     17149     17152     17154     17151     17149     17152     17155
     17152     17155     17158     17159     17152     17155     17158     17160
     17152     17155     17158     17161     17153     17152     17155     17156
     17153     17152     17155     17157     17153     17152     17155     17158
     17154     17152     17155     17156     17154     17152     17155     17157
     17154     17152     17155     17158     17155     17158     17161     17162
     17155     17158     17161     17163     17155     17158     17161     17164
     17156     17155     17158     17159     17156     17155     17158     17160
     17156     17155     17158     17161     17157     17155     17158     17159
     17157     17155     17158     17160     17157     17155     17158     17161
     17158     17161     17164     17165     17158     17161     17164     17166
     17158     17161     17164     17167     17159     17158     17161     17162
     17159     17158     17161     17163     17159     17158     17161     17164
     17160     17158     17161     17162     17160     17158     17161     17163
     17160     17158     17161     17164     17161     17164     17167     17168
     17161     17164     17167     17169     17161     17164     17167     17170
     17162     17161     17164     17165     17162     17161     17164     17166
     17162     17161     17164     17167     17163     17161     17164     17165
     17163     17161     17164     17166     17163     17161     17164     17167
     17164     17167     17170     17171     17164     17167     17170     17172
     17164     17167     17170     17173     17165     17164     17167     17168
     17165     17164     17167     17169     17165     17164     17167     17170
     17166     17164     17167     17168     17166     17164     17167     17169
     17166     17164     17167     17170     17168     17167     17170     17171
     17168     17167     17170     17172     17168     17167     17170     17173
     17169     17167     17170     17171     17169     17167     17170     17172
     17169     17167     17170     17173     17174     17175     17190     17191
     17174     17175     17190     17192     17174     17175     17190     17196
     17175     17174     17178     17179     17175     17174     17178     17180
     17175     17174     17178     17181     17175     17174     17182     17183
     17175     17174     17182     17184     17175     17174     17182     17185
     17175     17174     17186     17187     17175     17174     17186     17188
     17175     17174     17186     17189     17175     17190     17196     17193
     17176     17175     17174     17178     17176     17175     17174     17182
     17176     17175     17174     17186     17176     17175     17190     17191
     17176     17175     17190     17192     17176     17175     17190     17196
     17177     17175     17174     17178     17177     17175     17174     17182
     17177     17175     17174     17186     17177     17175     17190     17191
     17177     17175     17190     17192     17177     17175     17190     17196
     17178     17174     17175     17190     17178     17174     17182     17183
     17178     17174     17182     17184     17178     17174     17182     17185
     17178     17174     17186     17187     17178     17174     17186     17188
     17178     17174     17186     17189     17179     17178     17174     17182
     17179     17178     17174     17186     17180     17178     17174     17182
     17180     17178     17174     17186     17181     17178     17174     17182
     17181     17178     17174     17186     17182     17174     17175     17190
     17182     17174     17186     17187     17182     17174     17186     17188
     17182     17174     17186     17189     17183     17182     17174     17186
     17184     17182     17174     17186     17185     17182     17174     17186
     17186     17174     17175     17190     17190     17196     17193     17194
     17190     17196     17193     17195     17190     17196     17193     17197
     17191     17190     17196     17193     17192     17190     17196     17193
     17193     17197     17198     17199     17193     17197     17198     17200
     17193     17197     17198     17201     17194     17193     17197     17198
     17195     17193     17197     17198     17196     17193     17197     17198
     17197     17198     17201     17202     17197     17198     17201     17203
     17197     17198     17201     17209     17198     17201     17203     17204
     17198     17201     17209     17210     17198     17201     17209     17211
     17198     17201     17209     17212     17199     17198     17201     17202
     17199     17198     17201     17203     17199     17198     17201     17209
     17200     17198     17201     17202     17200     17198     17201     17203
     17200     17198     17201     17209     17201     17203     17204     17205
     17201     17203     17204     17206     17201     17209     17212     17213
     17202     17201     17203     17204     17202     17201     17209     17210
     17202     17201     17209     17211     17202     17201     17209     17212
     17203     17201     17209     17210     17203     17201     17209     17211
     17203     17201     17209     17212     17203     17204     17206     17207
     17203     17204     17206     17208     17203     17204     17206     17218
     17204     17203     17201     17209     17204     17206     17218     17219
     17204     17206     17218     17220     17204     17206     17218     17221
     17205     17204     17206     17207     17205     17204     17206     17208
     17205     17204     17206     17218     17206     17218     17221     17222
     17206     17218     17221     17223     17206     17218     17221     17224
     17207     17206     17218     17219     17207     17206     17218     17220
     17207     17206     17218     17221     17208     17206     17218     17219
     17208     17206     17218     17220     17208     17206     17218     17221
     17209     17212     17213     17214     17209     17212     17213     17215
     17210     17209     17212     17213     17211     17209     17212     17213
     17212     17213     17215     17216     17212     17213     17215     17217
     17212     17213     17215     17265     17213     17215     17265     17266
     17213     17215     17265     17267     17213     17215     17265     17268
     17214     17213     17215     17216     17214     17213     17215     17217
     17214     17213     17215     17265     17215     17265     17268     17269
     17215     17265     17268     17270     17215     17265     17268     17271
     17216     17215     17265     17266     17216     17215     17265     17267
     17216     17215     17265     17268     17217     17215     17265     17266
     17217     17215     17265     17267     17217     17215     17265     17268
     17218     17221     17224     17225     17218     17221     17224     17226
     17218     17221     17224     17227     17219     17218     17221     17222
     17219     17218     17221     17223     17219     17218     17221     17224
     17220     17218     17221     17222     17220     17218     17221     17223
     17220     17218     17221     17224     17221     17224     17227     17228
     17221     17224     17227     17229     17221     17224     17227     17230
     17222     17221     17224     17225     17222     17221     17224     17226
     17222     17221     17224     17227     17223     17221     17224     17225
     17223     17221     17224     17226     17223     17221     17224     17227
     17224     17227     17230     17231     17224     17227     17230     17232
     17224     17227     17230     17233     17225     17224     17227     17228
     17225     17224     17227     17229     17225     17224     17227     17230
     17226     17224     17227     17228     17226     17224     17227     17229
     17226     17224     17227     17230     17227     17230     17233     17234
     17227     17230     17233     17235     17227     17230     17233     17236
     17228     17227     17230     17231     17228     17227     17230     17232
     17228     17227     17230     17233     17229     17227     17230     17231
     17229     17227     17230     17232     17229     17227     17230     17233
     17230     17233     17236     17237     17230     17233     17236     17238
     17231     17230     17233     17234     17231     17230     17233     17235
     17231     17230     17233     17236     17232     17230     17233     17234
     17232     17230     17233     17235     17232     17230     17233     17236
     17233     17236     17238     17239     17233     17236     17238     17240
     17234     17233     17236     17237     17234     17233     17236     17238
     17235     17233     17236     17237     17235     17233     17236     17238
     17236     17238     17240     17241     17236     17238     17240     17242
     17236     17238     17240     17243     17237     17236     17238     17239
     17237     17236     17238     17240     17238     17240     17243     17244
     17238     17240     17243     17245     17238     17240     17243     17246
     17239     17238     17240     17241     17239     17238     17240     17242
     17239     17238     17240     17243     17240     17243     17246     17247
     17240     17243     17246     17248     17240     17243     17246     17249
     17241     17240     17243     17244     17241     17240     17243     17245
     17241     17240     17243     17246     17242     17240     17243     17244
     17242     17240     17243     17245     17242     17240     17243     17246
     17243     17246     17249     17250     17243     17246     17249     17251
     17243     17246     17249     17252     17244     17243     17246     17247
     17244     17243     17246     17248     17244     17243     17246     17249
     17245     17243     17246     17247     17245     17243     17246     17248
     17245     17243     17246     17249     17246     17249     17252     17253
     17246     17249     17252     17254     17246     17249     17252     17255
     17247     17246     17249     17250     17247     17246     17249     17251
     17247     17246     17249     17252     17248     17246     17249     17250
     17248     17246     17249     17251     17248     17246     17249     17252
     17249     17252     17255     17256     17249     17252     17255     17257
     17249     17252     17255     17258     17250     17249     17252     17253
     17250     17249     17252     17254     17250     17249     17252     17255
     17251     17249     17252     17253     17251     17249     17252     17254
     17251     17249     17252     17255     17252     17255     17258     17259
     17252     17255     17258     17260     17252     17255     17258     17261
     17253     17252     17255     17256     17253     17252     17255     17257
     17253     17252     17255     17258     17254     17252     17255     17256
     17254     17252     17255     17257     17254     17252     17255     17258
     17255     17258     17261     17262     17255     17258     17261     17263
     17255     17258     17261     17264     17256     17255     17258     17259
     17256     17255     17258     17260     17256     17255     17258     17261
     17257     17255     17258     17259     17257     17255     17258     17260
     17257     17255     17258     17261     17259     17258     17261     17262
     17259     17258     17261     17263     17259     17258     17261     17264
     17260     17258     17261     17262     17260     17258     17261     17263
     17260     17258     17261     17264     17265     17268     17271     17272
     17265     17268     17271     17273     17265     17268     17271     17274
     17266     17265     17268     17269     17266     17265     17268     17270
     17266     17265     17268     17271     17267     17265     17268     17269
     17267     17265     17268     17270     17267     17265     17268     17271
     17268     17271     17274     17275     17268     17271     17274     17276
     17268     17271     17274     17277     17269     17268     17271     17272
     17269     17268     17271     17273     17269     17268     17271     17274
     17270     17268     17271     17272     17270     17268     17271     17273
     17270     17268     17271     17274     17271     17274     17277     17278
     17271     17274     17277     17279     17271     17274     17277     17280
     17272     17271     17274     17275     17272     17271     17274     17276
     17272     17271     17274     17277     17273     17271     17274     17275
     17273     17271     17274     17276     17273     17271     17274     17277
     17274     17277     17280     17281     17274     17277     17280     17282
     17274     17277     17280     17283     17275     17274     17277     17278
     17275     17274     17277     17279     17275     17274     17277     17280
     17276     17274     17277     17278     17276     17274     17277     17279
     17276     17274     17277     17280     17277     17280     17283     17284
     17277     17280     17283     17285     17277     17280     17283     17286
     17278     17277     17280     17281     17278     17277     17280     17282
     17278     17277     17280     17283     17279     17277     17280     17281
     17279     17277     17280     17282     17279     17277     17280     17283
     17280     17283     17286     17287     17280     17283     17286     17288
     17280     17283     17286     17289     17281     17280     17283     17284
     17281     17280     17283     17285     17281     17280     17283     17286
     17282     17280     17283     17284     17282     17280     17283     17285
     17282     17280     17283     17286     17283     17286     17289     17290
     17283     17286     17289     17291     17283     17286     17289     17292
     17284     17283     17286     17287     17284     17283     17286     17288
     17284     17283     17286     17289     17285     17283     17286     17287
     17285     17283     17286     17288     17285     17283     17286     17289
     17286     17289     17292     17293     17286     17289     17292     17294
     17286     17289     17292     17295     17287     17286     17289     17290
     17287     17286     17289     17291     17287     17286     17289     17292
     17288     17286     17289     17290     17288     17286     17289     17291
     17288     17286     17289     17292     17289     17292     17295     17296
     17289     17292     17295     17297     17289     17292     17295     17298
     17290     17289     17292     17293     17290     17289     17292     17294
     17290     17289     17292     17295     17291     17289     17292     17293
     17291     17289     17292     17294     17291     17289     17292     17295
     17292     17295     17298     17299     17292     17295     17298     17300
     17292     17295     17298     17301     17293     17292     17295     17296
     17293     17292     17295     17297     17293     17292     17295     17298
     17294     17292     17295     17296     17294     17292     17295     17297
     17294     17292     17295     17298     17295     17298     17301     17302
     17295     17298     17301     17303     17295     17298     17301     17304
     17296     17295     17298     17299     17296     17295     17298     17300
     17296     17295     17298     17301     17297     17295     17298     17299
     17297     17295     17298     17300     17297     17295     17298     17301
     17298     17301     17304     17305     17298     17301     17304     17306
     17298     17301     17304     17307     17299     17298     17301     17302
     17299     17298     17301     17303     17299     17298     17301     17304
     17300     17298     17301     17302     17300     17298     17301     17303
     17300     17298     17301     17304     17302     17301     17304     17305
     17302     17301     17304     17306     17302     17301     17304     17307
     17303     17301     17304     17305     17303     17301     17304     17306
     17303     17301     17304     17307     17308     17312     17315     17316
     17308     17312     17315     17317     17308     17312     17315     17322
     17309     17308     17312     17313     17309     17308     17312     17314
     17309     17308     17312     17315     17310     17308     17312     17313
     17310     17308     17312     17314     17310     17308     17312     17315
     17311     17308     17312     17313     17311     17308     17312     17314
     17311     17308     17312     17315     17312     17315     17322     17318
     17313     17312     17315     17316     17313     17312     17315     17317
     17313     17312     17315     17322     17314     17312     17315     17316
     17314     17312     17315     17317     17314     17312     17315     17322
     17315     17322     17318     17319     17315     17322     17318     17320
     17315     17322     17318     17321     17316     17315     17322     17318
     17317     17315     17322     17318     17318     17321     17323     17324
     17318     17321     17323     17325     17318     17321     17323     17326
     17319     17318     17321     17323     17320     17318     17321     17323
     17321     17323     17326     17327     17321     17323     17326     17328
     17321     17323     17326     17334     17322     17318     17321     17323
     17323     17326     17328     17329     17323     17326     17334     17335
     17323     17326     17334     17336     17323     17326     17334     17337
     17324     17323     17326     17327     17324     17323     17326     17328
     17324     17323     17326     17334     17325     17323     17326     17327
     17325     17323     17326     17328     17325     17323     17326     17334
     17326     17328     17329     17330     17326     17328     17329     17331
     17326     17334     17337     17338     17327     17326     17328     17329
     17327     17326     17334     17335     17327     17326     17334     17336
     17327     17326     17334     17337     17328     17326     17334     17335
     17328     17326     17334     17336     17328     17326     17334     17337
     17328     17329     17331     17332     17328     17329     17331     17333
     17328     17329     17331     17343     17329     17328     17326     17334
     17329     17331     17343     17344     17329     17331     17343     17345
     17329     17331     17343     17346     17330     17329     17331     17332
     17330     17329     17331     17333     17330     17329     17331     17343
     17331     17343     17346     17347     17331     17343     17346     17348
     17331     17343     17346     17349     17332     17331     17343     17344
     17332     17331     17343     17345     17332     17331     17343     17346
     17333     17331     17343     17344     17333     17331     17343     17345
     17333     17331     17343     17346     17334     17337     17338     17339
     17334     17337     17338     17340     17335     17334     17337     17338
     17336     17334     17337     17338     17337     17338     17340     17341
     17337     17338     17340     17342     17337     17338     17340     17390
     17338     17340     17390     17391     17338     17340     17390     17392
     17338     17340     17390     17393     17339     17338     17340     17341
     17339     17338     17340     17342     17339     17338     17340     17390
     17340     17390     17393     17394     17340     17390     17393     17395
     17340     17390     17393     17396     17341     17340     17390     17391
     17341     17340     17390     17392     17341     17340     17390     17393
     17342     17340     17390     17391     17342     17340     17390     17392
     17342     17340     17390     17393     17343     17346     17349     17350
     17343     17346     17349     17351     17343     17346     17349     17352
     17344     17343     17346     17347     17344     17343     17346     17348
     17344     17343     17346     17349     17345     17343     17346     17347
     17345     17343     17346     17348     17345     17343     17346     17349
     17346     17349     17352     17353     17346     17349     17352     17354
     17346     17349     17352     17355     17347     17346     17349     17350
     17347     17346     17349     17351     17347     17346     17349     17352
     17348     17346     17349     17350     17348     17346     17349     17351
     17348     17346     17349     17352     17349     17352     17355     17356
     17349     17352     17355     17357     17349     17352     17355     17358
     17350     17349     17352     17353     17350     17349     17352     17354
     17350     17349     17352     17355     17351     17349     17352     17353
     17351     17349     17352     17354     17351     17349     17352     17355
     17352     17355     17358     17359     17352     17355     17358     17360
     17352     17355     17358     17361     17353     17352     17355     17356
     17353     17352     17355     17357     17353     17352     17355     17358
     17354     17352     17355     17356     17354     17352     17355     17357
     17354     17352     17355     17358     17355     17358     17361     17362
     17355     17358     17361     17363     17356     17355     17358     17359
     17356     17355     17358     17360     17356     17355     17358     17361
     17357     17355     17358     17359     17357     17355     17358     17360
     17357     17355     17358     17361     17358     17361     17363     17364
     17358     17361     17363     17365     17359     17358     17361     17362
     17359     17358     17361     17363     17360     17358     17361     17362
     17360     17358     17361     17363     17361     17363     17365     17366
     17361     17363     17365     17367     17361     17363     17365     17368
     17362     17361     17363     17364     17362     17361     17363     17365
     17363     17365     17368     17369     17363     17365     17368     17370
     17363     17365     17368     17371     17364     17363     17365     17366
     17364     17363     17365     17367     17364     17363     17365     17368
     17365     17368     17371     17372     17365     17368     17371     17373
     17365     17368     17371     17374     17366     17365     17368     17369
     17366     17365     17368     17370     17366     17365     17368     17371
     17367     17365     17368     17369     17367     17365     17368     17370
     17367     17365     17368     17371     17368     17371     17374     17375
     17368     17371     17374     17376     17368     17371     17374     17377
     17369     17368     17371     17372     17369     17368     17371     17373
     17369     17368     17371     17374     17370     17368     17371     17372
     17370     17368     17371     17373     17370     17368     17371     17374
     17371     17374     17377     17378     17371     17374     17377     17379
     17371     17374     17377     17380     17372     17371     17374     17375
     17372     17371     17374     17376     17372     17371     17374     17377
     17373     17371     17374     17375     17373     17371     17374     17376
     17373     17371     17374     17377     17374     17377     17380     17381
     17374     17377     17380     17382     17374     17377     17380     17383
     17375     17374     17377     17378     17375     17374     17377     17379
     17375     17374     17377     17380     17376     17374     17377     17378
     17376     17374     17377     17379     17376     17374     17377     17380
     17377     17380     17383     17384     17377     17380     17383     17385
     17377     17380     17383     17386     17378     17377     17380     17381
     17378     17377     17380     17382     17378     17377     17380     17383
     17379     17377     17380     17381     17379     17377     17380     17382
     17379     17377     17380     17383     17380     17383     17386     17387
     17380     17383     17386     17388     17380     17383     17386     17389
     17381     17380     17383     17384     17381     17380     17383     17385
     17381     17380     17383     17386     17382     17380     17383     17384
     17382     17380     17383     17385     17382     17380     17383     17386
     17384     17383     17386     17387     17384     17383     17386     17388
     17384     17383     17386     17389     17385     17383     17386     17387
     17385     17383     17386     17388     17385     17383     17386     17389
     17390     17393     17396     17397     17390     17393     17396     17398
     17390     17393     17396     17399     17391     17390     17393     17394
     17391     17390     17393     17395     17391     17390     17393     17396
     17392     17390     17393     17394     17392     17390     17393     17395
     17392     17390     17393     17396     17393     17396     17399     17400
     17393     17396     17399     17401     17393     17396     17399     17402
     17394     17393     17396     17397     17394     17393     17396     17398
     17394     17393     17396     17399     17395     17393     17396     17397
     17395     17393     17396     17398     17395     17393     17396     17399
     17396     17399     17402     17403     17396     17399     17402     17404
     17396     17399     17402     17405     17397     17396     17399     17400
     17397     17396     17399     17401     17397     17396     17399     17402
     17398     17396     17399     17400     17398     17396     17399     17401
     17398     17396     17399     17402     17399     17402     17405     17406
     17399     17402     17405     17407     17399     17402     17405     17408
     17400     17399     17402     17403     17400     17399     17402     17404
     17400     17399     17402     17405     17401     17399     17402     17403
     17401     17399     17402     17404     17401     17399     17402     17405
     17402     17405     17408     17409     17402     17405     17408     17410
     17402     17405     17408     17411     17403     17402     17405     17406
     17403     17402     17405     17407     17403     17402     17405     17408
     17404     17402     17405     17406     17404     17402     17405     17407
     17404     17402     17405     17408     17405     17408     17411     17412
     17405     17408     17411     17413     17405     17408     17411     17414
     17406     17405     17408     17409     17406     17405     17408     17410
     17406     17405     17408     17411     17407     17405     17408     17409
     17407     17405     17408     17410     17407     17405     17408     17411
     17408     17411     17414     17415     17408     17411     17414     17416
     17408     17411     17414     17417     17409     17408     17411     17412
     17409     17408     17411     17413     17409     17408     17411     17414
     17410     17408     17411     17412     17410     17408     17411     17413
     17410     17408     17411     17414     17411     17414     17417     17418
     17411     17414     17417     17419     17411     17414     17417     17420
     17412     17411     17414     17415     17412     17411     17414     17416
     17412     17411     17414     17417     17413     17411     17414     17415
     17413     17411     17414     17416     17413     17411     17414     17417
     17414     17417     17420     17421     17414     17417     17420     17422
     17414     17417     17420     17423     17415     17414     17417     17418
     17415     17414     17417     17419     17415     17414     17417     17420
     17416     17414     17417     17418     17416     17414     17417     17419
     17416     17414     17417     17420     17417     17420     17423     17424
     17417     17420     17423     17425     17417     17420     17423     17426
     17418     17417     17420     17421     17418     17417     17420     17422
     17418     17417     17420     17423     17419     17417     17420     17421
     17419     17417     17420     17422     17419     17417     17420     17423
     17420     17423     17426     17427     17420     17423     17426     17428
     17420     17423     17426     17429     17421     17420     17423     17424
     17421     17420     17423     17425     17421     17420     17423     17426
     17422     17420     17423     17424     17422     17420     17423     17425
     17422     17420     17423     17426     17423     17426     17429     17430
     17423     17426     17429     17431     17423     17426     17429     17432
     17424     17423     17426     17427     17424     17423     17426     17428
     17424     17423     17426     17429     17425     17423     17426     17427
     17425     17423     17426     17428     17425     17423     17426     17429
     17427     17426     17429     17430     17427     17426     17429     17431
     17427     17426     17429     17432     17428     17426     17429     17430
     17428     17426     17429     17431     17428     17426     17429     17432
     17433     17437     17440     17441     17433     17437     17440     17442
     17433     17437     17440     17447     17434     17433     17437     17438
     17434     17433     17437     17439     17434     17433     17437     17440
     17435     17433     17437     17438     17435     17433     17437     17439
     17435     17433     17437     17440     17436     17433     17437     17438
     17436     17433     17437     17439     17436     17433     17437     17440
     17437     17440     17447     17443     17438     17437     17440     17441
     17438     17437     17440     17442     17438     17437     17440     17447
     17439     17437     17440     17441     17439     17437     17440     17442
     17439     17437     17440     17447     17440     17447     17443     17444
     17440     17447     17443     17445     17440     17447     17443     17446
     17441     17440     17447     17443     17442     17440     17447     17443
     17443     17446     17448     17449     17443     17446     17448     17450
     17443     17446     17448     17451     17444     17443     17446     17448
     17445     17443     17446     17448     17446     17448     17451     17452
     17446     17448     17451     17453     17446     17448     17451     17459
     17447     17443     17446     17448     17448     17451     17453     17454
     17448     17451     17459     17460     17448     17451     17459     17461
     17448     17451     17459     17462     17449     17448     17451     17452
     17449     17448     17451     17453     17449     17448     17451     17459
     17450     17448     17451     17452     17450     17448     17451     17453
     17450     17448     17451     17459     17451     17453     17454     17455
     17451     17453     17454     17456     17451     17459     17462     17463
     17452     17451     17453     17454     17452     17451     17459     17460
     17452     17451     17459     17461     17452     17451     17459     17462
     17453     17451     17459     17460     17453     17451     17459     17461
     17453     17451     17459     17462     17453     17454     17456     17457
     17453     17454     17456     17458     17453     17454     17456     17468
     17454     17453     17451     17459     17454     17456     17468     17469
     17454     17456     17468     17470     17454     17456     17468     17471
     17455     17454     17456     17457     17455     17454     17456     17458
     17455     17454     17456     17468     17456     17468     17471     17472
     17456     17468     17471     17473     17456     17468     17471     17474
     17457     17456     17468     17469     17457     17456     17468     17470
     17457     17456     17468     17471     17458     17456     17468     17469
     17458     17456     17468     17470     17458     17456     17468     17471
     17459     17462     17463     17464     17459     17462     17463     17465
     17460     17459     17462     17463     17461     17459     17462     17463
     17462     17463     17465     17466     17462     17463     17465     17467
     17462     17463     17465     17515     17463     17465     17515     17516
     17463     17465     17515     17517     17463     17465     17515     17518
     17464     17463     17465     17466     17464     17463     17465     17467
     17464     17463     17465     17515     17465     17515     17518     17519
     17465     17515     17518     17520     17465     17515     17518     17521
     17466     17465     17515     17516     17466     17465     17515     17517
     17466     17465     17515     17518     17467     17465     17515     17516
     17467     17465     17515     17517     17467     17465     17515     17518
     17468     17471     17474     17475     17468     17471     17474     17476
     17468     17471     17474     17477     17469     17468     17471     17472
     17469     17468     17471     17473     17469     17468     17471     17474
     17470     17468     17471     17472     17470     17468     17471     17473
     17470     17468     17471     17474     17471     17474     17477     17478
     17471     17474     17477     17479     17471     17474     17477     17480
     17472     17471     17474     17475     17472     17471     17474     17476
     17472     17471     17474     17477     17473     17471     17474     17475
     17473     17471     17474     17476     17473     17471     17474     17477
     17474     17477     17480     17481     17474     17477     17480     17482
     17474     17477     17480     17483     17475     17474     17477     17478
     17475     17474     17477     17479     17475     17474     17477     17480
     17476     17474     17477     17478     17476     17474     17477     17479
     17476     17474     17477     17480     17477     17480     17483     17484
     17477     17480     17483     17485     17477     17480     17483     17486
     17478     17477     17480     17481     17478     17477     17480     17482
     17478     17477     17480     17483     17479     17477     17480     17481
     17479     17477     17480     17482     17479     17477     17480     17483
     17480     17483     17486     17487     17480     17483     17486     17488
     17481     17480     17483     17484     17481     17480     17483     17485
     17481     17480     17483     17486     17482     17480     17483     17484
     17482     17480     17483     17485     17482     17480     17483     17486
     17483     17486     17488     17489     17483     17486     17488     17490
     17484     17483     17486     17487     17484     17483     17486     17488
     17485     17483     17486     17487     17485     17483     17486     17488
     17486     17488     17490     17491     17486     17488     17490     17492
     17486     17488     17490     17493     17487     17486     17488     17489
     17487     17486     17488     17490     17488     17490     17493     17494
     17488     17490     17493     17495     17488     17490     17493     17496
     17489     17488     17490     17491     17489     17488     17490     17492
     17489     17488     17490     17493     17490     17493     17496     17497
     17490     17493     17496     17498     17490     17493     17496     17499
     17491     17490     17493     17494     17491     17490     17493     17495
     17491     17490     17493     17496     17492     17490     17493     17494
     17492     17490     17493     17495     17492     17490     17493     17496
     17493     17496     17499     17500     17493     17496     17499     17501
     17493     17496     17499     17502     17494     17493     17496     17497
     17494     17493     17496     17498     17494     17493     17496     17499
     17495     17493     17496     17497     17495     17493     17496     17498
     17495     17493     17496     17499     17496     17499     17502     17503
     17496     17499     17502     17504     17496     17499     17502     17505
     17497     17496     17499     17500     17497     17496     17499     17501
     17497     17496     17499     17502     17498     17496     17499     17500
     17498     17496     17499     17501     17498     17496     17499     17502
     17499     17502     17505     17506     17499     17502     17505     17507
     17499     17502     17505     17508     17500     17499     17502     17503
     17500     17499     17502     17504     17500     17499     17502     17505
     17501     17499     17502     17503     17501     17499     17502     17504
     17501     17499     17502     17505     17502     17505     17508     17509
     17502     17505     17508     17510     17502     17505     17508     17511
     17503     17502     17505     17506     17503     17502     17505     17507
     17503     17502     17505     17508     17504     17502     17505     17506
     17504     17502     17505     17507     17504     17502     17505     17508
     17505     17508     17511     17512     17505     17508     17511     17513
     17505     17508     17511     17514     17506     17505     17508     17509
     17506     17505     17508     17510     17506     17505     17508     17511
     17507     17505     17508     17509     17507     17505     17508     17510
     17507     17505     17508     17511     17509     17508     17511     17512
     17509     17508     17511     17513     17509     17508     17511     17514
     17510     17508     17511     17512     17510     17508     17511     17513
     17510     17508     17511     17514     17515     17518     17521     17522
     17515     17518     17521     17523     17515     17518     17521     17524
     17516     17515     17518     17519     17516     17515     17518     17520
     17516     17515     17518     17521     17517     17515     17518     17519
     17517     17515     17518     17520     17517     17515     17518     17521
     17518     17521     17524     17525     17518     17521     17524     17526
     17518     17521     17524     17527     17519     17518     17521     17522
     17519     17518     17521     17523     17519     17518     17521     17524
     17520     17518     17521     17522     17520     17518     17521     17523
     17520     17518     17521     17524     17521     17524     17527     17528
     17521     17524     17527     17529     17521     17524     17527     17530
     17522     17521     17524     17525     17522     17521     17524     17526
     17522     17521     17524     17527     17523     17521     17524     17525
     17523     17521     17524     17526     17523     17521     17524     17527
     17524     17527     17530     17531     17524     17527     17530     17532
     17524     17527     17530     17533     17525     17524     17527     17528
     17525     17524     17527     17529     17525     17524     17527     17530
     17526     17524     17527     17528     17526     17524     17527     17529
     17526     17524     17527     17530     17527     17530     17533     17534
     17527     17530     17533     17535     17527     17530     17533     17536
     17528     17527     17530     17531     17528     17527     17530     17532
     17528     17527     17530     17533     17529     17527     17530     17531
     17529     17527     17530     17532     17529     17527     17530     17533
     17530     17533     17536     17537     17530     17533     17536     17538
     17530     17533     17536     17539     17531     17530     17533     17534
     17531     17530     17533     17535     17531     17530     17533     17536
     17532     17530     17533     17534     17532     17530     17533     17535
     17532     17530     17533     17536     17533     17536     17539     17540
     17533     17536     17539     17541     17533     17536     17539     17542
     17534     17533     17536     17537     17534     17533     17536     17538
     17534     17533     17536     17539     17535     17533     17536     17537
     17535     17533     17536     17538     17535     17533     17536     17539
     17536     17539     17542     17543     17536     17539     17542     17544
     17536     17539     17542     17545     17537     17536     17539     17540
     17537     17536     17539     17541     17537     17536     17539     17542
     17538     17536     17539     17540     17538     17536     17539     17541
     17538     17536     17539     17542     17539     17542     17545     17546
     17539     17542     17545     17547     17539     17542     17545     17548
     17540     17539     17542     17543     17540     17539     17542     17544
     17540     17539     17542     17545     17541     17539     17542     17543
     17541     17539     17542     17544     17541     17539     17542     17545
     17542     17545     17548     17549     17542     17545     17548     17550
     17542     17545     17548     17551     17543     17542     17545     17546
     17543     17542     17545     17547     17543     17542     17545     17548
     17544     17542     17545     17546     17544     17542     17545     17547
     17544     17542     17545     17548     17545     17548     17551     17552
     17545     17548     17551     17553     17545     17548     17551     17554
     17546     17545     17548     17549     17546     17545     17548     17550
     17546     17545     17548     17551     17547     17545     17548     17549
     17547     17545     17548     17550     17547     17545     17548     17551
     17548     17551     17554     17555     17548     17551     17554     17556
     17548     17551     17554     17557     17549     17548     17551     17552
     17549     17548     17551     17553     17549     17548     17551     17554
     17550     17548     17551     17552     17550     17548     17551     17553
     17550     17548     17551     17554     17552     17551     17554     17555
     17552     17551     17554     17556     17552     17551     17554     17557
     17553     17551     17554     17555     17553     17551     17554     17556
     17553     17551     17554     17557     17558     17559     17574     17575
     17558     17559     17574     17576     17558     17559     17574     17580
     17559     17558     17562     17563     17559     17558     17562     17564
     17559     17558     17562     17565     17559     17558     17566     17567
     17559     17558     17566     17568     17559     17558     17566     17569
     17559     17558     17570     17571     17559     17558     17570     17572
     17559     17558     17570     17573     17559     17574     17580     17577
     17560     17559     17558     17562     17560     17559     17558     17566
     17560     17559     17558     17570     17560     17559     17574     17575
     17560     17559     17574     17576     17560     17559     17574     17580
     17561     17559     17558     17562     17561     17559     17558     17566
     17561     17559     17558     17570     17561     17559     17574     17575
     17561     17559     17574     17576     17561     17559     17574     17580
     17562     17558     17559     17574     17562     17558     17566     17567
     17562     17558     17566     17568     17562     17558     17566     17569
     17562     17558     17570     17571     17562     17558     17570     17572
     17562     17558     17570     17573     17563     17562     17558     17566
     17563     17562     17558     17570     17564     17562     17558     17566
     17564     17562     17558     17570     17565     17562     17558     17566
     17565     17562     17558     17570     17566     17558     17559     17574
     17566     17558     17570     17571     17566     17558     17570     17572
     17566     17558     17570     17573     17567     17566     17558     17570
     17568     17566     17558     17570     17569     17566     17558     17570
     17570     17558     17559     17574     17574     17580     17577     17578
     17574     17580     17577     17579     17574     17580     17577     17581
     17575     17574     17580     17577     17576     17574     17580     17577
     17577     17581     17582     17583     17577     17581     17582     17584
     17577     17581     17582     17585     17578     17577     17581     17582
     17579     17577     17581     17582     17580     17577     17581     17582
     17581     17582     17585     17586     17581     17582     17585     17587
     17581     17582     17585     17593     17582     17585     17587     17588
     17582     17585     17593     17594     17582     17585     17593     17595
     17582     17585     17593     17596     17583     17582     17585     17586
     17583     17582     17585     17587     17583     17582     17585     17593
     17584     17582     17585     17586     17584     17582     17585     17587
     17584     17582     17585     17593     17585     17587     17588     17589
     17585     17587     17588     17590     17585     17593     17596     17597
     17586     17585     17587     17588     17586     17585     17593     17594
     17586     17585     17593     17595     17586     17585     17593     17596
     17587     17585     17593     17594     17587     17585     17593     17595
     17587     17585     17593     17596     17587     17588     17590     17591
     17587     17588     17590     17592     17587     17588     17590     17602
     17588     17587     17585     17593     17588     17590     17602     17603
     17588     17590     17602     17604     17588     17590     17602     17605
     17589     17588     17590     17591     17589     17588     17590     17592
     17589     17588     17590     17602     17590     17602     17605     17606
     17590     17602     17605     17607     17590     17602     17605     17608
     17591     17590     17602     17603     17591     17590     17602     17604
     17591     17590     17602     17605     17592     17590     17602     17603
     17592     17590     17602     17604     17592     17590     17602     17605
     17593     17596     17597     17598     17593     17596     17597     17599
     17594     17593     17596     17597     17595     17593     17596     17597
     17596     17597     17599     17600     17596     17597     17599     17601
     17596     17597     17599     17649     17597     17599     17649     17650
     17597     17599     17649     17651     17597     17599     17649     17652
     17598     17597     17599     17600     17598     17597     17599     17601
     17598     17597     17599     17649     17599     17649     17652     17653
     17599     17649     17652     17654     17599     17649     17652     17655
     17600     17599     17649     17650     17600     17599     17649     17651
     17600     17599     17649     17652     17601     17599     17649     17650
     17601     17599     17649     17651     17601     17599     17649     17652
     17602     17605     17608     17609     17602     17605     17608     17610
     17602     17605     17608     17611     17603     17602     17605     17606
     17603     17602     17605     17607     17603     17602     17605     17608
     17604     17602     17605     17606     17604     17602     17605     17607
     17604     17602     17605     17608     17605     17608     17611     17612
     17605     17608     17611     17613     17605     17608     17611     17614
     17606     17605     17608     17609     17606     17605     17608     17610
     17606     17605     17608     17611     17607     17605     17608     17609
     17607     17605     17608     17610     17607     17605     17608     17611
     17608     17611     17614     17615     17608     17611     17614     17616
     17608     17611     17614     17617     17609     17608     17611     17612
     17609     17608     17611     17613     17609     17608     17611     17614
     17610     17608     17611     17612     17610     17608     17611     17613
     17610     17608     17611     17614     17611     17614     17617     17618
     17611     17614     17617     17619     17611     17614     17617     17620
     17612     17611     17614     17615     17612     17611     17614     17616
     17612     17611     17614     17617     17613     17611     17614     17615
     17613     17611     17614     17616     17613     17611     17614     17617
     17614     17617     17620     17621     17614     17617     17620     17622
     17615     17614     17617     17618     17615     17614     17617     17619
     17615     17614     17617     17620     17616     17614     17617     17618
     17616     17614     17617     17619     17616     17614     17617     17620
     17617     17620     17622     17623     17617     17620     17622     17624
     17618     17617     17620     17621     17618     17617     17620     17622
     17619     17617     17620     17621     17619     17617     17620     17622
     17620     17622     17624     17625     17620     17622     17624     17626
     17620     17622     17624     17627     17621     17620     17622     17623
     17621     17620     17622     17624     17622     17624     17627     17628
     17622     17624     17627     17629     17622     17624     17627     17630
     17623     17622     17624     17625     17623     17622     17624     17626
     17623     17622     17624     17627     17624     17627     17630     17631
     17624     17627     17630     17632     17624     17627     17630     17633
     17625     17624     17627     17628     17625     17624     17627     17629
     17625     17624     17627     17630     17626     17624     17627     17628
     17626     17624     17627     17629     17626     17624     17627     17630
     17627     17630     17633     17634     17627     17630     17633     17635
     17627     17630     17633     17636     17628     17627     17630     17631
     17628     17627     17630     17632     17628     17627     17630     17633
     17629     17627     17630     17631     17629     17627     17630     17632
     17629     17627     17630     17633     17630     17633     17636     17637
     17630     17633     17636     17638     17630     17633     17636     17639
     17631     17630     17633     17634     17631     17630     17633     17635
     17631     17630     17633     17636     17632     17630     17633     17634
     17632     17630     17633     17635     17632     17630     17633     17636
     17633     17636     17639     17640     17633     17636     17639     17641
     17633     17636     17639     17642     17634     17633     17636     17637
     17634     17633     17636     17638     17634     17633     17636     17639
     17635     17633     17636     17637     17635     17633     17636     17638
     17635     17633     17636     17639     17636     17639     17642     17643
     17636     17639     17642     17644     17636     17639     17642     17645
     17637     17636     17639     17640     17637     17636     17639     17641
     17637     17636     17639     17642     17638     17636     17639     17640
     17638     17636     17639     17641     17638     17636     17639     17642
     17639     17642     17645     17646     17639     17642     17645     17647
     17639     17642     17645     17648     17640     17639     17642     17643
     17640     17639     17642     17644     17640     17639     17642     17645
     17641     17639     17642     17643     17641     17639     17642     17644
     17641     17639     17642     17645     17643     17642     17645     17646
     17643     17642     17645     17647     17643     17642     17645     17648
     17644     17642     17645     17646     17644     17642     17645     17647
     17644     17642     17645     17648     17649     17652     17655     17656
     17649     17652     17655     17657     17649     17652     17655     17658
     17650     17649     17652     17653     17650     17649     17652     17654
     17650     17649     17652     17655     17651     17649     17652     17653
     17651     17649     17652     17654     17651     17649     17652     17655
     17652     17655     17658     17659     17652     17655     17658     17660
     17652     17655     17658     17661     17653     17652     17655     17656
     17653     17652     17655     17657     17653     17652     17655     17658
     17654     17652     17655     17656     17654     17652     17655     17657
     17654     17652     17655     17658     17655     17658     17661     17662
     17655     17658     17661     17663     17655     17658     17661     17664
     17656     17655     17658     17659     17656     17655     17658     17660
     17656     17655     17658     17661     17657     17655     17658     17659
     17657     17655     17658     17660     17657     17655     17658     17661
     17658     17661     17664     17665     17658     17661     17664     17666
     17658     17661     17664     17667     17659     17658     17661     17662
     17659     17658     17661     17663     17659     17658     17661     17664
     17660     17658     17661     17662     17660     17658     17661     17663
     17660     17658     17661     17664     17661     17664     17667     17668
     17661     17664     17667     17669     17661     17664     17667     17670
     17662     17661     17664     17665     17662     17661     17664     17666
     17662     17661     17664     17667     17663     17661     17664     17665
     17663     17661     17664     17666     17663     17661     17664     17667
     17664     17667     17670     17671     17664     17667     17670     17672
     17664     17667     17670     17673     17665     17664     17667     17668
     17665     17664     17667     17669     17665     17664     17667     17670
     17666     17664     17667     17668     17666     17664     17667     17669
     17666     17664     17667     17670     17667     17670     17673     17674
     17667     17670     17673     17675     17667     17670     17673     17676
     17668     17667     17670     17671     17668     17667     17670     17672
     17668     17667     17670     17673     17669     17667     17670     17671
     17669     17667     17670     17672     17669     17667     17670     17673
     17670     17673     17676     17677     17670     17673     17676     17678
     17670     17673     17676     17679     17671     17670     17673     17674
     17671     17670     17673     17675     17671     17670     17673     17676
     17672     17670     17673     17674     17672     17670     17673     17675
     17672     17670     17673     17676     17673     17676     17679     17680
     17673     17676     17679     17681     17673     17676     17679     17682
     17674     17673     17676     17677     17674     17673     17676     17678
     17674     17673     17676     17679     17675     17673     17676     17677
     17675     17673     17676     17678     17675     17673     17676     17679
     17676     17679     17682     17683     17676     17679     17682     17684
     17676     17679     17682     17685     17677     17676     17679     17680
     17677     17676     17679     17681     17677     17676     17679     17682
     17678     17676     17679     17680     17678     17676     17679     17681
     17678     17676     17679     17682     17679     17682     17685     17686
     17679     17682     17685     17687     17679     17682     17685     17688
     17680     17679     17682     17683     17680     17679     17682     17684
     17680     17679     17682     17685     17681     17679     17682     17683
     17681     17679     17682     17684     17681     17679     17682     17685
     17682     17685     17688     17689     17682     17685     17688     17690
     17682     17685     17688     17691     17683     17682     17685     17686
     17683     17682     17685     17687     17683     17682     17685     17688
     17684     17682     17685     17686     17684     17682     17685     17687
     17684     17682     17685     17688     17686     17685     17688     17689
     17686     17685     17688     17690     17686     17685     17688     17691
     17687     17685     17688     17689     17687     17685     17688     17690
     17687     17685     17688     17691     17692     17693     17708     17709
     17692     17693     17708     17710     17692     17693     17708     17714
     17693     17692     17696     17697     17693     17692     17696     17698
     17693     17692     17696     17699     17693     17692     17700     17701
     17693     17692     17700     17702     17693     17692     17700     17703
     17693     17692     17704     17705     17693     17692     17704     17706
     17693     17692     17704     17707     17693     17708     17714     17711
     17694     17693     17692     17696     17694     17693     17692     17700
     17694     17693     17692     17704     17694     17693     17708     17709
     17694     17693     17708     17710     17694     17693     17708     17714
     17695     17693     17692     17696     17695     17693     17692     17700
     17695     17693     17692     17704     17695     17693     17708     17709
     17695     17693     17708     17710     17695     17693     17708     17714
     17696     17692     17693     17708     17696     17692     17700     17701
     17696     17692     17700     17702     17696     17692     17700     17703
     17696     17692     17704     17705     17696     17692     17704     17706
     17696     17692     17704     17707     17697     17696     17692     17700
     17697     17696     17692     17704     17698     17696     17692     17700
     17698     17696     17692     17704     17699     17696     17692     17700
     17699     17696     17692     17704     17700     17692     17693     17708
     17700     17692     17704     17705     17700     17692     17704     17706
     17700     17692     17704     17707     17701     17700     17692     17704
     17702     17700     17692     17704     17703     17700     17692     17704
     17704     17692     17693     17708     17708     17714     17711     17712
     17708     17714     17711     17713     17708     17714     17711     17715
     17709     17708     17714     17711     17710     17708     17714     17711
     17711     17715     17716     17717     17711     17715     17716     17718
     17711     17715     17716     17719     17712     17711     17715     17716
     17713     17711     17715     17716     17714     17711     17715     17716
     17715     17716     17719     17720     17715     17716     17719     17721
     17715     17716     17719     17727     17716     17719     17721     17722
     17716     17719     17727     17728     17716     17719     17727     17729
     17716     17719     17727     17730     17717     17716     17719     17720
     17717     17716     17719     17721     17717     17716     17719     17727
     17718     17716     17719     17720     17718     17716     17719     17721
     17718     17716     17719     17727     17719     17721     17722     17723
     17719     17721     17722     17724     17719     17727     17730     17731
     17720     17719     17721     17722     17720     17719     17727     17728
     17720     17719     17727     17729     17720     17719     17727     17730
     17721     17719     17727     17728     17721     17719     17727     17729
     17721     17719     17727     17730     17721     17722     17724     17725
     17721     17722     17724     17726     17721     17722     17724     17736
     17722     17721     17719     17727     17722     17724     17736     17737
     17722     17724     17736     17738     17722     17724     17736     17739
     17723     17722     17724     17725     17723     17722     17724     17726
     17723     17722     17724     17736     17724     17736     17739     17740
     17724     17736     17739     17741     17724     17736     17739     17742
     17725     17724     17736     17737     17725     17724     17736     17738
     17725     17724     17736     17739     17726     17724     17736     17737
     17726     17724     17736     17738     17726     17724     17736     17739
     17727     17730     17731     17732     17727     17730     17731     17733
     17728     17727     17730     17731     17729     17727     17730     17731
     17730     17731     17733     17734     17730     17731     17733     17735
     17730     17731     17733     17783     17731     17733     17783     17784
     17731     17733     17783     17785     17731     17733     17783     17786
     17732     17731     17733     17734     17732     17731     17733     17735
     17732     17731     17733     17783     17733     17783     17786     17787
     17733     17783     17786     17788     17733     17783     17786     17789
     17734     17733     17783     17784     17734     17733     17783     17785
     17734     17733     17783     17786     17735     17733     17783     17784
     17735     17733     17783     17785     17735     17733     17783     17786
     17736     17739     17742     17743     17736     17739     17742     17744
     17736     17739     17742     17745     17737     17736     17739     17740
     17737     17736     17739     17741     17737     17736     17739     17742
     17738     17736     17739     17740     17738     17736     17739     17741
     17738     17736     17739     17742     17739     17742     17745     17746
     17739     17742     17745     17747     17739     17742     17745     17748
     17740     17739     17742     17743     17740     17739     17742     17744
     17740     17739     17742     17745     17741     17739     17742     17743
     17741     17739     17742     17744     17741     17739     17742     17745
     17742     17745     17748     17749     17742     17745     17748     17750
     17742     17745     17748     17751     17743     17742     17745     17746
     17743     17742     17745     17747     17743     17742     17745     17748
     17744     17742     17745     17746     17744     17742     17745     17747
     17744     17742     17745     17748     17745     17748     17751     17752
     17745     17748     17751     17753     17745     17748     17751     17754
     17746     17745     17748     17749     17746     17745     17748     17750
     17746     17745     17748     17751     17747     17745     17748     17749
     17747     17745     17748     17750     17747     17745     17748     17751
     17748     17751     17754     17755     17748     17751     17754     17756
     17749     17748     17751     17752     17749     17748     17751     17753
     17749     17748     17751     17754     17750     17748     17751     17752
     17750     17748     17751     17753     17750     17748     17751     17754
     17751     17754     17756     17757     17751     17754     17756     17758
     17752     17751     17754     17755     17752     17751     17754     17756
     17753     17751     17754     17755     17753     17751     17754     17756
     17754     17756     17758     17759     17754     17756     17758     17760
     17754     17756     17758     17761     17755     17754     17756     17757
     17755     17754     17756     17758     17756     17758     17761     17762
     17756     17758     17761     17763     17756     17758     17761     17764
     17757     17756     17758     17759     17757     17756     17758     17760
     17757     17756     17758     17761     17758     17761     17764     17765
     17758     17761     17764     17766     17758     17761     17764     17767
     17759     17758     17761     17762     17759     17758     17761     17763
     17759     17758     17761     17764     17760     17758     17761     17762
     17760     17758     17761     17763     17760     17758     17761     17764
     17761     17764     17767     17768     17761     17764     17767     17769
     17761     17764     17767     17770     17762     17761     17764     17765
     17762     17761     17764     17766     17762     17761     17764     17767
     17763     17761     17764     17765     17763     17761     17764     17766
     17763     17761     17764     17767     17764     17767     17770     17771
     17764     17767     17770     17772     17764     17767     17770     17773
     17765     17764     17767     17768     17765     17764     17767     17769
     17765     17764     17767     17770     17766     17764     17767     17768
     17766     17764     17767     17769     17766     17764     17767     17770
     17767     17770     17773     17774     17767     17770     17773     17775
     17767     17770     17773     17776     17768     17767     17770     17771
     17768     17767     17770     17772     17768     17767     17770     17773
     17769     17767     17770     17771     17769     17767     17770     17772
     17769     17767     17770     17773     17770     17773     17776     17777
     17770     17773     17776     17778     17770     17773     17776     17779
     17771     17770     17773     17774     17771     17770     17773     17775
     17771     17770     17773     17776     17772     17770     17773     17774
     17772     17770     17773     17775     17772     17770     17773     17776
     17773     17776     17779     17780     17773     17776     17779     17781
     17773     17776     17779     17782     17774     17773     17776     17777
     17774     17773     17776     17778     17774     17773     17776     17779
     17775     17773     17776     17777     17775     17773     17776     17778
     17775     17773     17776     17779     17777     17776     17779     17780
     17777     17776     17779     17781     17777     17776     17779     17782
     17778     17776     17779     17780     17778     17776     17779     17781
     17778     17776     17779     17782     17783     17786     17789     17790
     17783     17786     17789     17791     17783     17786     17789     17792
     17784     17783     17786     17787     17784     17783     17786     17788
     17784     17783     17786     17789     17785     17783     17786     17787
     17785     17783     17786     17788     17785     17783     17786     17789
     17786     17789     17792     17793     17786     17789     17792     17794
     17786     17789     17792     17795     17787     17786     17789     17790
     17787     17786     17789     17791     17787     17786     17789     17792
     17788     17786     17789     17790     17788     17786     17789     17791
     17788     17786     17789     17792     17789     17792     17795     17796
     17789     17792     17795     17797     17789     17792     17795     17798
     17790     17789     17792     17793     17790     17789     17792     17794
     17790     17789     17792     17795     17791     17789     17792     17793
     17791     17789     17792     17794     17791     17789     17792     17795
     17792     17795     17798     17799     17792     17795     17798     17800
     17792     17795     17798     17801     17793     17792     17795     17796
     17793     17792     17795     17797     17793     17792     17795     17798
     17794     17792     17795     17796     17794     17792     17795     17797
     17794     17792     17795     17798     17795     17798     17801     17802
     17795     17798     17801     17803     17795     17798     17801     17804
     17796     17795     17798     17799     17796     17795     17798     17800
     17796     17795     17798     17801     17797     17795     17798     17799
     17797     17795     17798     17800     17797     17795     17798     17801
     17798     17801     17804     17805     17798     17801     17804     17806
     17798     17801     17804     17807     17799     17798     17801     17802
     17799     17798     17801     17803     17799     17798     17801     17804
     17800     17798     17801     17802     17800     17798     17801     17803
     17800     17798     17801     17804     17801     17804     17807     17808
     17801     17804     17807     17809     17801     17804     17807     17810
     17802     17801     17804     17805     17802     17801     17804     17806
     17802     17801     17804     17807     17803     17801     17804     17805
     17803     17801     17804     17806     17803     17801     17804     17807
     17804     17807     17810     17811     17804     17807     17810     17812
     17804     17807     17810     17813     17805     17804     17807     17808
     17805     17804     17807     17809     17805     17804     17807     17810
     17806     17804     17807     17808     17806     17804     17807     17809
     17806     17804     17807     17810     17807     17810     17813     17814
     17807     17810     17813     17815     17807     17810     17813     17816
     17808     17807     17810     17811     17808     17807     17810     17812
     17808     17807     17810     17813     17809     17807     17810     17811
     17809     17807     17810     17812     17809     17807     17810     17813
     17810     17813     17816     17817     17810     17813     17816     17818
     17810     17813     17816     17819     17811     17810     17813     17814
     17811     17810     17813     17815     17811     17810     17813     17816
     17812     17810     17813     17814     17812     17810     17813     17815
     17812     17810     17813     17816     17813     17816     17819     17820
     17813     17816     17819     17821     17813     17816     17819     17822
     17814     17813     17816     17817     17814     17813     17816     17818
     17814     17813     17816     17819     17815     17813     17816     17817
     17815     17813     17816     17818     17815     17813     17816     17819
     17816     17819     17822     17823     17816     17819     17822     17824
     17816     17819     17822     17825     17817     17816     17819     17820
     17817     17816     17819     17821     17817     17816     17819     17822
     17818     17816     17819     17820     17818     17816     17819     17821
     17818     17816     17819     17822     17820     17819     17822     17823
     17820     17819     17822     17824     17820     17819     17822     17825
     17821     17819     17822     17823     17821     17819     17822     17824
     17821     17819     17822     17825     17826     17830     17833     17834
     17826     17830     17833     17835     17826     17830     17833     17840
     17827     17826     17830     17831     17827     17826     17830     17832
     17827     17826     17830     17833     17828     17826     17830     17831
     17828     17826     17830     17832     17828     17826     17830     17833
     17829     17826     17830     17831     17829     17826     17830     17832
     17829     17826     17830     17833     17830     17833     17840     17836
     17831     17830     17833     17834     17831     17830     17833     17835
     17831     17830     17833     17840     17832     17830     17833     17834
     17832     17830     17833     17835     17832     17830     17833     17840
     17833     17840     17836     17837     17833     17840     17836     17838
     17833     17840     17836     17839     17834     17833     17840     17836
     17835     17833     17840     17836     17836     17839     17841     17842
     17836     17839     17841     17843     17836     17839     17841     17844
     17837     17836     17839     17841     17838     17836     17839     17841
     17839     17841     17844     17845     17839     17841     17844     17846
     17839     17841     17844     17852     17840     17836     17839     17841
     17841     17844     17846     17847     17841     17844     17852     17853
     17841     17844     17852     17854     17841     17844     17852     17855
     17842     17841     17844     17845     17842     17841     17844     17846
     17842     17841     17844     17852     17843     17841     17844     17845
     17843     17841     17844     17846     17843     17841     17844     17852
     17844     17846     17847     17848     17844     17846     17847     17849
     17844     17852     17855     17856     17845     17844     17846     17847
     17845     17844     17852     17853     17845     17844     17852     17854
     17845     17844     17852     17855     17846     17844     17852     17853
     17846     17844     17852     17854     17846     17844     17852     17855
     17846     17847     17849     17850     17846     17847     17849     17851
     17846     17847     17849     17861     17847     17846     17844     17852
     17847     17849     17861     17862     17847     17849     17861     17863
     17847     17849     17861     17864     17848     17847     17849     17850
     17848     17847     17849     17851     17848     17847     17849     17861
     17849     17861     17864     17865     17849     17861     17864     17866
     17849     17861     17864     17867     17850     17849     17861     17862
     17850     17849     17861     17863     17850     17849     17861     17864
     17851     17849     17861     17862     17851     17849     17861     17863
     17851     17849     17861     17864     17852     17855     17856     17857
     17852     17855     17856     17858     17853     17852     17855     17856
     17854     17852     17855     17856     17855     17856     17858     17859
     17855     17856     17858     17860     17855     17856     17858     17908
     17856     17858     17908     17909     17856     17858     17908     17910
     17856     17858     17908     17911     17857     17856     17858     17859
     17857     17856     17858     17860     17857     17856     17858     17908
     17858     17908     17911     17912     17858     17908     17911     17913
     17858     17908     17911     17914     17859     17858     17908     17909
     17859     17858     17908     17910     17859     17858     17908     17911
     17860     17858     17908     17909     17860     17858     17908     17910
     17860     17858     17908     17911     17861     17864     17867     17868
     17861     17864     17867     17869     17861     17864     17867     17870
     17862     17861     17864     17865     17862     17861     17864     17866
     17862     17861     17864     17867     17863     17861     17864     17865
     17863     17861     17864     17866     17863     17861     17864     17867
     17864     17867     17870     17871     17864     17867     17870     17872
     17864     17867     17870     17873     17865     17864     17867     17868
     17865     17864     17867     17869     17865     17864     17867     17870
     17866     17864     17867     17868     17866     17864     17867     17869
     17866     17864     17867     17870     17867     17870     17873     17874
     17867     17870     17873     17875     17867     17870     17873     17876
     17868     17867     17870     17871     17868     17867     17870     17872
     17868     17867     17870     17873     17869     17867     17870     17871
     17869     17867     17870     17872     17869     17867     17870     17873
     17870     17873     17876     17877     17870     17873     17876     17878
     17870     17873     17876     17879     17871     17870     17873     17874
     17871     17870     17873     17875     17871     17870     17873     17876
     17872     17870     17873     17874     17872     17870     17873     17875
     17872     17870     17873     17876     17873     17876     17879     17880
     17873     17876     17879     17881     17874     17873     17876     17877
     17874     17873     17876     17878     17874     17873     17876     17879
     17875     17873     17876     17877     17875     17873     17876     17878
     17875     17873     17876     17879     17876     17879     17881     17882
     17876     17879     17881     17883     17877     17876     17879     17880
     17877     17876     17879     17881     17878     17876     17879     17880
     17878     17876     17879     17881     17879     17881     17883     17884
     17879     17881     17883     17885     17879     17881     17883     17886
     17880     17879     17881     17882     17880     17879     17881     17883
     17881     17883     17886     17887     17881     17883     17886     17888
     17881     17883     17886     17889     17882     17881     17883     17884
     17882     17881     17883     17885     17882     17881     17883     17886
     17883     17886     17889     17890     17883     17886     17889     17891
     17883     17886     17889     17892     17884     17883     17886     17887
     17884     17883     17886     17888     17884     17883     17886     17889
     17885     17883     17886     17887     17885     17883     17886     17888
     17885     17883     17886     17889     17886     17889     17892     17893
     17886     17889     17892     17894     17886     17889     17892     17895
     17887     17886     17889     17890     17887     17886     17889     17891
     17887     17886     17889     17892     17888     17886     17889     17890
     17888     17886     17889     17891     17888     17886     17889     17892
     17889     17892     17895     17896     17889     17892     17895     17897
     17889     17892     17895     17898     17890     17889     17892     17893
     17890     17889     17892     17894     17890     17889     17892     17895
     17891     17889     17892     17893     17891     17889     17892     17894
     17891     17889     17892     17895     17892     17895     17898     17899
     17892     17895     17898     17900     17892     17895     17898     17901
     17893     17892     17895     17896     17893     17892     17895     17897
     17893     17892     17895     17898     17894     17892     17895     17896
     17894     17892     17895     17897     17894     17892     17895     17898
     17895     17898     17901     17902     17895     17898     17901     17903
     17895     17898     17901     17904     17896     17895     17898     17899
     17896     17895     17898     17900     17896     17895     17898     17901
     17897     17895     17898     17899     17897     17895     17898     17900
     17897     17895     17898     17901     17898     17901     17904     17905
     17898     17901     17904     17906     17898     17901     17904     17907
     17899     17898     17901     17902     17899     17898     17901     17903
     17899     17898     17901     17904     17900     17898     17901     17902
     17900     17898     17901     17903     17900     17898     17901     17904
     17902     17901     17904     17905     17902     17901     17904     17906
     17902     17901     17904     17907     17903     17901     17904     17905
     17903     17901     17904     17906     17903     17901     17904     17907
     17908     17911     17914     17915     17908     17911     17914     17916
     17908     17911     17914     17917     17909     17908     17911     17912
     17909     17908     17911     17913     17909     17908     17911     17914
     17910     17908     17911     17912     17910     17908     17911     17913
     17910     17908     17911     17914     17911     17914     17917     17918
     17911     17914     17917     17919     17911     17914     17917     17920
     17912     17911     17914     17915     17912     17911     17914     17916
     17912     17911     17914     17917     17913     17911     17914     17915
     17913     17911     17914     17916     17913     17911     17914     17917
     17914     17917     17920     17921     17914     17917     17920     17922
     17914     17917     17920     17923     17915     17914     17917     17918
     17915     17914     17917     17919     17915     17914     17917     17920
     17916     17914     17917     17918     17916     17914     17917     17919
     17916     17914     17917     17920     17917     17920     17923     17924
     17917     17920     17923     17925     17917     17920     17923     17926
     17918     17917     17920     17921     17918     17917     17920     17922
     17918     17917     17920     17923     17919     17917     17920     17921
     17919     17917     17920     17922     17919     17917     17920     17923
     17920     17923     17926     17927     17920     17923     17926     17928
     17920     17923     17926     17929     17921     17920     17923     17924
     17921     17920     17923     17925     17921     17920     17923     17926
     17922     17920     17923     17924     17922     17920     17923     17925
     17922     17920     17923     17926     17923     17926     17929     17930
     17923     17926     17929     17931     17923     17926     17929     17932
     17924     17923     17926     17927     17924     17923     17926     17928
     17924     17923     17926     17929     17925     17923     17926     17927
     17925     17923     17926     17928     17925     17923     17926     17929
     17926     17929     17932     17933     17926     17929     17932     17934
     17926     17929     17932     17935     17927     17926     17929     17930
     17927     17926     17929     17931     17927     17926     17929     17932
     17928     17926     17929     17930     17928     17926     17929     17931
     17928     17926     17929     17932     17929     17932     17935     17936
     17929     17932     17935     17937     17929     17932     17935     17938
     17930     17929     17932     17933     17930     17929     17932     17934
     17930     17929     17932     17935     17931     17929     17932     17933
     17931     17929     17932     17934     17931     17929     17932     17935
     17932     17935     17938     17939     17932     17935     17938     17940
     17932     17935     17938     17941     17933     17932     17935     17936
     17933     17932     17935     17937     17933     17932     17935     17938
     17934     17932     17935     17936     17934     17932     17935     17937
     17934     17932     17935     17938     17935     17938     17941     17942
     17935     17938     17941     17943     17935     17938     17941     17944
     17936     17935     17938     17939     17936     17935     17938     17940
     17936     17935     17938     17941     17937     17935     17938     17939
     17937     17935     17938     17940     17937     17935     17938     17941
     17938     17941     17944     17945     17938     17941     17944     17946
     17938     17941     17944     17947     17939     17938     17941     17942
     17939     17938     17941     17943     17939     17938     17941     17944
     17940     17938     17941     17942     17940     17938     17941     17943
     17940     17938     17941     17944     17941     17944     17947     17948
     17941     17944     17947     17949     17941     17944     17947     17950
     17942     17941     17944     17945     17942     17941     17944     17946
     17942     17941     17944     17947     17943     17941     17944     17945
     17943     17941     17944     17946     17943     17941     17944     17947
     17945     17944     17947     17948     17945     17944     17947     17949
     17945     17944     17947     17950     17946     17944     17947     17948
     17946     17944     17947     17949     17946     17944     17947     17950
     17951     17955     17958     17959     17951     17955     17958     17960
     17951     17955     17958     17965     17952     17951     17955     17956
     17952     17951     17955     17957     17952     17951     17955     17958
     17953     17951     17955     17956     17953     17951     17955     17957
     17953     17951     17955     17958     17954     17951     17955     17956
     17954     17951     17955     17957     17954     17951     17955     17958
     17955     17958     17965     17961     17956     17955     17958     17959
     17956     17955     17958     17960     17956     17955     17958     17965
     17957     17955     17958     17959     17957     17955     17958     17960
     17957     17955     17958     17965     17958     17965     17961     17962
     17958     17965     17961     17963     17958     17965     17961     17964
     17959     17958     17965     17961     17960     17958     17965     17961
     17961     17964     17966     17967     17961     17964     17966     17968
     17961     17964     17966     17969     17962     17961     17964     17966
     17963     17961     17964     17966     17964     17966     17969     17970
     17964     17966     17969     17971     17964     17966     17969     17977
     17965     17961     17964     17966     17966     17969     17971     17972
     17966     17969     17977     17978     17966     17969     17977     17979
     17966     17969     17977     17980     17967     17966     17969     17970
     17967     17966     17969     17971     17967     17966     17969     17977
     17968     17966     17969     17970     17968     17966     17969     17971
     17968     17966     17969     17977     17969     17971     17972     17973
     17969     17971     17972     17974     17969     17977     17980     17981
     17970     17969     17971     17972     17970     17969     17977     17978
     17970     17969     17977     17979     17970     17969     17977     17980
     17971     17969     17977     17978     17971     17969     17977     17979
     17971     17969     17977     17980     17971     17972     17974     17975
     17971     17972     17974     17976     17971     17972     17974     17986
     17972     17971     17969     17977     17972     17974     17986     17987
     17972     17974     17986     17988     17972     17974     17986     17989
     17973     17972     17974     17975     17973     17972     17974     17976
     17973     17972     17974     17986     17974     17986     17989     17990
     17974     17986     17989     17991     17974     17986     17989     17992
     17975     17974     17986     17987     17975     17974     17986     17988
     17975     17974     17986     17989     17976     17974     17986     17987
     17976     17974     17986     17988     17976     17974     17986     17989
     17977     17980     17981     17982     17977     17980     17981     17983
     17978     17977     17980     17981     17979     17977     17980     17981
     17980     17981     17983     17984     17980     17981     17983     17985
     17980     17981     17983     18033     17981     17983     18033     18034
     17981     17983     18033     18035     17981     17983     18033     18036
     17982     17981     17983     17984     17982     17981     17983     17985
     17982     17981     17983     18033     17983     18033     18036     18037
     17983     18033     18036     18038     17983     18033     18036     18039
     17984     17983     18033     18034     17984     17983     18033     18035
     17984     17983     18033     18036     17985     17983     18033     18034
     17985     17983     18033     18035     17985     17983     18033     18036
     17986     17989     17992     17993     17986     17989     17992     17994
     17986     17989     17992     17995     17987     17986     17989     17990
     17987     17986     17989     17991     17987     17986     17989     17992
     17988     17986     17989     17990     17988     17986     17989     17991
     17988     17986     17989     17992     17989     17992     17995     17996
     17989     17992     17995     17997     17989     17992     17995     17998
     17990     17989     17992     17993     17990     17989     17992     17994
     17990     17989     17992     17995     17991     17989     17992     17993
     17991     17989     17992     17994     17991     17989     17992     17995
     17992     17995     17998     17999     17992     17995     17998     18000
     17992     17995     17998     18001     17993     17992     17995     17996
     17993     17992     17995     17997     17993     17992     17995     17998
     17994     17992     17995     17996     17994     17992     17995     17997
     17994     17992     17995     17998     17995     17998     18001     18002
     17995     17998     18001     18003     17995     17998     18001     18004
     17996     17995     17998     17999     17996     17995     17998     18000
     17996     17995     17998     18001     17997     17995     17998     17999
     17997     17995     17998     18000     17997     17995     17998     18001
     17998     18001     18004     18005     17998     18001     18004     18006
     17999     17998     18001     18002     17999     17998     18001     18003
     17999     17998     18001     18004     18000     17998     18001     18002
     18000     17998     18001     18003     18000     17998     18001     18004
     18001     18004     18006     18007     18001     18004     18006     18008
     18002     18001     18004     18005     18002     18001     18004     18006
     18003     18001     18004     18005     18003     18001     18004     18006
     18004     18006     18008     18009     18004     18006     18008     18010
     18004     18006     18008     18011     18005     18004     18006     18007
     18005     18004     18006     18008     18006     18008     18011     18012
     18006     18008     18011     18013     18006     18008     18011     18014
     18007     18006     18008     18009     18007     18006     18008     18010
     18007     18006     18008     18011     18008     18011     18014     18015
     18008     18011     18014     18016     18008     18011     18014     18017
     18009     18008     18011     18012     18009     18008     18011     18013
     18009     18008     18011     18014     18010     18008     18011     18012
     18010     18008     18011     18013     18010     18008     18011     18014
     18011     18014     18017     18018     18011     18014     18017     18019
     18011     18014     18017     18020     18012     18011     18014     18015
     18012     18011     18014     18016     18012     18011     18014     18017
     18013     18011     18014     18015     18013     18011     18014     18016
     18013     18011     18014     18017     18014     18017     18020     18021
     18014     18017     18020     18022     18014     18017     18020     18023
     18015     18014     18017     18018     18015     18014     18017     18019
     18015     18014     18017     18020     18016     18014     18017     18018
     18016     18014     18017     18019     18016     18014     18017     18020
     18017     18020     18023     18024     18017     18020     18023     18025
     18017     18020     18023     18026     18018     18017     18020     18021
     18018     18017     18020     18022     18018     18017     18020     18023
     18019     18017     18020     18021     18019     18017     18020     18022
     18019     18017     18020     18023     18020     18023     18026     18027
     18020     18023     18026     18028     18020     18023     18026     18029
     18021     18020     18023     18024     18021     18020     18023     18025
     18021     18020     18023     18026     18022     18020     18023     18024
     18022     18020     18023     18025     18022     18020     18023     18026
     18023     18026     18029     18030     18023     18026     18029     18031
     18023     18026     18029     18032     18024     18023     18026     18027
     18024     18023     18026     18028     18024     18023     18026     18029
     18025     18023     18026     18027     18025     18023     18026     18028
     18025     18023     18026     18029     18027     18026     18029     18030
     18027     18026     18029     18031     18027     18026     18029     18032
     18028     18026     18029     18030     18028     18026     18029     18031
     18028     18026     18029     18032     18033     18036     18039     18040
     18033     18036     18039     18041     18033     18036     18039     18042
     18034     18033     18036     18037     18034     18033     18036     18038
     18034     18033     18036     18039     18035     18033     18036     18037
     18035     18033     18036     18038     18035     18033     18036     18039
     18036     18039     18042     18043     18036     18039     18042     18044
     18036     18039     18042     18045     18037     18036     18039     18040
     18037     18036     18039     18041     18037     18036     18039     18042
     18038     18036     18039     18040     18038     18036     18039     18041
     18038     18036     18039     18042     18039     18042     18045     18046
     18039     18042     18045     18047     18039     18042     18045     18048
     18040     18039     18042     18043     18040     18039     18042     18044
     18040     18039     18042     18045     18041     18039     18042     18043
     18041     18039     18042     18044     18041     18039     18042     18045
     18042     18045     18048     18049     18042     18045     18048     18050
     18042     18045     18048     18051     18043     18042     18045     18046
     18043     18042     18045     18047     18043     18042     18045     18048
     18044     18042     18045     18046     18044     18042     18045     18047
     18044     18042     18045     18048     18045     18048     18051     18052
     18045     18048     18051     18053     18045     18048     18051     18054
     18046     18045     18048     18049     18046     18045     18048     18050
     18046     18045     18048     18051     18047     18045     18048     18049
     18047     18045     18048     18050     18047     18045     18048     18051
     18048     18051     18054     18055     18048     18051     18054     18056
     18048     18051     18054     18057     18049     18048     18051     18052
     18049     18048     18051     18053     18049     18048     18051     18054
     18050     18048     18051     18052     18050     18048     18051     18053
     18050     18048     18051     18054     18051     18054     18057     18058
     18051     18054     18057     18059     18051     18054     18057     18060
     18052     18051     18054     18055     18052     18051     18054     18056
     18052     18051     18054     18057     18053     18051     18054     18055
     18053     18051     18054     18056     18053     18051     18054     18057
     18054     18057     18060     18061     18054     18057     18060     18062
     18054     18057     18060     18063     18055     18054     18057     18058
     18055     18054     18057     18059     18055     18054     18057     18060
     18056     18054     18057     18058     18056     18054     18057     18059
     18056     18054     18057     18060     18057     18060     18063     18064
     18057     18060     18063     18065     18057     18060     18063     18066
     18058     18057     18060     18061     18058     18057     18060     18062
     18058     18057     18060     18063     18059     18057     18060     18061
     18059     18057     18060     18062     18059     18057     18060     18063
     18060     18063     18066     18067     18060     18063     18066     18068
     18060     18063     18066     18069     18061     18060     18063     18064
     18061     18060     18063     18065     18061     18060     18063     18066
     18062     18060     18063     18064     18062     18060     18063     18065
     18062     18060     18063     18066     18063     18066     18069     18070
     18063     18066     18069     18071     18063     18066     18069     18072
     18064     18063     18066     18067     18064     18063     18066     18068
     18064     18063     18066     18069     18065     18063     18066     18067
     18065     18063     18066     18068     18065     18063     18066     18069
     18066     18069     18072     18073     18066     18069     18072     18074
     18066     18069     18072     18075     18067     18066     18069     18070
     18067     18066     18069     18071     18067     18066     18069     18072
     18068     18066     18069     18070     18068     18066     18069     18071
     18068     18066     18069     18072     18070     18069     18072     18073
     18070     18069     18072     18074     18070     18069     18072     18075
     18071     18069     18072     18073     18071     18069     18072     18074
     18071     18069     18072     18075     18076     18077     18092     18093
     18076     18077     18092     18094     18076     18077     18092     18098
     18077     18076     18080     18081     18077     18076     18080     18082
     18077     18076     18080     18083     18077     18076     18084     18085
     18077     18076     18084     18086     18077     18076     18084     18087
     18077     18076     18088     18089     18077     18076     18088     18090
     18077     18076     18088     18091     18077     18092     18098     18095
     18078     18077     18076     18080     18078     18077     18076     18084
     18078     18077     18076     18088     18078     18077     18092     18093
     18078     18077     18092     18094     18078     18077     18092     18098
     18079     18077     18076     18080     18079     18077     18076     18084
     18079     18077     18076     18088     18079     18077     18092     18093
     18079     18077     18092     18094     18079     18077     18092     18098
     18080     18076     18077     18092     18080     18076     18084     18085
     18080     18076     18084     18086     18080     18076     18084     18087
     18080     18076     18088     18089     18080     18076     18088     18090
     18080     18076     18088     18091     18081     18080     18076     18084
     18081     18080     18076     18088     18082     18080     18076     18084
     18082     18080     18076     18088     18083     18080     18076     18084
     18083     18080     18076     18088     18084     18076     18077     18092
     18084     18076     18088     18089     18084     18076     18088     18090
     18084     18076     18088     18091     18085     18084     18076     18088
     18086     18084     18076     18088     18087     18084     18076     18088
     18088     18076     18077     18092     18092     18098     18095     18096
     18092     18098     18095     18097     18092     18098     18095     18099
     18093     18092     18098     18095     18094     18092     18098     18095
     18095     18099     18100     18101     18095     18099     18100     18102
     18095     18099     18100     18103     18096     18095     18099     18100
     18097     18095     18099     18100     18098     18095     18099     18100
     18099     18100     18103     18104     18099     18100     18103     18105
     18099     18100     18103     18111     18100     18103     18105     18106
     18100     18103     18111     18112     18100     18103     18111     18113
     18100     18103     18111     18114     18101     18100     18103     18104
     18101     18100     18103     18105     18101     18100     18103     18111
     18102     18100     18103     18104     18102     18100     18103     18105
     18102     18100     18103     18111     18103     18105     18106     18107
     18103     18105     18106     18108     18103     18111     18114     18115
     18104     18103     18105     18106     18104     18103     18111     18112
     18104     18103     18111     18113     18104     18103     18111     18114
     18105     18103     18111     18112     18105     18103     18111     18113
     18105     18103     18111     18114     18105     18106     18108     18109
     18105     18106     18108     18110     18105     18106     18108     18120
     18106     18105     18103     18111     18106     18108     18120     18121
     18106     18108     18120     18122     18106     18108     18120     18123
     18107     18106     18108     18109     18107     18106     18108     18110
     18107     18106     18108     18120     18108     18120     18123     18124
     18108     18120     18123     18125     18108     18120     18123     18126
     18109     18108     18120     18121     18109     18108     18120     18122
     18109     18108     18120     18123     18110     18108     18120     18121
     18110     18108     18120     18122     18110     18108     18120     18123
     18111     18114     18115     18116     18111     18114     18115     18117
     18112     18111     18114     18115     18113     18111     18114     18115
     18114     18115     18117     18118     18114     18115     18117     18119
     18114     18115     18117     18167     18115     18117     18167     18168
     18115     18117     18167     18169     18115     18117     18167     18170
     18116     18115     18117     18118     18116     18115     18117     18119
     18116     18115     18117     18167     18117     18167     18170     18171
     18117     18167     18170     18172     18117     18167     18170     18173
     18118     18117     18167     18168     18118     18117     18167     18169
     18118     18117     18167     18170     18119     18117     18167     18168
     18119     18117     18167     18169     18119     18117     18167     18170
     18120     18123     18126     18127     18120     18123     18126     18128
     18120     18123     18126     18129     18121     18120     18123     18124
     18121     18120     18123     18125     18121     18120     18123     18126
     18122     18120     18123     18124     18122     18120     18123     18125
     18122     18120     18123     18126     18123     18126     18129     18130
     18123     18126     18129     18131     18123     18126     18129     18132
     18124     18123     18126     18127     18124     18123     18126     18128
     18124     18123     18126     18129     18125     18123     18126     18127
     18125     18123     18126     18128     18125     18123     18126     18129
     18126     18129     18132     18133     18126     18129     18132     18134
     18126     18129     18132     18135     18127     18126     18129     18130
     18127     18126     18129     18131     18127     18126     18129     18132
     18128     18126     18129     18130     18128     18126     18129     18131
     18128     18126     18129     18132     18129     18132     18135     18136
     18129     18132     18135     18137     18129     18132     18135     18138
     18130     18129     18132     18133     18130     18129     18132     18134
     18130     18129     18132     18135     18131     18129     18132     18133
     18131     18129     18132     18134     18131     18129     18132     18135
     18132     18135     18138     18139     18132     18135     18138     18140
     18133     18132     18135     18136     18133     18132     18135     18137
     18133     18132     18135     18138     18134     18132     18135     18136
     18134     18132     18135     18137     18134     18132     18135     18138
     18135     18138     18140     18141     18135     18138     18140     18142
     18136     18135     18138     18139     18136     18135     18138     18140
     18137     18135     18138     18139     18137     18135     18138     18140
     18138     18140     18142     18143     18138     18140     18142     18144
     18138     18140     18142     18145     18139     18138     18140     18141
     18139     18138     18140     18142     18140     18142     18145     18146
     18140     18142     18145     18147     18140     18142     18145     18148
     18141     18140     18142     18143     18141     18140     18142     18144
     18141     18140     18142     18145     18142     18145     18148     18149
     18142     18145     18148     18150     18142     18145     18148     18151
     18143     18142     18145     18146     18143     18142     18145     18147
     18143     18142     18145     18148     18144     18142     18145     18146
     18144     18142     18145     18147     18144     18142     18145     18148
     18145     18148     18151     18152     18145     18148     18151     18153
     18145     18148     18151     18154     18146     18145     18148     18149
     18146     18145     18148     18150     18146     18145     18148     18151
     18147     18145     18148     18149     18147     18145     18148     18150
     18147     18145     18148     18151     18148     18151     18154     18155
     18148     18151     18154     18156     18148     18151     18154     18157
     18149     18148     18151     18152     18149     18148     18151     18153
     18149     18148     18151     18154     18150     18148     18151     18152
     18150     18148     18151     18153     18150     18148     18151     18154
     18151     18154     18157     18158     18151     18154     18157     18159
     18151     18154     18157     18160     18152     18151     18154     18155
     18152     18151     18154     18156     18152     18151     18154     18157
     18153     18151     18154     18155     18153     18151     18154     18156
     18153     18151     18154     18157     18154     18157     18160     18161
     18154     18157     18160     18162     18154     18157     18160     18163
     18155     18154     18157     18158     18155     18154     18157     18159
     18155     18154     18157     18160     18156     18154     18157     18158
     18156     18154     18157     18159     18156     18154     18157     18160
     18157     18160     18163     18164     18157     18160     18163     18165
     18157     18160     18163     18166     18158     18157     18160     18161
     18158     18157     18160     18162     18158     18157     18160     18163
     18159     18157     18160     18161     18159     18157     18160     18162
     18159     18157     18160     18163     18161     18160     18163     18164
     18161     18160     18163     18165     18161     18160     18163     18166
     18162     18160     18163     18164     18162     18160     18163     18165
     18162     18160     18163     18166     18167     18170     18173     18174
     18167     18170     18173     18175     18167     18170     18173     18176
     18168     18167     18170     18171     18168     18167     18170     18172
     18168     18167     18170     18173     18169     18167     18170     18171
     18169     18167     18170     18172     18169     18167     18170     18173
     18170     18173     18176     18177     18170     18173     18176     18178
     18170     18173     18176     18179     18171     18170     18173     18174
     18171     18170     18173     18175     18171     18170     18173     18176
     18172     18170     18173     18174     18172     18170     18173     18175
     18172     18170     18173     18176     18173     18176     18179     18180
     18173     18176     18179     18181     18173     18176     18179     18182
     18174     18173     18176     18177     18174     18173     18176     18178
     18174     18173     18176     18179     18175     18173     18176     18177
     18175     18173     18176     18178     18175     18173     18176     18179
     18176     18179     18182     18183     18176     18179     18182     18184
     18176     18179     18182     18185     18177     18176     18179     18180
     18177     18176     18179     18181     18177     18176     18179     18182
     18178     18176     18179     18180     18178     18176     18179     18181
     18178     18176     18179     18182     18179     18182     18185     18186
     18179     18182     18185     18187     18179     18182     18185     18188
     18180     18179     18182     18183     18180     18179     18182     18184
     18180     18179     18182     18185     18181     18179     18182     18183
     18181     18179     18182     18184     18181     18179     18182     18185
     18182     18185     18188     18189     18182     18185     18188     18190
     18182     18185     18188     18191     18183     18182     18185     18186
     18183     18182     18185     18187     18183     18182     18185     18188
     18184     18182     18185     18186     18184     18182     18185     18187
     18184     18182     18185     18188     18185     18188     18191     18192
     18185     18188     18191     18193     18185     18188     18191     18194
     18186     18185     18188     18189     18186     18185     18188     18190
     18186     18185     18188     18191     18187     18185     18188     18189
     18187     18185     18188     18190     18187     18185     18188     18191
     18188     18191     18194     18195     18188     18191     18194     18196
     18188     18191     18194     18197     18189     18188     18191     18192
     18189     18188     18191     18193     18189     18188     18191     18194
     18190     18188     18191     18192     18190     18188     18191     18193
     18190     18188     18191     18194     18191     18194     18197     18198
     18191     18194     18197     18199     18191     18194     18197     18200
     18192     18191     18194     18195     18192     18191     18194     18196
     18192     18191     18194     18197     18193     18191     18194     18195
     18193     18191     18194     18196     18193     18191     18194     18197
     18194     18197     18200     18201     18194     18197     18200     18202
     18194     18197     18200     18203     18195     18194     18197     18198
     18195     18194     18197     18199     18195     18194     18197     18200
     18196     18194     18197     18198     18196     18194     18197     18199
     18196     18194     18197     18200     18197     18200     18203     18204
     18197     18200     18203     18205     18197     18200     18203     18206
     18198     18197     18200     18201     18198     18197     18200     18202
     18198     18197     18200     18203     18199     18197     18200     18201
     18199     18197     18200     18202     18199     18197     18200     18203
     18200     18203     18206     18207     18200     18203     18206     18208
     18200     18203     18206     18209     18201     18200     18203     18204
     18201     18200     18203     18205     18201     18200     18203     18206
     18202     18200     18203     18204     18202     18200     18203     18205
     18202     18200     18203     18206     18204     18203     18206     18207
     18204     18203     18206     18208     18204     18203     18206     18209
     18205     18203     18206     18207     18205     18203     18206     18208
     18205     18203     18206     18209     18210     18211     18226     18227
     18210     18211     18226     18228     18210     18211     18226     18232
     18211     18210     18214     18215     18211     18210     18214     18216
     18211     18210     18214     18217     18211     18210     18218     18219
     18211     18210     18218     18220     18211     18210     18218     18221
     18211     18210     18222     18223     18211     18210     18222     18224
     18211     18210     18222     18225     18211     18226     18232     18229
     18212     18211     18210     18214     18212     18211     18210     18218
     18212     18211     18210     18222     18212     18211     18226     18227
     18212     18211     18226     18228     18212     18211     18226     18232
     18213     18211     18210     18214     18213     18211     18210     18218
     18213     18211     18210     18222     18213     18211     18226     18227
     18213     18211     18226     18228     18213     18211     18226     18232
     18214     18210     18211     18226     18214     18210     18218     18219
     18214     18210     18218     18220     18214     18210     18218     18221
     18214     18210     18222     18223     18214     18210     18222     18224
     18214     18210     18222     18225     18215     18214     18210     18218
     18215     18214     18210     18222     18216     18214     18210     18218
     18216     18214     18210     18222     18217     18214     18210     18218
     18217     18214     18210     18222     18218     18210     18211     18226
     18218     18210     18222     18223     18218     18210     18222     18224
     18218     18210     18222     18225     18219     18218     18210     18222
     18220     18218     18210     18222     18221     18218     18210     18222
     18222     18210     18211     18226     18226     18232     18229     18230
     18226     18232     18229     18231     18226     18232     18229     18233
     18227     18226     18232     18229     18228     18226     18232     18229
     18229     18233     18234     18235     18229     18233     18234     18236
     18229     18233     18234     18237     18230     18229     18233     18234
     18231     18229     18233     18234     18232     18229     18233     18234
     18233     18234     18237     18238     18233     18234     18237     18239
     18233     18234     18237     18245     18234     18237     18239     18240
     18234     18237     18245     18246     18234     18237     18245     18247
     18234     18237     18245     18248     18235     18234     18237     18238
     18235     18234     18237     18239     18235     18234     18237     18245
     18236     18234     18237     18238     18236     18234     18237     18239
     18236     18234     18237     18245     18237     18239     18240     18241
     18237     18239     18240     18242     18237     18245     18248     18249
     18238     18237     18239     18240     18238     18237     18245     18246
     18238     18237     18245     18247     18238     18237     18245     18248
     18239     18237     18245     18246     18239     18237     18245     18247
     18239     18237     18245     18248     18239     18240     18242     18243
     18239     18240     18242     18244     18239     18240     18242     18254
     18240     18239     18237     18245     18240     18242     18254     18255
     18240     18242     18254     18256     18240     18242     18254     18257
     18241     18240     18242     18243     18241     18240     18242     18244
     18241     18240     18242     18254     18242     18254     18257     18258
     18242     18254     18257     18259     18242     18254     18257     18260
     18243     18242     18254     18255     18243     18242     18254     18256
     18243     18242     18254     18257     18244     18242     18254     18255
     18244     18242     18254     18256     18244     18242     18254     18257
     18245     18248     18249     18250     18245     18248     18249     18251
     18246     18245     18248     18249     18247     18245     18248     18249
     18248     18249     18251     18252     18248     18249     18251     18253
     18248     18249     18251     18301     18249     18251     18301     18302
     18249     18251     18301     18303     18249     18251     18301     18304
     18250     18249     18251     18252     18250     18249     18251     18253
     18250     18249     18251     18301     18251     18301     18304     18305
     18251     18301     18304     18306     18251     18301     18304     18307
     18252     18251     18301     18302     18252     18251     18301     18303
     18252     18251     18301     18304     18253     18251     18301     18302
     18253     18251     18301     18303     18253     18251     18301     18304
     18254     18257     18260     18261     18254     18257     18260     18262
     18254     18257     18260     18263     18255     18254     18257     18258
     18255     18254     18257     18259     18255     18254     18257     18260
     18256     18254     18257     18258     18256     18254     18257     18259
     18256     18254     18257     18260     18257     18260     18263     18264
     18257     18260     18263     18265     18257     18260     18263     18266
     18258     18257     18260     18261     18258     18257     18260     18262
     18258     18257     18260     18263     18259     18257     18260     18261
     18259     18257     18260     18262     18259     18257     18260     18263
     18260     18263     18266     18267     18260     18263     18266     18268
     18260     18263     18266     18269     18261     18260     18263     18264
     18261     18260     18263     18265     18261     18260     18263     18266
     18262     18260     18263     18264     18262     18260     18263     18265
     18262     18260     18263     18266     18263     18266     18269     18270
     18263     18266     18269     18271     18263     18266     18269     18272
     18264     18263     18266     18267     18264     18263     18266     18268
     18264     18263     18266     18269     18265     18263     18266     18267
     18265     18263     18266     18268     18265     18263     18266     18269
     18266     18269     18272     18273     18266     18269     18272     18274
     18267     18266     18269     18270     18267     18266     18269     18271
     18267     18266     18269     18272     18268     18266     18269     18270
     18268     18266     18269     18271     18268     18266     18269     18272
     18269     18272     18274     18275     18269     18272     18274     18276
     18270     18269     18272     18273     18270     18269     18272     18274
     18271     18269     18272     18273     18271     18269     18272     18274
     18272     18274     18276     18277     18272     18274     18276     18278
     18272     18274     18276     18279     18273     18272     18274     18275
     18273     18272     18274     18276     18274     18276     18279     18280
     18274     18276     18279     18281     18274     18276     18279     18282
     18275     18274     18276     18277     18275     18274     18276     18278
     18275     18274     18276     18279     18276     18279     18282     18283
     18276     18279     18282     18284     18276     18279     18282     18285
     18277     18276     18279     18280     18277     18276     18279     18281
     18277     18276     18279     18282     18278     18276     18279     18280
     18278     18276     18279     18281     18278     18276     18279     18282
     18279     18282     18285     18286     18279     18282     18285     18287
     18279     18282     18285     18288     18280     18279     18282     18283
     18280     18279     18282     18284     18280     18279     18282     18285
     18281     18279     18282     18283     18281     18279     18282     18284
     18281     18279     18282     18285     18282     18285     18288     18289
     18282     18285     18288     18290     18282     18285     18288     18291
     18283     18282     18285     18286     18283     18282     18285     18287
     18283     18282     18285     18288     18284     18282     18285     18286
     18284     18282     18285     18287     18284     18282     18285     18288
     18285     18288     18291     18292     18285     18288     18291     18293
     18285     18288     18291     18294     18286     18285     18288     18289
     18286     18285     18288     18290     18286     18285     18288     18291
     18287     18285     18288     18289     18287     18285     18288     18290
     18287     18285     18288     18291     18288     18291     18294     18295
     18288     18291     18294     18296     18288     18291     18294     18297
     18289     18288     18291     18292     18289     18288     18291     18293
     18289     18288     18291     18294     18290     18288     18291     18292
     18290     18288     18291     18293     18290     18288     18291     18294
     18291     18294     18297     18298     18291     18294     18297     18299
     18291     18294     18297     18300     18292     18291     18294     18295
     18292     18291     18294     18296     18292     18291     18294     18297
     18293     18291     18294     18295     18293     18291     18294     18296
     18293     18291     18294     18297     18295     18294     18297     18298
     18295     18294     18297     18299     18295     18294     18297     18300
     18296     18294     18297     18298     18296     18294     18297     18299
     18296     18294     18297     18300     18301     18304     18307     18308
     18301     18304     18307     18309     18301     18304     18307     18310
     18302     18301     18304     18305     18302     18301     18304     18306
     18302     18301     18304     18307     18303     18301     18304     18305
     18303     18301     18304     18306     18303     18301     18304     18307
     18304     18307     18310     18311     18304     18307     18310     18312
     18304     18307     18310     18313     18305     18304     18307     18308
     18305     18304     18307     18309     18305     18304     18307     18310
     18306     18304     18307     18308     18306     18304     18307     18309
     18306     18304     18307     18310     18307     18310     18313     18314
     18307     18310     18313     18315     18307     18310     18313     18316
     18308     18307     18310     18311     18308     18307     18310     18312
     18308     18307     18310     18313     18309     18307     18310     18311
     18309     18307     18310     18312     18309     18307     18310     18313
     18310     18313     18316     18317     18310     18313     18316     18318
     18310     18313     18316     18319     18311     18310     18313     18314
     18311     18310     18313     18315     18311     18310     18313     18316
     18312     18310     18313     18314     18312     18310     18313     18315
     18312     18310     18313     18316     18313     18316     18319     18320
     18313     18316     18319     18321     18313     18316     18319     18322
     18314     18313     18316     18317     18314     18313     18316     18318
     18314     18313     18316     18319     18315     18313     18316     18317
     18315     18313     18316     18318     18315     18313     18316     18319
     18316     18319     18322     18323     18316     18319     18322     18324
     18316     18319     18322     18325     18317     18316     18319     18320
     18317     18316     18319     18321     18317     18316     18319     18322
     18318     18316     18319     18320     18318     18316     18319     18321
     18318     18316     18319     18322     18319     18322     18325     18326
     18319     18322     18325     18327     18319     18322     18325     18328
     18320     18319     18322     18323     18320     18319     18322     18324
     18320     18319     18322     18325     18321     18319     18322     18323
     18321     18319     18322     18324     18321     18319     18322     18325
     18322     18325     18328     18329     18322     18325     18328     18330
     18322     18325     18328     18331     18323     18322     18325     18326
     18323     18322     18325     18327     18323     18322     18325     18328
     18324     18322     18325     18326     18324     18322     18325     18327
     18324     18322     18325     18328     18325     18328     18331     18332
     18325     18328     18331     18333     18325     18328     18331     18334
     18326     18325     18328     18329     18326     18325     18328     18330
     18326     18325     18328     18331     18327     18325     18328     18329
     18327     18325     18328     18330     18327     18325     18328     18331
     18328     18331     18334     18335     18328     18331     18334     18336
     18328     18331     18334     18337     18329     18328     18331     18332
     18329     18328     18331     18333     18329     18328     18331     18334
     18330     18328     18331     18332     18330     18328     18331     18333
     18330     18328     18331     18334     18331     18334     18337     18338
     18331     18334     18337     18339     18331     18334     18337     18340
     18332     18331     18334     18335     18332     18331     18334     18336
     18332     18331     18334     18337     18333     18331     18334     18335
     18333     18331     18334     18336     18333     18331     18334     18337
     18334     18337     18340     18341     18334     18337     18340     18342
     18334     18337     18340     18343     18335     18334     18337     18338
     18335     18334     18337     18339     18335     18334     18337     18340
     18336     18334     18337     18338     18336     18334     18337     18339
     18336     18334     18337     18340     18338     18337     18340     18341
     18338     18337     18340     18342     18338     18337     18340     18343
     18339     18337     18340     18341     18339     18337     18340     18342
     18339     18337     18340     18343     18344     18345     18360     18361
     18344     18345     18360     18362     18344     18345     18360     18366
     18345     18344     18348     18349     18345     18344     18348     18350
     18345     18344     18348     18351     18345     18344     18352     18353
     18345     18344     18352     18354     18345     18344     18352     18355
     18345     18344     18356     18357     18345     18344     18356     18358
     18345     18344     18356     18359     18345     18360     18366     18363
     18346     18345     18344     18348     18346     18345     18344     18352
     18346     18345     18344     18356     18346     18345     18360     18361
     18346     18345     18360     18362     18346     18345     18360     18366
     18347     18345     18344     18348     18347     18345     18344     18352
     18347     18345     18344     18356     18347     18345     18360     18361
     18347     18345     18360     18362     18347     18345     18360     18366
     18348     18344     18345     18360     18348     18344     18352     18353
     18348     18344     18352     18354     18348     18344     18352     18355
     18348     18344     18356     18357     18348     18344     18356     18358
     18348     18344     18356     18359     18349     18348     18344     18352
     18349     18348     18344     18356     18350     18348     18344     18352
     18350     18348     18344     18356     18351     18348     18344     18352
     18351     18348     18344     18356     18352     18344     18345     18360
     18352     18344     18356     18357     18352     18344     18356     18358
     18352     18344     18356     18359     18353     18352     18344     18356
     18354     18352     18344     18356     18355     18352     18344     18356
     18356     18344     18345     18360     18360     18366     18363     18364
     18360     18366     18363     18365     18360     18366     18363     18367
     18361     18360     18366     18363     18362     18360     18366     18363
     18363     18367     18368     18369     18363     18367     18368     18370
     18363     18367     18368     18371     18364     18363     18367     18368
     18365     18363     18367     18368     18366     18363     18367     18368
     18367     18368     18371     18372     18367     18368     18371     18373
     18367     18368     18371     18379     18368     18371     18373     18374
     18368     18371     18379     18380     18368     18371     18379     18381
     18368     18371     18379     18382     18369     18368     18371     18372
     18369     18368     18371     18373     18369     18368     18371     18379
     18370     18368     18371     18372     18370     18368     18371     18373
     18370     18368     18371     18379     18371     18373     18374     18375
     18371     18373     18374     18376     18371     18379     18382     18383
     18372     18371     18373     18374     18372     18371     18379     18380
     18372     18371     18379     18381     18372     18371     18379     18382
     18373     18371     18379     18380     18373     18371     18379     18381
     18373     18371     18379     18382     18373     18374     18376     18377
     18373     18374     18376     18378     18373     18374     18376     18388
     18374     18373     18371     18379     18374     18376     18388     18389
     18374     18376     18388     18390     18374     18376     18388     18391
     18375     18374     18376     18377     18375     18374     18376     18378
     18375     18374     18376     18388     18376     18388     18391     18392
     18376     18388     18391     18393     18376     18388     18391     18394
     18377     18376     18388     18389     18377     18376     18388     18390
     18377     18376     18388     18391     18378     18376     18388     18389
     18378     18376     18388     18390     18378     18376     18388     18391
     18379     18382     18383     18384     18379     18382     18383     18385
     18380     18379     18382     18383     18381     18379     18382     18383
     18382     18383     18385     18386     18382     18383     18385     18387
     18382     18383     18385     18435     18383     18385     18435     18436
     18383     18385     18435     18437     18383     18385     18435     18438
     18384     18383     18385     18386     18384     18383     18385     18387
     18384     18383     18385     18435     18385     18435     18438     18439
     18385     18435     18438     18440     18385     18435     18438     18441
     18386     18385     18435     18436     18386     18385     18435     18437
     18386     18385     18435     18438     18387     18385     18435     18436
     18387     18385     18435     18437     18387     18385     18435     18438
     18388     18391     18394     18395     18388     18391     18394     18396
     18388     18391     18394     18397     18389     18388     18391     18392
     18389     18388     18391     18393     18389     18388     18391     18394
     18390     18388     18391     18392     18390     18388     18391     18393
     18390     18388     18391     18394     18391     18394     18397     18398
     18391     18394     18397     18399     18391     18394     18397     18400
     18392     18391     18394     18395     18392     18391     18394     18396
     18392     18391     18394     18397     18393     18391     18394     18395
     18393     18391     18394     18396     18393     18391     18394     18397
     18394     18397     18400     18401     18394     18397     18400     18402
     18394     18397     18400     18403     18395     18394     18397     18398
     18395     18394     18397     18399     18395     18394     18397     18400
     18396     18394     18397     18398     18396     18394     18397     18399
     18396     18394     18397     18400     18397     18400     18403     18404
     18397     18400     18403     18405     18397     18400     18403     18406
     18398     18397     18400     18401     18398     18397     18400     18402
     18398     18397     18400     18403     18399     18397     18400     18401
     18399     18397     18400     18402     18399     18397     18400     18403
     18400     18403     18406     18407     18400     18403     18406     18408
     18401     18400     18403     18404     18401     18400     18403     18405
     18401     18400     18403     18406     18402     18400     18403     18404
     18402     18400     18403     18405     18402     18400     18403     18406
     18403     18406     18408     18409     18403     18406     18408     18410
     18404     18403     18406     18407     18404     18403     18406     18408
     18405     18403     18406     18407     18405     18403     18406     18408
     18406     18408     18410     18411     18406     18408     18410     18412
     18406     18408     18410     18413     18407     18406     18408     18409
     18407     18406     18408     18410     18408     18410     18413     18414
     18408     18410     18413     18415     18408     18410     18413     18416
     18409     18408     18410     18411     18409     18408     18410     18412
     18409     18408     18410     18413     18410     18413     18416     18417
     18410     18413     18416     18418     18410     18413     18416     18419
     18411     18410     18413     18414     18411     18410     18413     18415
     18411     18410     18413     18416     18412     18410     18413     18414
     18412     18410     18413     18415     18412     18410     18413     18416
     18413     18416     18419     18420     18413     18416     18419     18421
     18413     18416     18419     18422     18414     18413     18416     18417
     18414     18413     18416     18418     18414     18413     18416     18419
     18415     18413     18416     18417     18415     18413     18416     18418
     18415     18413     18416     18419     18416     18419     18422     18423
     18416     18419     18422     18424     18416     18419     18422     18425
     18417     18416     18419     18420     18417     18416     18419     18421
     18417     18416     18419     18422     18418     18416     18419     18420
     18418     18416     18419     18421     18418     18416     18419     18422
     18419     18422     18425     18426     18419     18422     18425     18427
     18419     18422     18425     18428     18420     18419     18422     18423
     18420     18419     18422     18424     18420     18419     18422     18425
     18421     18419     18422     18423     18421     18419     18422     18424
     18421     18419     18422     18425     18422     18425     18428     18429
     18422     18425     18428     18430     18422     18425     18428     18431
     18423     18422     18425     18426     18423     18422     18425     18427
     18423     18422     18425     18428     18424     18422     18425     18426
     18424     18422     18425     18427     18424     18422     18425     18428
     18425     18428     18431     18432     18425     18428     18431     18433
     18425     18428     18431     18434     18426     18425     18428     18429
     18426     18425     18428     18430     18426     18425     18428     18431
     18427     18425     18428     18429     18427     18425     18428     18430
     18427     18425     18428     18431     18429     18428     18431     18432
     18429     18428     18431     18433     18429     18428     18431     18434
     18430     18428     18431     18432     18430     18428     18431     18433
     18430     18428     18431     18434     18435     18438     18441     18442
     18435     18438     18441     18443     18435     18438     18441     18444
     18436     18435     18438     18439     18436     18435     18438     18440
     18436     18435     18438     18441     18437     18435     18438     18439
     18437     18435     18438     18440     18437     18435     18438     18441
     18438     18441     18444     18445     18438     18441     18444     18446
     18438     18441     18444     18447     18439     18438     18441     18442
     18439     18438     18441     18443     18439     18438     18441     18444
     18440     18438     18441     18442     18440     18438     18441     18443
     18440     18438     18441     18444     18441     18444     18447     18448
     18441     18444     18447     18449     18441     18444     18447     18450
     18442     18441     18444     18445     18442     18441     18444     18446
     18442     18441     18444     18447     18443     18441     18444     18445
     18443     18441     18444     18446     18443     18441     18444     18447
     18444     18447     18450     18451     18444     18447     18450     18452
     18444     18447     18450     18453     18445     18444     18447     18448
     18445     18444     18447     18449     18445     18444     18447     18450
     18446     18444     18447     18448     18446     18444     18447     18449
     18446     18444     18447     18450     18447     18450     18453     18454
     18447     18450     18453     18455     18447     18450     18453     18456
     18448     18447     18450     18451     18448     18447     18450     18452
     18448     18447     18450     18453     18449     18447     18450     18451
     18449     18447     18450     18452     18449     18447     18450     18453
     18450     18453     18456     18457     18450     18453     18456     18458
     18450     18453     18456     18459     18451     18450     18453     18454
     18451     18450     18453     18455     18451     18450     18453     18456
     18452     18450     18453     18454     18452     18450     18453     18455
     18452     18450     18453     18456     18453     18456     18459     18460
     18453     18456     18459     18461     18453     18456     18459     18462
     18454     18453     18456     18457     18454     18453     18456     18458
     18454     18453     18456     18459     18455     18453     18456     18457
     18455     18453     18456     18458     18455     18453     18456     18459
     18456     18459     18462     18463     18456     18459     18462     18464
     18456     18459     18462     18465     18457     18456     18459     18460
     18457     18456     18459     18461     18457     18456     18459     18462
     18458     18456     18459     18460     18458     18456     18459     18461
     18458     18456     18459     18462     18459     18462     18465     18466
     18459     18462     18465     18467     18459     18462     18465     18468
     18460     18459     18462     18463     18460     18459     18462     18464
     18460     18459     18462     18465     18461     18459     18462     18463
     18461     18459     18462     18464     18461     18459     18462     18465
     18462     18465     18468     18469     18462     18465     18468     18470
     18462     18465     18468     18471     18463     18462     18465     18466
     18463     18462     18465     18467     18463     18462     18465     18468
     18464     18462     18465     18466     18464     18462     18465     18467
     18464     18462     18465     18468     18465     18468     18471     18472
     18465     18468     18471     18473     18465     18468     18471     18474
     18466     18465     18468     18469     18466     18465     18468     18470
     18466     18465     18468     18471     18467     18465     18468     18469
     18467     18465     18468     18470     18467     18465     18468     18471
     18468     18471     18474     18475     18468     18471     18474     18476
     18468     18471     18474     18477     18469     18468     18471     18472
     18469     18468     18471     18473     18469     18468     18471     18474
     18470     18468     18471     18472     18470     18468     18471     18473
     18470     18468     18471     18474     18472     18471     18474     18475
     18472     18471     18474     18476     18472     18471     18474     18477
     18473     18471     18474     18475     18473     18471     18474     18476
     18473     18471     18474     18477     18478     18479     18494     18495
     18478     18479     18494     18496     18478     18479     18494     18500
     18479     18478     18482     18483     18479     18478     18482     18484
     18479     18478     18482     18485     18479     18478     18486     18487
     18479     18478     18486     18488     18479     18478     18486     18489
     18479     18478     18490     18491     18479     18478     18490     18492
     18479     18478     18490     18493     18479     18494     18500     18497
     18480     18479     18478     18482     18480     18479     18478     18486
     18480     18479     18478     18490     18480     18479     18494     18495
     18480     18479     18494     18496     18480     18479     18494     18500
     18481     18479     18478     18482     18481     18479     18478     18486
     18481     18479     18478     18490     18481     18479     18494     18495
     18481     18479     18494     18496     18481     18479     18494     18500
     18482     18478     18479     18494     18482     18478     18486     18487
     18482     18478     18486     18488     18482     18478     18486     18489
     18482     18478     18490     18491     18482     18478     18490     18492
     18482     18478     18490     18493     18483     18482     18478     18486
     18483     18482     18478     18490     18484     18482     18478     18486
     18484     18482     18478     18490     18485     18482     18478     18486
     18485     18482     18478     18490     18486     18478     18479     18494
     18486     18478     18490     18491     18486     18478     18490     18492
     18486     18478     18490     18493     18487     18486     18478     18490
     18488     18486     18478     18490     18489     18486     18478     18490
     18490     18478     18479     18494     18494     18500     18497     18498
     18494     18500     18497     18499     18494     18500     18497     18501
     18495     18494     18500     18497     18496     18494     18500     18497
     18497     18501     18502     18503     18497     18501     18502     18504
     18497     18501     18502     18505     18498     18497     18501     18502
     18499     18497     18501     18502     18500     18497     18501     18502
     18501     18502     18505     18506     18501     18502     18505     18507
     18501     18502     18505     18513     18502     18505     18507     18508
     18502     18505     18513     18514     18502     18505     18513     18515
     18502     18505     18513     18516     18503     18502     18505     18506
     18503     18502     18505     18507     18503     18502     18505     18513
     18504     18502     18505     18506     18504     18502     18505     18507
     18504     18502     18505     18513     18505     18507     18508     18509
     18505     18507     18508     18510     18505     18513     18516     18517
     18506     18505     18507     18508     18506     18505     18513     18514
     18506     18505     18513     18515     18506     18505     18513     18516
     18507     18505     18513     18514     18507     18505     18513     18515
     18507     18505     18513     18516     18507     18508     18510     18511
     18507     18508     18510     18512     18507     18508     18510     18522
     18508     18507     18505     18513     18508     18510     18522     18523
     18508     18510     18522     18524     18508     18510     18522     18525
     18509     18508     18510     18511     18509     18508     18510     18512
     18509     18508     18510     18522     18510     18522     18525     18526
     18510     18522     18525     18527     18510     18522     18525     18528
     18511     18510     18522     18523     18511     18510     18522     18524
     18511     18510     18522     18525     18512     18510     18522     18523
     18512     18510     18522     18524     18512     18510     18522     18525
     18513     18516     18517     18518     18513     18516     18517     18519
     18514     18513     18516     18517     18515     18513     18516     18517
     18516     18517     18519     18520     18516     18517     18519     18521
     18516     18517     18519     18569     18517     18519     18569     18570
     18517     18519     18569     18571     18517     18519     18569     18572
     18518     18517     18519     18520     18518     18517     18519     18521
     18518     18517     18519     18569     18519     18569     18572     18573
     18519     18569     18572     18574     18519     18569     18572     18575
     18520     18519     18569     18570     18520     18519     18569     18571
     18520     18519     18569     18572     18521     18519     18569     18570
     18521     18519     18569     18571     18521     18519     18569     18572
     18522     18525     18528     18529     18522     18525     18528     18530
     18522     18525     18528     18531     18523     18522     18525     18526
     18523     18522     18525     18527     18523     18522     18525     18528
     18524     18522     18525     18526     18524     18522     18525     18527
     18524     18522     18525     18528     18525     18528     18531     18532
     18525     18528     18531     18533     18525     18528     18531     18534
     18526     18525     18528     18529     18526     18525     18528     18530
     18526     18525     18528     18531     18527     18525     18528     18529
     18527     18525     18528     18530     18527     18525     18528     18531
     18528     18531     18534     18535     18528     18531     18534     18536
     18528     18531     18534     18537     18529     18528     18531     18532
     18529     18528     18531     18533     18529     18528     18531     18534
     18530     18528     18531     18532     18530     18528     18531     18533
     18530     18528     18531     18534     18531     18534     18537     18538
     18531     18534     18537     18539     18531     18534     18537     18540
     18532     18531     18534     18535     18532     18531     18534     18536
     18532     18531     18534     18537     18533     18531     18534     18535
     18533     18531     18534     18536     18533     18531     18534     18537
     18534     18537     18540     18541     18534     18537     18540     18542
     18535     18534     18537     18538     18535     18534     18537     18539
     18535     18534     18537     18540     18536     18534     18537     18538
     18536     18534     18537     18539     18536     18534     18537     18540
     18537     18540     18542     18543     18537     18540     18542     18544
     18538     18537     18540     18541     18538     18537     18540     18542
     18539     18537     18540     18541     18539     18537     18540     18542
     18540     18542     18544     18545     18540     18542     18544     18546
     18540     18542     18544     18547     18541     18540     18542     18543
     18541     18540     18542     18544     18542     18544     18547     18548
     18542     18544     18547     18549     18542     18544     18547     18550
     18543     18542     18544     18545     18543     18542     18544     18546
     18543     18542     18544     18547     18544     18547     18550     18551
     18544     18547     18550     18552     18544     18547     18550     18553
     18545     18544     18547     18548     18545     18544     18547     18549
     18545     18544     18547     18550     18546     18544     18547     18548
     18546     18544     18547     18549     18546     18544     18547     18550
     18547     18550     18553     18554     18547     18550     18553     18555
     18547     18550     18553     18556     18548     18547     18550     18551
     18548     18547     18550     18552     18548     18547     18550     18553
     18549     18547     18550     18551     18549     18547     18550     18552
     18549     18547     18550     18553     18550     18553     18556     18557
     18550     18553     18556     18558     18550     18553     18556     18559
     18551     18550     18553     18554     18551     18550     18553     18555
     18551     18550     18553     18556     18552     18550     18553     18554
     18552     18550     18553     18555     18552     18550     18553     18556
     18553     18556     18559     18560     18553     18556     18559     18561
     18553     18556     18559     18562     18554     18553     18556     18557
     18554     18553     18556     18558     18554     18553     18556     18559
     18555     18553     18556     18557     18555     18553     18556     18558
     18555     18553     18556     18559     18556     18559     18562     18563
     18556     18559     18562     18564     18556     18559     18562     18565
     18557     18556     18559     18560     18557     18556     18559     18561
     18557     18556     18559     18562     18558     18556     18559     18560
     18558     18556     18559     18561     18558     18556     18559     18562
     18559     18562     18565     18566     18559     18562     18565     18567
     18559     18562     18565     18568     18560     18559     18562     18563
     18560     18559     18562     18564     18560     18559     18562     18565
     18561     18559     18562     18563     18561     18559     18562     18564
     18561     18559     18562     18565     18563     18562     18565     18566
     18563     18562     18565     18567     18563     18562     18565     18568
     18564     18562     18565     18566     18564     18562     18565     18567
     18564     18562     18565     18568     18569     18572     18575     18576
     18569     18572     18575     18577     18569     18572     18575     18578
     18570     18569     18572     18573     18570     18569     18572     18574
     18570     18569     18572     18575     18571     18569     18572     18573
     18571     18569     18572     18574     18571     18569     18572     18575
     18572     18575     18578     18579     18572     18575     18578     18580
     18572     18575     18578     18581     18573     18572     18575     18576
     18573     18572     18575     18577     18573     18572     18575     18578
     18574     18572     18575     18576     18574     18572     18575     18577
     18574     18572     18575     18578     18575     18578     18581     18582
     18575     18578     18581     18583     18575     18578     18581     18584
     18576     18575     18578     18579     18576     18575     18578     18580
     18576     18575     18578     18581     18577     18575     18578     18579
     18577     18575     18578     18580     18577     18575     18578     18581
     18578     18581     18584     18585     18578     18581     18584     18586
     18578     18581     18584     18587     18579     18578     18581     18582
     18579     18578     18581     18583     18579     18578     18581     18584
     18580     18578     18581     18582     18580     18578     18581     18583
     18580     18578     18581     18584     18581     18584     18587     18588
     18581     18584     18587     18589     18581     18584     18587     18590
     18582     18581     18584     18585     18582     18581     18584     18586
     18582     18581     18584     18587     18583     18581     18584     18585
     18583     18581     18584     18586     18583     18581     18584     18587
     18584     18587     18590     18591     18584     18587     18590     18592
     18584     18587     18590     18593     18585     18584     18587     18588
     18585     18584     18587     18589     18585     18584     18587     18590
     18586     18584     18587     18588     18586     18584     18587     18589
     18586     18584     18587     18590     18587     18590     18593     18594
     18587     18590     18593     18595     18587     18590     18593     18596
     18588     18587     18590     18591     18588     18587     18590     18592
     18588     18587     18590     18593     18589     18587     18590     18591
     18589     18587     18590     18592     18589     18587     18590     18593
     18590     18593     18596     18597     18590     18593     18596     18598
     18590     18593     18596     18599     18591     18590     18593     18594
     18591     18590     18593     18595     18591     18590     18593     18596
     18592     18590     18593     18594     18592     18590     18593     18595
     18592     18590     18593     18596     18593     18596     18599     18600
     18593     18596     18599     18601     18593     18596     18599     18602
     18594     18593     18596     18597     18594     18593     18596     18598
     18594     18593     18596     18599     18595     18593     18596     18597
     18595     18593     18596     18598     18595     18593     18596     18599
     18596     18599     18602     18603     18596     18599     18602     18604
     18596     18599     18602     18605     18597     18596     18599     18600
     18597     18596     18599     18601     18597     18596     18599     18602
     18598     18596     18599     18600     18598     18596     18599     18601
     18598     18596     18599     18602     18599     18602     18605     18606
     18599     18602     18605     18607     18599     18602     18605     18608
     18600     18599     18602     18603     18600     18599     18602     18604
     18600     18599     18602     18605     18601     18599     18602     18603
     18601     18599     18602     18604     18601     18599     18602     18605
     18602     18605     18608     18609     18602     18605     18608     18610
     18602     18605     18608     18611     18603     18602     18605     18606
     18603     18602     18605     18607     18603     18602     18605     18608
     18604     18602     18605     18606     18604     18602     18605     18607
     18604     18602     18605     18608     18606     18605     18608     18609
     18606     18605     18608     18610     18606     18605     18608     18611
     18607     18605     18608     18609     18607     18605     18608     18610
     18607     18605     18608     18611     18612     18616     18619     18620
     18612     18616     18619     18621     18612     18616     18619     18626
     18613     18612     18616     18617     18613     18612     18616     18618
     18613     18612     18616     18619     18614     18612     18616     18617
     18614     18612     18616     18618     18614     18612     18616     18619
     18615     18612     18616     18617     18615     18612     18616     18618
     18615     18612     18616     18619     18616     18619     18626     18622
     18617     18616     18619     18620     18617     18616     18619     18621
     18617     18616     18619     18626     18618     18616     18619     18620
     18618     18616     18619     18621     18618     18616     18619     18626
     18619     18626     18622     18623     18619     18626     18622     18624
     18619     18626     18622     18625     18620     18619     18626     18622
     18621     18619     18626     18622     18622     18625     18627     18628
     18622     18625     18627     18629     18622     18625     18627     18630
     18623     18622     18625     18627     18624     18622     18625     18627
     18625     18627     18630     18631     18625     18627     18630     18632
     18625     18627     18630     18638     18626     18622     18625     18627
     18627     18630     18632     18633     18627     18630     18638     18639
     18627     18630     18638     18640     18627     18630     18638     18641
     18628     18627     18630     18631     18628     18627     18630     18632
     18628     18627     18630     18638     18629     18627     18630     18631
     18629     18627     18630     18632     18629     18627     18630     18638
     18630     18632     18633     18634     18630     18632     18633     18635
     18630     18638     18641     18642     18631     18630     18632     18633
     18631     18630     18638     18639     18631     18630     18638     18640
     18631     18630     18638     18641     18632     18630     18638     18639
     18632     18630     18638     18640     18632     18630     18638     18641
     18632     18633     18635     18636     18632     18633     18635     18637
     18632     18633     18635     18647     18633     18632     18630     18638
     18633     18635     18647     18648     18633     18635     18647     18649
     18633     18635     18647     18650     18634     18633     18635     18636
     18634     18633     18635     18637     18634     18633     18635     18647
     18635     18647     18650     18651     18635     18647     18650     18652
     18635     18647     18650     18653     18636     18635     18647     18648
     18636     18635     18647     18649     18636     18635     18647     18650
     18637     18635     18647     18648     18637     18635     18647     18649
     18637     18635     18647     18650     18638     18641     18642     18643
     18638     18641     18642     18644     18639     18638     18641     18642
     18640     18638     18641     18642     18641     18642     18644     18645
     18641     18642     18644     18646     18641     18642     18644     18694
     18642     18644     18694     18695     18642     18644     18694     18696
     18642     18644     18694     18697     18643     18642     18644     18645
     18643     18642     18644     18646     18643     18642     18644     18694
     18644     18694     18697     18698     18644     18694     18697     18699
     18644     18694     18697     18700     18645     18644     18694     18695
     18645     18644     18694     18696     18645     18644     18694     18697
     18646     18644     18694     18695     18646     18644     18694     18696
     18646     18644     18694     18697     18647     18650     18653     18654
     18647     18650     18653     18655     18647     18650     18653     18656
     18648     18647     18650     18651     18648     18647     18650     18652
     18648     18647     18650     18653     18649     18647     18650     18651
     18649     18647     18650     18652     18649     18647     18650     18653
     18650     18653     18656     18657     18650     18653     18656     18658
     18650     18653     18656     18659     18651     18650     18653     18654
     18651     18650     18653     18655     18651     18650     18653     18656
     18652     18650     18653     18654     18652     18650     18653     18655
     18652     18650     18653     18656     18653     18656     18659     18660
     18653     18656     18659     18661     18653     18656     18659     18662
     18654     18653     18656     18657     18654     18653     18656     18658
     18654     18653     18656     18659     18655     18653     18656     18657
     18655     18653     18656     18658     18655     18653     18656     18659
     18656     18659     18662     18663     18656     18659     18662     18664
     18656     18659     18662     18665     18657     18656     18659     18660
     18657     18656     18659     18661     18657     18656     18659     18662
     18658     18656     18659     18660     18658     18656     18659     18661
     18658     18656     18659     18662     18659     18662     18665     18666
     18659     18662     18665     18667     18660     18659     18662     18663
     18660     18659     18662     18664     18660     18659     18662     18665
     18661     18659     18662     18663     18661     18659     18662     18664
     18661     18659     18662     18665     18662     18665     18667     18668
     18662     18665     18667     18669     18663     18662     18665     18666
     18663     18662     18665     18667     18664     18662     18665     18666
     18664     18662     18665     18667     18665     18667     18669     18670
     18665     18667     18669     18671     18665     18667     18669     18672
     18666     18665     18667     18668     18666     18665     18667     18669
     18667     18669     18672     18673     18667     18669     18672     18674
     18667     18669     18672     18675     18668     18667     18669     18670
     18668     18667     18669     18671     18668     18667     18669     18672
     18669     18672     18675     18676     18669     18672     18675     18677
     18669     18672     18675     18678     18670     18669     18672     18673
     18670     18669     18672     18674     18670     18669     18672     18675
     18671     18669     18672     18673     18671     18669     18672     18674
     18671     18669     18672     18675     18672     18675     18678     18679
     18672     18675     18678     18680     18672     18675     18678     18681
     18673     18672     18675     18676     18673     18672     18675     18677
     18673     18672     18675     18678     18674     18672     18675     18676
     18674     18672     18675     18677     18674     18672     18675     18678
     18675     18678     18681     18682     18675     18678     18681     18683
     18675     18678     18681     18684     18676     18675     18678     18679
     18676     18675     18678     18680     18676     18675     18678     18681
     18677     18675     18678     18679     18677     18675     18678     18680
     18677     18675     18678     18681     18678     18681     18684     18685
     18678     18681     18684     18686     18678     18681     18684     18687
     18679     18678     18681     18682     18679     18678     18681     18683
     18679     18678     18681     18684     18680     18678     18681     18682
     18680     18678     18681     18683     18680     18678     18681     18684
     18681     18684     18687     18688     18681     18684     18687     18689
     18681     18684     18687     18690     18682     18681     18684     18685
     18682     18681     18684     18686     18682     18681     18684     18687
     18683     18681     18684     18685     18683     18681     18684     18686
     18683     18681     18684     18687     18684     18687     18690     18691
     18684     18687     18690     18692     18684     18687     18690     18693
     18685     18684     18687     18688     18685     18684     18687     18689
     18685     18684     18687     18690     18686     18684     18687     18688
     18686     18684     18687     18689     18686     18684     18687     18690
     18688     18687     18690     18691     18688     18687     18690     18692
     18688     18687     18690     18693     18689     18687     18690     18691
     18689     18687     18690     18692     18689     18687     18690     18693
     18694     18697     18700     18701     18694     18697     18700     18702
     18694     18697     18700     18703     18695     18694     18697     18698
     18695     18694     18697     18699     18695     18694     18697     18700
     18696     18694     18697     18698     18696     18694     18697     18699
     18696     18694     18697     18700     18697     18700     18703     18704
     18697     18700     18703     18705     18697     18700     18703     18706
     18698     18697     18700     18701     18698     18697     18700     18702
     18698     18697     18700     18703     18699     18697     18700     18701
     18699     18697     18700     18702     18699     18697     18700     18703
     18700     18703     18706     18707     18700     18703     18706     18708
     18700     18703     18706     18709     18701     18700     18703     18704
     18701     18700     18703     18705     18701     18700     18703     18706
     18702     18700     18703     18704     18702     18700     18703     18705
     18702     18700     18703     18706     18703     18706     18709     18710
     18703     18706     18709     18711     18703     18706     18709     18712
     18704     18703     18706     18707     18704     18703     18706     18708
     18704     18703     18706     18709     18705     18703     18706     18707
     18705     18703     18706     18708     18705     18703     18706     18709
     18706     18709     18712     18713     18706     18709     18712     18714
     18706     18709     18712     18715     18707     18706     18709     18710
     18707     18706     18709     18711     18707     18706     18709     18712
     18708     18706     18709     18710     18708     18706     18709     18711
     18708     18706     18709     18712     18709     18712     18715     18716
     18709     18712     18715     18717     18709     18712     18715     18718
     18710     18709     18712     18713     18710     18709     18712     18714
     18710     18709     18712     18715     18711     18709     18712     18713
     18711     18709     18712     18714     18711     18709     18712     18715
     18712     18715     18718     18719     18712     18715     18718     18720
     18712     18715     18718     18721     18713     18712     18715     18716
     18713     18712     18715     18717     18713     18712     18715     18718
     18714     18712     18715     18716     18714     18712     18715     18717
     18714     18712     18715     18718     18715     18718     18721     18722
     18715     18718     18721     18723     18715     18718     18721     18724
     18716     18715     18718     18719     18716     18715     18718     18720
     18716     18715     18718     18721     18717     18715     18718     18719
     18717     18715     18718     18720     18717     18715     18718     18721
     18718     18721     18724     18725     18718     18721     18724     18726
     18718     18721     18724     18727     18719     18718     18721     18722
     18719     18718     18721     18723     18719     18718     18721     18724
     18720     18718     18721     18722     18720     18718     18721     18723
     18720     18718     18721     18724     18721     18724     18727     18728
     18721     18724     18727     18729     18721     18724     18727     18730
     18722     18721     18724     18725     18722     18721     18724     18726
     18722     18721     18724     18727     18723     18721     18724     18725
     18723     18721     18724     18726     18723     18721     18724     18727
     18724     18727     18730     18731     18724     18727     18730     18732
     18724     18727     18730     18733     18725     18724     18727     18728
     18725     18724     18727     18729     18725     18724     18727     18730
     18726     18724     18727     18728     18726     18724     18727     18729
     18726     18724     18727     18730     18727     18730     18733     18734
     18727     18730     18733     18735     18727     18730     18733     18736
     18728     18727     18730     18731     18728     18727     18730     18732
     18728     18727     18730     18733     18729     18727     18730     18731
     18729     18727     18730     18732     18729     18727     18730     18733
     18731     18730     18733     18734     18731     18730     18733     18735
     18731     18730     18733     18736     18732     18730     18733     18734
     18732     18730     18733     18735     18732     18730     18733     18736
     18737     18741     18744     18745     18737     18741     18744     18746
     18737     18741     18744     18751     18738     18737     18741     18742
     18738     18737     18741     18743     18738     18737     18741     18744
     18739     18737     18741     18742     18739     18737     18741     18743
     18739     18737     18741     18744     18740     18737     18741     18742
     18740     18737     18741     18743     18740     18737     18741     18744
     18741     18744     18751     18747     18742     18741     18744     18745
     18742     18741     18744     18746     18742     18741     18744     18751
     18743     18741     18744     18745     18743     18741     18744     18746
     18743     18741     18744     18751     18744     18751     18747     18748
     18744     18751     18747     18749     18744     18751     18747     18750
     18745     18744     18751     18747     18746     18744     18751     18747
     18747     18750     18752     18753     18747     18750     18752     18754
     18747     18750     18752     18755     18748     18747     18750     18752
     18749     18747     18750     18752     18750     18752     18755     18756
     18750     18752     18755     18757     18750     18752     18755     18763
     18751     18747     18750     18752     18752     18755     18757     18758
     18752     18755     18763     18764     18752     18755     18763     18765
     18752     18755     18763     18766     18753     18752     18755     18756
     18753     18752     18755     18757     18753     18752     18755     18763
     18754     18752     18755     18756     18754     18752     18755     18757
     18754     18752     18755     18763     18755     18757     18758     18759
     18755     18757     18758     18760     18755     18763     18766     18767
     18756     18755     18757     18758     18756     18755     18763     18764
     18756     18755     18763     18765     18756     18755     18763     18766
     18757     18755     18763     18764     18757     18755     18763     18765
     18757     18755     18763     18766     18757     18758     18760     18761
     18757     18758     18760     18762     18757     18758     18760     18772
     18758     18757     18755     18763     18758     18760     18772     18773
     18758     18760     18772     18774     18758     18760     18772     18775
     18759     18758     18760     18761     18759     18758     18760     18762
     18759     18758     18760     18772     18760     18772     18775     18776
     18760     18772     18775     18777     18760     18772     18775     18778
     18761     18760     18772     18773     18761     18760     18772     18774
     18761     18760     18772     18775     18762     18760     18772     18773
     18762     18760     18772     18774     18762     18760     18772     18775
     18763     18766     18767     18768     18763     18766     18767     18769
     18764     18763     18766     18767     18765     18763     18766     18767
     18766     18767     18769     18770     18766     18767     18769     18771
     18766     18767     18769     18819     18767     18769     18819     18820
     18767     18769     18819     18821     18767     18769     18819     18822
     18768     18767     18769     18770     18768     18767     18769     18771
     18768     18767     18769     18819     18769     18819     18822     18823
     18769     18819     18822     18824     18769     18819     18822     18825
     18770     18769     18819     18820     18770     18769     18819     18821
     18770     18769     18819     18822     18771     18769     18819     18820
     18771     18769     18819     18821     18771     18769     18819     18822
     18772     18775     18778     18779     18772     18775     18778     18780
     18772     18775     18778     18781     18773     18772     18775     18776
     18773     18772     18775     18777     18773     18772     18775     18778
     18774     18772     18775     18776     18774     18772     18775     18777
     18774     18772     18775     18778     18775     18778     18781     18782
     18775     18778     18781     18783     18775     18778     18781     18784
     18776     18775     18778     18779     18776     18775     18778     18780
     18776     18775     18778     18781     18777     18775     18778     18779
     18777     18775     18778     18780     18777     18775     18778     18781
     18778     18781     18784     18785     18778     18781     18784     18786
     18778     18781     18784     18787     18779     18778     18781     18782
     18779     18778     18781     18783     18779     18778     18781     18784
     18780     18778     18781     18782     18780     18778     18781     18783
     18780     18778     18781     18784     18781     18784     18787     18788
     18781     18784     18787     18789     18781     18784     18787     18790
     18782     18781     18784     18785     18782     18781     18784     18786
     18782     18781     18784     18787     18783     18781     18784     18785
     18783     18781     18784     18786     18783     18781     18784     18787
     18784     18787     18790     18791     18784     18787     18790     18792
     18785     18784     18787     18788     18785     18784     18787     18789
     18785     18784     18787     18790     18786     18784     18787     18788
     18786     18784     18787     18789     18786     18784     18787     18790
     18787     18790     18792     18793     18787     18790     18792     18794
     18788     18787     18790     18791     18788     18787     18790     18792
     18789     18787     18790     18791     18789     18787     18790     18792
     18790     18792     18794     18795     18790     18792     18794     18796
     18790     18792     18794     18797     18791     18790     18792     18793
     18791     18790     18792     18794     18792     18794     18797     18798
     18792     18794     18797     18799     18792     18794     18797     18800
     18793     18792     18794     18795     18793     18792     18794     18796
     18793     18792     18794     18797     18794     18797     18800     18801
     18794     18797     18800     18802     18794     18797     18800     18803
     18795     18794     18797     18798     18795     18794     18797     18799
     18795     18794     18797     18800     18796     18794     18797     18798
     18796     18794     18797     18799     18796     18794     18797     18800
     18797     18800     18803     18804     18797     18800     18803     18805
     18797     18800     18803     18806     18798     18797     18800     18801
     18798     18797     18800     18802     18798     18797     18800     18803
     18799     18797     18800     18801     18799     18797     18800     18802
     18799     18797     18800     18803     18800     18803     18806     18807
     18800     18803     18806     18808     18800     18803     18806     18809
     18801     18800     18803     18804     18801     18800     18803     18805
     18801     18800     18803     18806     18802     18800     18803     18804
     18802     18800     18803     18805     18802     18800     18803     18806
     18803     18806     18809     18810     18803     18806     18809     18811
     18803     18806     18809     18812     18804     18803     18806     18807
     18804     18803     18806     18808     18804     18803     18806     18809
     18805     18803     18806     18807     18805     18803     18806     18808
     18805     18803     18806     18809     18806     18809     18812     18813
     18806     18809     18812     18814     18806     18809     18812     18815
     18807     18806     18809     18810     18807     18806     18809     18811
     18807     18806     18809     18812     18808     18806     18809     18810
     18808     18806     18809     18811     18808     18806     18809     18812
     18809     18812     18815     18816     18809     18812     18815     18817
     18809     18812     18815     18818     18810     18809     18812     18813
     18810     18809     18812     18814     18810     18809     18812     18815
     18811     18809     18812     18813     18811     18809     18812     18814
     18811     18809     18812     18815     18813     18812     18815     18816
     18813     18812     18815     18817     18813     18812     18815     18818
     18814     18812     18815     18816     18814     18812     18815     18817
     18814     18812     18815     18818     18819     18822     18825     18826
     18819     18822     18825     18827     18819     18822     18825     18828
     18820     18819     18822     18823     18820     18819     18822     18824
     18820     18819     18822     18825     18821     18819     18822     18823
     18821     18819     18822     18824     18821     18819     18822     18825
     18822     18825     18828     18829     18822     18825     18828     18830
     18822     18825     18828     18831     18823     18822     18825     18826
     18823     18822     18825     18827     18823     18822     18825     18828
     18824     18822     18825     18826     18824     18822     18825     18827
     18824     18822     18825     18828     18825     18828     18831     18832
     18825     18828     18831     18833     18825     18828     18831     18834
     18826     18825     18828     18829     18826     18825     18828     18830
     18826     18825     18828     18831     18827     18825     18828     18829
     18827     18825     18828     18830     18827     18825     18828     18831
     18828     18831     18834     18835     18828     18831     18834     18836
     18828     18831     18834     18837     18829     18828     18831     18832
     18829     18828     18831     18833     18829     18828     18831     18834
     18830     18828     18831     18832     18830     18828     18831     18833
     18830     18828     18831     18834     18831     18834     18837     18838
     18831     18834     18837     18839     18831     18834     18837     18840
     18832     18831     18834     18835     18832     18831     18834     18836
     18832     18831     18834     18837     18833     18831     18834     18835
     18833     18831     18834     18836     18833     18831     18834     18837
     18834     18837     18840     18841     18834     18837     18840     18842
     18834     18837     18840     18843     18835     18834     18837     18838
     18835     18834     18837     18839     18835     18834     18837     18840
     18836     18834     18837     18838     18836     18834     18837     18839
     18836     18834     18837     18840     18837     18840     18843     18844
     18837     18840     18843     18845     18837     18840     18843     18846
     18838     18837     18840     18841     18838     18837     18840     18842
     18838     18837     18840     18843     18839     18837     18840     18841
     18839     18837     18840     18842     18839     18837     18840     18843
     18840     18843     18846     18847     18840     18843     18846     18848
     18840     18843     18846     18849     18841     18840     18843     18844
     18841     18840     18843     18845     18841     18840     18843     18846
     18842     18840     18843     18844     18842     18840     18843     18845
     18842     18840     18843     18846     18843     18846     18849     18850
     18843     18846     18849     18851     18843     18846     18849     18852
     18844     18843     18846     18847     18844     18843     18846     18848
     18844     18843     18846     18849     18845     18843     18846     18847
     18845     18843     18846     18848     18845     18843     18846     18849
     18846     18849     18852     18853     18846     18849     18852     18854
     18846     18849     18852     18855     18847     18846     18849     18850
     18847     18846     18849     18851     18847     18846     18849     18852
     18848     18846     18849     18850     18848     18846     18849     18851
     18848     18846     18849     18852     18849     18852     18855     18856
     18849     18852     18855     18857     18849     18852     18855     18858
     18850     18849     18852     18853     18850     18849     18852     18854
     18850     18849     18852     18855     18851     18849     18852     18853
     18851     18849     18852     18854     18851     18849     18852     18855
     18852     18855     18858     18859     18852     18855     18858     18860
     18852     18855     18858     18861     18853     18852     18855     18856
     18853     18852     18855     18857     18853     18852     18855     18858
     18854     18852     18855     18856     18854     18852     18855     18857
     18854     18852     18855     18858     18856     18855     18858     18859
     18856     18855     18858     18860     18856     18855     18858     18861
     18857     18855     18858     18859     18857     18855     18858     18860
     18857     18855     18858     18861     18862     18866     18869     18870
     18862     18866     18869     18871     18862     18866     18869     18876
     18863     18862     18866     18867     18863     18862     18866     18868
     18863     18862     18866     18869     18864     18862     18866     18867
     18864     18862     18866     18868     18864     18862     18866     18869
     18865     18862     18866     18867     18865     18862     18866     18868
     18865     18862     18866     18869     18866     18869     18876     18872
     18867     18866     18869     18870     18867     18866     18869     18871
     18867     18866     18869     18876     18868     18866     18869     18870
     18868     18866     18869     18871     18868     18866     18869     18876
     18869     18876     18872     18873     18869     18876     18872     18874
     18869     18876     18872     18875     18870     18869     18876     18872
     18871     18869     18876     18872     18872     18875     18877     18878
     18872     18875     18877     18879     18872     18875     18877     18880
     18873     18872     18875     18877     18874     18872     18875     18877
     18875     18877     18880     18881     18875     18877     18880     18882
     18875     18877     18880     18888     18876     18872     18875     18877
     18877     18880     18882     18883     18877     18880     18888     18889
     18877     18880     18888     18890     18877     18880     18888     18891
     18878     18877     18880     18881     18878     18877     18880     18882
     18878     18877     18880     18888     18879     18877     18880     18881
     18879     18877     18880     18882     18879     18877     18880     18888
     18880     18882     18883     18884     18880     18882     18883     18885
     18880     18888     18891     18892     18881     18880     18882     18883
     18881     18880     18888     18889     18881     18880     18888     18890
     18881     18880     18888     18891     18882     18880     18888     18889
     18882     18880     18888     18890     18882     18880     18888     18891
     18882     18883     18885     18886     18882     18883     18885     18887
     18882     18883     18885     18897     18883     18882     18880     18888
     18883     18885     18897     18898     18883     18885     18897     18899
     18883     18885     18897     18900     18884     18883     18885     18886
     18884     18883     18885     18887     18884     18883     18885     18897
     18885     18897     18900     18901     18885     18897     18900     18902
     18885     18897     18900     18903     18886     18885     18897     18898
     18886     18885     18897     18899     18886     18885     18897     18900
     18887     18885     18897     18898     18887     18885     18897     18899
     18887     18885     18897     18900     18888     18891     18892     18893
     18888     18891     18892     18894     18889     18888     18891     18892
     18890     18888     18891     18892     18891     18892     18894     18895
     18891     18892     18894     18896     18891     18892     18894     18944
     18892     18894     18944     18945     18892     18894     18944     18946
     18892     18894     18944     18947     18893     18892     18894     18895
     18893     18892     18894     18896     18893     18892     18894     18944
     18894     18944     18947     18948     18894     18944     18947     18949
     18894     18944     18947     18950     18895     18894     18944     18945
     18895     18894     18944     18946     18895     18894     18944     18947
     18896     18894     18944     18945     18896     18894     18944     18946
     18896     18894     18944     18947     18897     18900     18903     18904
     18897     18900     18903     18905     18897     18900     18903     18906
     18898     18897     18900     18901     18898     18897     18900     18902
     18898     18897     18900     18903     18899     18897     18900     18901
     18899     18897     18900     18902     18899     18897     18900     18903
     18900     18903     18906     18907     18900     18903     18906     18908
     18900     18903     18906     18909     18901     18900     18903     18904
     18901     18900     18903     18905     18901     18900     18903     18906
     18902     18900     18903     18904     18902     18900     18903     18905
     18902     18900     18903     18906     18903     18906     18909     18910
     18903     18906     18909     18911     18903     18906     18909     18912
     18904     18903     18906     18907     18904     18903     18906     18908
     18904     18903     18906     18909     18905     18903     18906     18907
     18905     18903     18906     18908     18905     18903     18906     18909
     18906     18909     18912     18913     18906     18909     18912     18914
     18906     18909     18912     18915     18907     18906     18909     18910
     18907     18906     18909     18911     18907     18906     18909     18912
     18908     18906     18909     18910     18908     18906     18909     18911
     18908     18906     18909     18912     18909     18912     18915     18916
     18909     18912     18915     18917     18910     18909     18912     18913
     18910     18909     18912     18914     18910     18909     18912     18915
     18911     18909     18912     18913     18911     18909     18912     18914
     18911     18909     18912     18915     18912     18915     18917     18918
     18912     18915     18917     18919     18913     18912     18915     18916
     18913     18912     18915     18917     18914     18912     18915     18916
     18914     18912     18915     18917     18915     18917     18919     18920
     18915     18917     18919     18921     18915     18917     18919     18922
     18916     18915     18917     18918     18916     18915     18917     18919
     18917     18919     18922     18923     18917     18919     18922     18924
     18917     18919     18922     18925     18918     18917     18919     18920
     18918     18917     18919     18921     18918     18917     18919     18922
     18919     18922     18925     18926     18919     18922     18925     18927
     18919     18922     18925     18928     18920     18919     18922     18923
     18920     18919     18922     18924     18920     18919     18922     18925
     18921     18919     18922     18923     18921     18919     18922     18924
     18921     18919     18922     18925     18922     18925     18928     18929
     18922     18925     18928     18930     18922     18925     18928     18931
     18923     18922     18925     18926     18923     18922     18925     18927
     18923     18922     18925     18928     18924     18922     18925     18926
     18924     18922     18925     18927     18924     18922     18925     18928
     18925     18928     18931     18932     18925     18928     18931     18933
     18925     18928     18931     18934     18926     18925     18928     18929
     18926     18925     18928     18930     18926     18925     18928     18931
     18927     18925     18928     18929     18927     18925     18928     18930
     18927     18925     18928     18931     18928     18931     18934     18935
     18928     18931     18934     18936     18928     18931     18934     18937
     18929     18928     18931     18932     18929     18928     18931     18933
     18929     18928     18931     18934     18930     18928     18931     18932
     18930     18928     18931     18933     18930     18928     18931     18934
     18931     18934     18937     18938     18931     18934     18937     18939
     18931     18934     18937     18940     18932     18931     18934     18935
     18932     18931     18934     18936     18932     18931     18934     18937
     18933     18931     18934     18935     18933     18931     18934     18936
     18933     18931     18934     18937     18934     18937     18940     18941
     18934     18937     18940     18942     18934     18937     18940     18943
     18935     18934     18937     18938     18935     18934     18937     18939
     18935     18934     18937     18940     18936     18934     18937     18938
     18936     18934     18937     18939     18936     18934     18937     18940
     18938     18937     18940     18941     18938     18937     18940     18942
     18938     18937     18940     18943     18939     18937     18940     18941
     18939     18937     18940     18942     18939     18937     18940     18943
     18944     18947     18950     18951     18944     18947     18950     18952
     18944     18947     18950     18953     18945     18944     18947     18948
     18945     18944     18947     18949     18945     18944     18947     18950
     18946     18944     18947     18948     18946     18944     18947     18949
     18946     18944     18947     18950     18947     18950     18953     18954
     18947     18950     18953     18955     18947     18950     18953     18956
     18948     18947     18950     18951     18948     18947     18950     18952
     18948     18947     18950     18953     18949     18947     18950     18951
     18949     18947     18950     18952     18949     18947     18950     18953
     18950     18953     18956     18957     18950     18953     18956     18958
     18950     18953     18956     18959     18951     18950     18953     18954
     18951     18950     18953     18955     18951     18950     18953     18956
     18952     18950     18953     18954     18952     18950     18953     18955
     18952     18950     18953     18956     18953     18956     18959     18960
     18953     18956     18959     18961     18953     18956     18959     18962
     18954     18953     18956     18957     18954     18953     18956     18958
     18954     18953     18956     18959     18955     18953     18956     18957
     18955     18953     18956     18958     18955     18953     18956     18959
     18956     18959     18962     18963     18956     18959     18962     18964
     18956     18959     18962     18965     18957     18956     18959     18960
     18957     18956     18959     18961     18957     18956     18959     18962
     18958     18956     18959     18960     18958     18956     18959     18961
     18958     18956     18959     18962     18959     18962     18965     18966
     18959     18962     18965     18967     18959     18962     18965     18968
     18960     18959     18962     18963     18960     18959     18962     18964
     18960     18959     18962     18965     18961     18959     18962     18963
     18961     18959     18962     18964     18961     18959     18962     18965
     18962     18965     18968     18969     18962     18965     18968     18970
     18962     18965     18968     18971     18963     18962     18965     18966
     18963     18962     18965     18967     18963     18962     18965     18968
     18964     18962     18965     18966     18964     18962     18965     18967
     18964     18962     18965     18968     18965     18968     18971     18972
     18965     18968     18971     18973     18965     18968     18971     18974
     18966     18965     18968     18969     18966     18965     18968     18970
     18966     18965     18968     18971     18967     18965     18968     18969
     18967     18965     18968     18970     18967     18965     18968     18971
     18968     18971     18974     18975     18968     18971     18974     18976
     18968     18971     18974     18977     18969     18968     18971     18972
     18969     18968     18971     18973     18969     18968     18971     18974
     18970     18968     18971     18972     18970     18968     18971     18973
     18970     18968     18971     18974     18971     18974     18977     18978
     18971     18974     18977     18979     18971     18974     18977     18980
     18972     18971     18974     18975     18972     18971     18974     18976
     18972     18971     18974     18977     18973     18971     18974     18975
     18973     18971     18974     18976     18973     18971     18974     18977
     18974     18977     18980     18981     18974     18977     18980     18982
     18974     18977     18980     18983     18975     18974     18977     18978
     18975     18974     18977     18979     18975     18974     18977     18980
     18976     18974     18977     18978     18976     18974     18977     18979
     18976     18974     18977     18980     18977     18980     18983     18984
     18977     18980     18983     18985     18977     18980     18983     18986
     18978     18977     18980     18981     18978     18977     18980     18982
     18978     18977     18980     18983     18979     18977     18980     18981
     18979     18977     18980     18982     18979     18977     18980     18983
     18981     18980     18983     18984     18981     18980     18983     18985
     18981     18980     18983     18986     18982     18980     18983     18984
     18982     18980     18983     18985     18982     18980     18983     18986
     18987     18991     18994     18995     18987     18991     18994     18996
     18987     18991     18994     19001     18988     18987     18991     18992
     18988     18987     18991     18993     18988     18987     18991     18994
     18989     18987     18991     18992     18989     18987     18991     18993
     18989     18987     18991     18994     18990     18987     18991     18992
     18990     18987     18991     18993     18990     18987     18991     18994
     18991     18994     19001     18997     18992     18991     18994     18995
     18992     18991     18994     18996     18992     18991     18994     19001
     18993     18991     18994     18995     18993     18991     18994     18996
     18993     18991     18994     19001     18994     19001     18997     18998
     18994     19001     18997     18999     18994     19001     18997     19000
     18995     18994     19001     18997     18996     18994     19001     18997
     18997     19000     19002     19003     18997     19000     19002     19004
     18997     19000     19002     19005     18998     18997     19000     19002
     18999     18997     19000     19002     19000     19002     19005     19006
     19000     19002     19005     19007     19000     19002     19005     19013
     19001     18997     19000     19002     19002     19005     19007     19008
     19002     19005     19013     19014     19002     19005     19013     19015
     19002     19005     19013     19016     19003     19002     19005     19006
     19003     19002     19005     19007     19003     19002     19005     19013
     19004     19002     19005     19006     19004     19002     19005     19007
     19004     19002     19005     19013     19005     19007     19008     19009
     19005     19007     19008     19010     19005     19013     19016     19017
     19006     19005     19007     19008     19006     19005     19013     19014
     19006     19005     19013     19015     19006     19005     19013     19016
     19007     19005     19013     19014     19007     19005     19013     19015
     19007     19005     19013     19016     19007     19008     19010     19011
     19007     19008     19010     19012     19007     19008     19010     19022
     19008     19007     19005     19013     19008     19010     19022     19023
     19008     19010     19022     19024     19008     19010     19022     19025
     19009     19008     19010     19011     19009     19008     19010     19012
     19009     19008     19010     19022     19010     19022     19025     19026
     19010     19022     19025     19027     19010     19022     19025     19028
     19011     19010     19022     19023     19011     19010     19022     19024
     19011     19010     19022     19025     19012     19010     19022     19023
     19012     19010     19022     19024     19012     19010     19022     19025
     19013     19016     19017     19018     19013     19016     19017     19019
     19014     19013     19016     19017     19015     19013     19016     19017
     19016     19017     19019     19020     19016     19017     19019     19021
     19016     19017     19019     19069     19017     19019     19069     19070
     19017     19019     19069     19071     19017     19019     19069     19072
     19018     19017     19019     19020     19018     19017     19019     19021
     19018     19017     19019     19069     19019     19069     19072     19073
     19019     19069     19072     19074     19019     19069     19072     19075
     19020     19019     19069     19070     19020     19019     19069     19071
     19020     19019     19069     19072     19021     19019     19069     19070
     19021     19019     19069     19071     19021     19019     19069     19072
     19022     19025     19028     19029     19022     19025     19028     19030
     19022     19025     19028     19031     19023     19022     19025     19026
     19023     19022     19025     19027     19023     19022     19025     19028
     19024     19022     19025     19026     19024     19022     19025     19027
     19024     19022     19025     19028     19025     19028     19031     19032
     19025     19028     19031     19033     19025     19028     19031     19034
     19026     19025     19028     19029     19026     19025     19028     19030
     19026     19025     19028     19031     19027     19025     19028     19029
     19027     19025     19028     19030     19027     19025     19028     19031
     19028     19031     19034     19035     19028     19031     19034     19036
     19028     19031     19034     19037     19029     19028     19031     19032
     19029     19028     19031     19033     19029     19028     19031     19034
     19030     19028     19031     19032     19030     19028     19031     19033
     19030     19028     19031     19034     19031     19034     19037     19038
     19031     19034     19037     19039     19031     19034     19037     19040
     19032     19031     19034     19035     19032     19031     19034     19036
     19032     19031     19034     19037     19033     19031     19034     19035
     19033     19031     19034     19036     19033     19031     19034     19037
     19034     19037     19040     19041     19034     19037     19040     19042
     19035     19034     19037     19038     19035     19034     19037     19039
     19035     19034     19037     19040     19036     19034     19037     19038
     19036     19034     19037     19039     19036     19034     19037     19040
     19037     19040     19042     19043     19037     19040     19042     19044
     19038     19037     19040     19041     19038     19037     19040     19042
     19039     19037     19040     19041     19039     19037     19040     19042
     19040     19042     19044     19045     19040     19042     19044     19046
     19040     19042     19044     19047     19041     19040     19042     19043
     19041     19040     19042     19044     19042     19044     19047     19048
     19042     19044     19047     19049     19042     19044     19047     19050
     19043     19042     19044     19045     19043     19042     19044     19046
     19043     19042     19044     19047     19044     19047     19050     19051
     19044     19047     19050     19052     19044     19047     19050     19053
     19045     19044     19047     19048     19045     19044     19047     19049
     19045     19044     19047     19050     19046     19044     19047     19048
     19046     19044     19047     19049     19046     19044     19047     19050
     19047     19050     19053     19054     19047     19050     19053     19055
     19047     19050     19053     19056     19048     19047     19050     19051
     19048     19047     19050     19052     19048     19047     19050     19053
     19049     19047     19050     19051     19049     19047     19050     19052
     19049     19047     19050     19053     19050     19053     19056     19057
     19050     19053     19056     19058     19050     19053     19056     19059
     19051     19050     19053     19054     19051     19050     19053     19055
     19051     19050     19053     19056     19052     19050     19053     19054
     19052     19050     19053     19055     19052     19050     19053     19056
     19053     19056     19059     19060     19053     19056     19059     19061
     19053     19056     19059     19062     19054     19053     19056     19057
     19054     19053     19056     19058     19054     19053     19056     19059
     19055     19053     19056     19057     19055     19053     19056     19058
     19055     19053     19056     19059     19056     19059     19062     19063
     19056     19059     19062     19064     19056     19059     19062     19065
     19057     19056     19059     19060     19057     19056     19059     19061
     19057     19056     19059     19062     19058     19056     19059     19060
     19058     19056     19059     19061     19058     19056     19059     19062
     19059     19062     19065     19066     19059     19062     19065     19067
     19059     19062     19065     19068     19060     19059     19062     19063
     19060     19059     19062     19064     19060     19059     19062     19065
     19061     19059     19062     19063     19061     19059     19062     19064
     19061     19059     19062     19065     19063     19062     19065     19066
     19063     19062     19065     19067     19063     19062     19065     19068
     19064     19062     19065     19066     19064     19062     19065     19067
     19064     19062     19065     19068     19069     19072     19075     19076
     19069     19072     19075     19077     19069     19072     19075     19078
     19070     19069     19072     19073     19070     19069     19072     19074
     19070     19069     19072     19075     19071     19069     19072     19073
     19071     19069     19072     19074     19071     19069     19072     19075
     19072     19075     19078     19079     19072     19075     19078     19080
     19072     19075     19078     19081     19073     19072     19075     19076
     19073     19072     19075     19077     19073     19072     19075     19078
     19074     19072     19075     19076     19074     19072     19075     19077
     19074     19072     19075     19078     19075     19078     19081     19082
     19075     19078     19081     19083     19075     19078     19081     19084
     19076     19075     19078     19079     19076     19075     19078     19080
     19076     19075     19078     19081     19077     19075     19078     19079
     19077     19075     19078     19080     19077     19075     19078     19081
     19078     19081     19084     19085     19078     19081     19084     19086
     19078     19081     19084     19087     19079     19078     19081     19082
     19079     19078     19081     19083     19079     19078     19081     19084
     19080     19078     19081     19082     19080     19078     19081     19083
     19080     19078     19081     19084     19081     19084     19087     19088
     19081     19084     19087     19089     19081     19084     19087     19090
     19082     19081     19084     19085     19082     19081     19084     19086
     19082     19081     19084     19087     19083     19081     19084     19085
     19083     19081     19084     19086     19083     19081     19084     19087
     19084     19087     19090     19091     19084     19087     19090     19092
     19084     19087     19090     19093     19085     19084     19087     19088
     19085     19084     19087     19089     19085     19084     19087     19090
     19086     19084     19087     19088     19086     19084     19087     19089
     19086     19084     19087     19090     19087     19090     19093     19094
     19087     19090     19093     19095     19087     19090     19093     19096
     19088     19087     19090     19091     19088     19087     19090     19092
     19088     19087     19090     19093     19089     19087     19090     19091
     19089     19087     19090     19092     19089     19087     19090     19093
     19090     19093     19096     19097     19090     19093     19096     19098
     19090     19093     19096     19099     19091     19090     19093     19094
     19091     19090     19093     19095     19091     19090     19093     19096
     19092     19090     19093     19094     19092     19090     19093     19095
     19092     19090     19093     19096     19093     19096     19099     19100
     19093     19096     19099     19101     19093     19096     19099     19102
     19094     19093     19096     19097     19094     19093     19096     19098
     19094     19093     19096     19099     19095     19093     19096     19097
     19095     19093     19096     19098     19095     19093     19096     19099
     19096     19099     19102     19103     19096     19099     19102     19104
     19096     19099     19102     19105     19097     19096     19099     19100
     19097     19096     19099     19101     19097     19096     19099     19102
     19098     19096     19099     19100     19098     19096     19099     19101
     19098     19096     19099     19102     19099     19102     19105     19106
     19099     19102     19105     19107     19099     19102     19105     19108
     19100     19099     19102     19103     19100     19099     19102     19104
     19100     19099     19102     19105     19101     19099     19102     19103
     19101     19099     19102     19104     19101     19099     19102     19105
     19102     19105     19108     19109     19102     19105     19108     19110
     19102     19105     19108     19111     19103     19102     19105     19106
     19103     19102     19105     19107     19103     19102     19105     19108
     19104     19102     19105     19106     19104     19102     19105     19107
     19104     19102     19105     19108     19106     19105     19108     19109
     19106     19105     19108     19110     19106     19105     19108     19111
     19107     19105     19108     19109     19107     19105     19108     19110
     19107     19105     19108     19111     19112     19113     19128     19129
     19112     19113     19128     19130     19112     19113     19128     19134
     19113     19112     19116     19117     19113     19112     19116     19118
     19113     19112     19116     19119     19113     19112     19120     19121
     19113     19112     19120     19122     19113     19112     19120     19123
     19113     19112     19124     19125     19113     19112     19124     19126
     19113     19112     19124     19127     19113     19128     19134     19131
     19114     19113     19112     19116     19114     19113     19112     19120
     19114     19113     19112     19124     19114     19113     19128     19129
     19114     19113     19128     19130     19114     19113     19128     19134
     19115     19113     19112     19116     19115     19113     19112     19120
     19115     19113     19112     19124     19115     19113     19128     19129
     19115     19113     19128     19130     19115     19113     19128     19134
     19116     19112     19113     19128     19116     19112     19120     19121
     19116     19112     19120     19122     19116     19112     19120     19123
     19116     19112     19124     19125     19116     19112     19124     19126
     19116     19112     19124     19127     19117     19116     19112     19120
     19117     19116     19112     19124     19118     19116     19112     19120
     19118     19116     19112     19124     19119     19116     19112     19120
     19119     19116     19112     19124     19120     19112     19113     19128
     19120     19112     19124     19125     19120     19112     19124     19126
     19120     19112     19124     19127     19121     19120     19112     19124
     19122     19120     19112     19124     19123     19120     19112     19124
     19124     19112     19113     19128     19128     19134     19131     19132
     19128     19134     19131     19133     19128     19134     19131     19135
     19129     19128     19134     19131     19130     19128     19134     19131
     19131     19135     19136     19137     19131     19135     19136     19138
     19131     19135     19136     19139     19132     19131     19135     19136
     19133     19131     19135     19136     19134     19131     19135     19136
     19135     19136     19139     19140     19135     19136     19139     19141
     19135     19136     19139     19147     19136     19139     19141     19142
     19136     19139     19147     19148     19136     19139     19147     19149
     19136     19139     19147     19150     19137     19136     19139     19140
     19137     19136     19139     19141     19137     19136     19139     19147
     19138     19136     19139     19140     19138     19136     19139     19141
     19138     19136     19139     19147     19139     19141     19142     19143
     19139     19141     19142     19144     19139     19147     19150     19151
     19140     19139     19141     19142     19140     19139     19147     19148
     19140     19139     19147     19149     19140     19139     19147     19150
     19141     19139     19147     19148     19141     19139     19147     19149
     19141     19139     19147     19150     19141     19142     19144     19145
     19141     19142     19144     19146     19141     19142     19144     19156
     19142     19141     19139     19147     19142     19144     19156     19157
     19142     19144     19156     19158     19142     19144     19156     19159
     19143     19142     19144     19145     19143     19142     19144     19146
     19143     19142     19144     19156     19144     19156     19159     19160
     19144     19156     19159     19161     19144     19156     19159     19162
     19145     19144     19156     19157     19145     19144     19156     19158
     19145     19144     19156     19159     19146     19144     19156     19157
     19146     19144     19156     19158     19146     19144     19156     19159
     19147     19150     19151     19152     19147     19150     19151     19153
     19148     19147     19150     19151     19149     19147     19150     19151
     19150     19151     19153     19154     19150     19151     19153     19155
     19150     19151     19153     19203     19151     19153     19203     19204
     19151     19153     19203     19205     19151     19153     19203     19206
     19152     19151     19153     19154     19152     19151     19153     19155
     19152     19151     19153     19203     19153     19203     19206     19207
     19153     19203     19206     19208     19153     19203     19206     19209
     19154     19153     19203     19204     19154     19153     19203     19205
     19154     19153     19203     19206     19155     19153     19203     19204
     19155     19153     19203     19205     19155     19153     19203     19206
     19156     19159     19162     19163     19156     19159     19162     19164
     19156     19159     19162     19165     19157     19156     19159     19160
     19157     19156     19159     19161     19157     19156     19159     19162
     19158     19156     19159     19160     19158     19156     19159     19161
     19158     19156     19159     19162     19159     19162     19165     19166
     19159     19162     19165     19167     19159     19162     19165     19168
     19160     19159     19162     19163     19160     19159     19162     19164
     19160     19159     19162     19165     19161     19159     19162     19163
     19161     19159     19162     19164     19161     19159     19162     19165
     19162     19165     19168     19169     19162     19165     19168     19170
     19162     19165     19168     19171     19163     19162     19165     19166
     19163     19162     19165     19167     19163     19162     19165     19168
     19164     19162     19165     19166     19164     19162     19165     19167
     19164     19162     19165     19168     19165     19168     19171     19172
     19165     19168     19171     19173     19165     19168     19171     19174
     19166     19165     19168     19169     19166     19165     19168     19170
     19166     19165     19168     19171     19167     19165     19168     19169
     19167     19165     19168     19170     19167     19165     19168     19171
     19168     19171     19174     19175     19168     19171     19174     19176
     19169     19168     19171     19172     19169     19168     19171     19173
     19169     19168     19171     19174     19170     19168     19171     19172
     19170     19168     19171     19173     19170     19168     19171     19174
     19171     19174     19176     19177     19171     19174     19176     19178
     19172     19171     19174     19175     19172     19171     19174     19176
     19173     19171     19174     19175     19173     19171     19174     19176
     19174     19176     19178     19179     19174     19176     19178     19180
     19174     19176     19178     19181     19175     19174     19176     19177
     19175     19174     19176     19178     19176     19178     19181     19182
     19176     19178     19181     19183     19176     19178     19181     19184
     19177     19176     19178     19179     19177     19176     19178     19180
     19177     19176     19178     19181     19178     19181     19184     19185
     19178     19181     19184     19186     19178     19181     19184     19187
     19179     19178     19181     19182     19179     19178     19181     19183
     19179     19178     19181     19184     19180     19178     19181     19182
     19180     19178     19181     19183     19180     19178     19181     19184
     19181     19184     19187     19188     19181     19184     19187     19189
     19181     19184     19187     19190     19182     19181     19184     19185
     19182     19181     19184     19186     19182     19181     19184     19187
     19183     19181     19184     19185     19183     19181     19184     19186
     19183     19181     19184     19187     19184     19187     19190     19191
     19184     19187     19190     19192     19184     19187     19190     19193
     19185     19184     19187     19188     19185     19184     19187     19189
     19185     19184     19187     19190     19186     19184     19187     19188
     19186     19184     19187     19189     19186     19184     19187     19190
     19187     19190     19193     19194     19187     19190     19193     19195
     19187     19190     19193     19196     19188     19187     19190     19191
     19188     19187     19190     19192     19188     19187     19190     19193
     19189     19187     19190     19191     19189     19187     19190     19192
     19189     19187     19190     19193     19190     19193     19196     19197
     19190     19193     19196     19198     19190     19193     19196     19199
     19191     19190     19193     19194     19191     19190     19193     19195
     19191     19190     19193     19196     19192     19190     19193     19194
     19192     19190     19193     19195     19192     19190     19193     19196
     19193     19196     19199     19200     19193     19196     19199     19201
     19193     19196     19199     19202     19194     19193     19196     19197
     19194     19193     19196     19198     19194     19193     19196     19199
     19195     19193     19196     19197     19195     19193     19196     19198
     19195     19193     19196     19199     19197     19196     19199     19200
     19197     19196     19199     19201     19197     19196     19199     19202
     19198     19196     19199     19200     19198     19196     19199     19201
     19198     19196     19199     19202     19203     19206     19209     19210
     19203     19206     19209     19211     19203     19206     19209     19212
     19204     19203     19206     19207     19204     19203     19206     19208
     19204     19203     19206     19209     19205     19203     19206     19207
     19205     19203     19206     19208     19205     19203     19206     19209
     19206     19209     19212     19213     19206     19209     19212     19214
     19206     19209     19212     19215     19207     19206     19209     19210
     19207     19206     19209     19211     19207     19206     19209     19212
     19208     19206     19209     19210     19208     19206     19209     19211
     19208     19206     19209     19212     19209     19212     19215     19216
     19209     19212     19215     19217     19209     19212     19215     19218
     19210     19209     19212     19213     19210     19209     19212     19214
     19210     19209     19212     19215     19211     19209     19212     19213
     19211     19209     19212     19214     19211     19209     19212     19215
     19212     19215     19218     19219     19212     19215     19218     19220
     19212     19215     19218     19221     19213     19212     19215     19216
     19213     19212     19215     19217     19213     19212     19215     19218
     19214     19212     19215     19216     19214     19212     19215     19217
     19214     19212     19215     19218     19215     19218     19221     19222
     19215     19218     19221     19223     19215     19218     19221     19224
     19216     19215     19218     19219     19216     19215     19218     19220
     19216     19215     19218     19221     19217     19215     19218     19219
     19217     19215     19218     19220     19217     19215     19218     19221
     19218     19221     19224     19225     19218     19221     19224     19226
     19218     19221     19224     19227     19219     19218     19221     19222
     19219     19218     19221     19223     19219     19218     19221     19224
     19220     19218     19221     19222     19220     19218     19221     19223
     19220     19218     19221     19224     19221     19224     19227     19228
     19221     19224     19227     19229     19221     19224     19227     19230
     19222     19221     19224     19225     19222     19221     19224     19226
     19222     19221     19224     19227     19223     19221     19224     19225
     19223     19221     19224     19226     19223     19221     19224     19227
     19224     19227     19230     19231     19224     19227     19230     19232
     19224     19227     19230     19233     19225     19224     19227     19228
     19225     19224     19227     19229     19225     19224     19227     19230
     19226     19224     19227     19228     19226     19224     19227     19229
     19226     19224     19227     19230     19227     19230     19233     19234
     19227     19230     19233     19235     19227     19230     19233     19236
     19228     19227     19230     19231     19228     19227     19230     19232
     19228     19227     19230     19233     19229     19227     19230     19231
     19229     19227     19230     19232     19229     19227     19230     19233
     19230     19233     19236     19237     19230     19233     19236     19238
     19230     19233     19236     19239     19231     19230     19233     19234
     19231     19230     19233     19235     19231     19230     19233     19236
     19232     19230     19233     19234     19232     19230     19233     19235
     19232     19230     19233     19236     19233     19236     19239     19240
     19233     19236     19239     19241     19233     19236     19239     19242
     19234     19233     19236     19237     19234     19233     19236     19238
     19234     19233     19236     19239     19235     19233     19236     19237
     19235     19233     19236     19238     19235     19233     19236     19239
     19236     19239     19242     19243     19236     19239     19242     19244
     19236     19239     19242     19245     19237     19236     19239     19240
     19237     19236     19239     19241     19237     19236     19239     19242
     19238     19236     19239     19240     19238     19236     19239     19241
     19238     19236     19239     19242     19240     19239     19242     19243
     19240     19239     19242     19244     19240     19239     19242     19245
     19241     19239     19242     19243     19241     19239     19242     19244
     19241     19239     19242     19245     19246     19247     19262     19263
     19246     19247     19262     19264     19246     19247     19262     19268
     19247     19246     19250     19251     19247     19246     19250     19252
     19247     19246     19250     19253     19247     19246     19254     19255
     19247     19246     19254     19256     19247     19246     19254     19257
     19247     19246     19258     19259     19247     19246     19258     19260
     19247     19246     19258     19261     19247     19262     19268     19265
     19248     19247     19246     19250     19248     19247     19246     19254
     19248     19247     19246     19258     19248     19247     19262     19263
     19248     19247     19262     19264     19248     19247     19262     19268
     19249     19247     19246     19250     19249     19247     19246     19254
     19249     19247     19246     19258     19249     19247     19262     19263
     19249     19247     19262     19264     19249     19247     19262     19268
     19250     19246     19247     19262     19250     19246     19254     19255
     19250     19246     19254     19256     19250     19246     19254     19257
     19250     19246     19258     19259     19250     19246     19258     19260
     19250     19246     19258     19261     19251     19250     19246     19254
     19251     19250     19246     19258     19252     19250     19246     19254
     19252     19250     19246     19258     19253     19250     19246     19254
     19253     19250     19246     19258     19254     19246     19247     19262
     19254     19246     19258     19259     19254     19246     19258     19260
     19254     19246     19258     19261     19255     19254     19246     19258
     19256     19254     19246     19258     19257     19254     19246     19258
     19258     19246     19247     19262     19262     19268     19265     19266
     19262     19268     19265     19267     19262     19268     19265     19269
     19263     19262     19268     19265     19264     19262     19268     19265
     19265     19269     19270     19271     19265     19269     19270     19272
     19265     19269     19270     19273     19266     19265     19269     19270
     19267     19265     19269     19270     19268     19265     19269     19270
     19269     19270     19273     19274     19269     19270     19273     19275
     19269     19270     19273     19281     19270     19273     19275     19276
     19270     19273     19281     19282     19270     19273     19281     19283
     19270     19273     19281     19284     19271     19270     19273     19274
     19271     19270     19273     19275     19271     19270     19273     19281
     19272     19270     19273     19274     19272     19270     19273     19275
     19272     19270     19273     19281     19273     19275     19276     19277
     19273     19275     19276     19278     19273     19281     19284     19285
     19274     19273     19275     19276     19274     19273     19281     19282
     19274     19273     19281     19283     19274     19273     19281     19284
     19275     19273     19281     19282     19275     19273     19281     19283
     19275     19273     19281     19284     19275     19276     19278     19279
     19275     19276     19278     19280     19275     19276     19278     19290
     19276     19275     19273     19281     19276     19278     19290     19291
     19276     19278     19290     19292     19276     19278     19290     19293
     19277     19276     19278     19279     19277     19276     19278     19280
     19277     19276     19278     19290     19278     19290     19293     19294
     19278     19290     19293     19295     19278     19290     19293     19296
     19279     19278     19290     19291     19279     19278     19290     19292
     19279     19278     19290     19293     19280     19278     19290     19291
     19280     19278     19290     19292     19280     19278     19290     19293
     19281     19284     19285     19286     19281     19284     19285     19287
     19282     19281     19284     19285     19283     19281     19284     19285
     19284     19285     19287     19288     19284     19285     19287     19289
     19284     19285     19287     19337     19285     19287     19337     19338
     19285     19287     19337     19339     19285     19287     19337     19340
     19286     19285     19287     19288     19286     19285     19287     19289
     19286     19285     19287     19337     19287     19337     19340     19341
     19287     19337     19340     19342     19287     19337     19340     19343
     19288     19287     19337     19338     19288     19287     19337     19339
     19288     19287     19337     19340     19289     19287     19337     19338
     19289     19287     19337     19339     19289     19287     19337     19340
     19290     19293     19296     19297     19290     19293     19296     19298
     19290     19293     19296     19299     19291     19290     19293     19294
     19291     19290     19293     19295     19291     19290     19293     19296
     19292     19290     19293     19294     19292     19290     19293     19295
     19292     19290     19293     19296     19293     19296     19299     19300
     19293     19296     19299     19301     19293     19296     19299     19302
     19294     19293     19296     19297     19294     19293     19296     19298
     19294     19293     19296     19299     19295     19293     19296     19297
     19295     19293     19296     19298     19295     19293     19296     19299
     19296     19299     19302     19303     19296     19299     19302     19304
     19296     19299     19302     19305     19297     19296     19299     19300
     19297     19296     19299     19301     19297     19296     19299     19302
     19298     19296     19299     19300     19298     19296     19299     19301
     19298     19296     19299     19302     19299     19302     19305     19306
     19299     19302     19305     19307     19299     19302     19305     19308
     19300     19299     19302     19303     19300     19299     19302     19304
     19300     19299     19302     19305     19301     19299     19302     19303
     19301     19299     19302     19304     19301     19299     19302     19305
     19302     19305     19308     19309     19302     19305     19308     19310
     19303     19302     19305     19306     19303     19302     19305     19307
     19303     19302     19305     19308     19304     19302     19305     19306
     19304     19302     19305     19307     19304     19302     19305     19308
     19305     19308     19310     19311     19305     19308     19310     19312
     19306     19305     19308     19309     19306     19305     19308     19310
     19307     19305     19308     19309     19307     19305     19308     19310
     19308     19310     19312     19313     19308     19310     19312     19314
     19308     19310     19312     19315     19309     19308     19310     19311
     19309     19308     19310     19312     19310     19312     19315     19316
     19310     19312     19315     19317     19310     19312     19315     19318
     19311     19310     19312     19313     19311     19310     19312     19314
     19311     19310     19312     19315     19312     19315     19318     19319
     19312     19315     19318     19320     19312     19315     19318     19321
     19313     19312     19315     19316     19313     19312     19315     19317
     19313     19312     19315     19318     19314     19312     19315     19316
     19314     19312     19315     19317     19314     19312     19315     19318
     19315     19318     19321     19322     19315     19318     19321     19323
     19315     19318     19321     19324     19316     19315     19318     19319
     19316     19315     19318     19320     19316     19315     19318     19321
     19317     19315     19318     19319     19317     19315     19318     19320
     19317     19315     19318     19321     19318     19321     19324     19325
     19318     19321     19324     19326     19318     19321     19324     19327
     19319     19318     19321     19322     19319     19318     19321     19323
     19319     19318     19321     19324     19320     19318     19321     19322
     19320     19318     19321     19323     19320     19318     19321     19324
     19321     19324     19327     19328     19321     19324     19327     19329
     19321     19324     19327     19330     19322     19321     19324     19325
     19322     19321     19324     19326     19322     19321     19324     19327
     19323     19321     19324     19325     19323     19321     19324     19326
     19323     19321     19324     19327     19324     19327     19330     19331
     19324     19327     19330     19332     19324     19327     19330     19333
     19325     19324     19327     19328     19325     19324     19327     19329
     19325     19324     19327     19330     19326     19324     19327     19328
     19326     19324     19327     19329     19326     19324     19327     19330
     19327     19330     19333     19334     19327     19330     19333     19335
     19327     19330     19333     19336     19328     19327     19330     19331
     19328     19327     19330     19332     19328     19327     19330     19333
     19329     19327     19330     19331     19329     19327     19330     19332
     19329     19327     19330     19333     19331     19330     19333     19334
     19331     19330     19333     19335     19331     19330     19333     19336
     19332     19330     19333     19334     19332     19330     19333     19335
     19332     19330     19333     19336     19337     19340     19343     19344
     19337     19340     19343     19345     19337     19340     19343     19346
     19338     19337     19340     19341     19338     19337     19340     19342
     19338     19337     19340     19343     19339     19337     19340     19341
     19339     19337     19340     19342     19339     19337     19340     19343
     19340     19343     19346     19347     19340     19343     19346     19348
     19340     19343     19346     19349     19341     19340     19343     19344
     19341     19340     19343     19345     19341     19340     19343     19346
     19342     19340     19343     19344     19342     19340     19343     19345
     19342     19340     19343     19346     19343     19346     19349     19350
     19343     19346     19349     19351     19343     19346     19349     19352
     19344     19343     19346     19347     19344     19343     19346     19348
     19344     19343     19346     19349     19345     19343     19346     19347
     19345     19343     19346     19348     19345     19343     19346     19349
     19346     19349     19352     19353     19346     19349     19352     19354
     19346     19349     19352     19355     19347     19346     19349     19350
     19347     19346     19349     19351     19347     19346     19349     19352
     19348     19346     19349     19350     19348     19346     19349     19351
     19348     19346     19349     19352     19349     19352     19355     19356
     19349     19352     19355     19357     19349     19352     19355     19358
     19350     19349     19352     19353     19350     19349     19352     19354
     19350     19349     19352     19355     19351     19349     19352     19353
     19351     19349     19352     19354     19351     19349     19352     19355
     19352     19355     19358     19359     19352     19355     19358     19360
     19352     19355     19358     19361     19353     19352     19355     19356
     19353     19352     19355     19357     19353     19352     19355     19358
     19354     19352     19355     19356     19354     19352     19355     19357
     19354     19352     19355     19358     19355     19358     19361     19362
     19355     19358     19361     19363     19355     19358     19361     19364
     19356     19355     19358     19359     19356     19355     19358     19360
     19356     19355     19358     19361     19357     19355     19358     19359
     19357     19355     19358     19360     19357     19355     19358     19361
     19358     19361     19364     19365     19358     19361     19364     19366
     19358     19361     19364     19367     19359     19358     19361     19362
     19359     19358     19361     19363     19359     19358     19361     19364
     19360     19358     19361     19362     19360     19358     19361     19363
     19360     19358     19361     19364     19361     19364     19367     19368
     19361     19364     19367     19369     19361     19364     19367     19370
     19362     19361     19364     19365     19362     19361     19364     19366
     19362     19361     19364     19367     19363     19361     19364     19365
     19363     19361     19364     19366     19363     19361     19364     19367
     19364     19367     19370     19371     19364     19367     19370     19372
     19364     19367     19370     19373     19365     19364     19367     19368
     19365     19364     19367     19369     19365     19364     19367     19370
     19366     19364     19367     19368     19366     19364     19367     19369
     19366     19364     19367     19370     19367     19370     19373     19374
     19367     19370     19373     19375     19367     19370     19373     19376
     19368     19367     19370     19371     19368     19367     19370     19372
     19368     19367     19370     19373     19369     19367     19370     19371
     19369     19367     19370     19372     19369     19367     19370     19373
     19370     19373     19376     19377     19370     19373     19376     19378
     19370     19373     19376     19379     19371     19370     19373     19374
     19371     19370     19373     19375     19371     19370     19373     19376
     19372     19370     19373     19374     19372     19370     19373     19375
     19372     19370     19373     19376     19374     19373     19376     19377
     19374     19373     19376     19378     19374     19373     19376     19379
     19375     19373     19376     19377     19375     19373     19376     19378
     19375     19373     19376     19379     19380     19384     19387     19388
     19380     19384     19387     19389     19380     19384     19387     19394
     19381     19380     19384     19385     19381     19380     19384     19386
     19381     19380     19384     19387     19382     19380     19384     19385
     19382     19380     19384     19386     19382     19380     19384     19387
     19383     19380     19384     19385     19383     19380     19384     19386
     19383     19380     19384     19387     19384     19387     19394     19390
     19385     19384     19387     19388     19385     19384     19387     19389
     19385     19384     19387     19394     19386     19384     19387     19388
     19386     19384     19387     19389     19386     19384     19387     19394
     19387     19394     19390     19391     19387     19394     19390     19392
     19387     19394     19390     19393     19388     19387     19394     19390
     19389     19387     19394     19390     19390     19393     19395     19396
     19390     19393     19395     19397     19390     19393     19395     19398
     19391     19390     19393     19395     19392     19390     19393     19395
     19393     19395     19398     19399     19393     19395     19398     19400
     19393     19395     19398     19406     19394     19390     19393     19395
     19395     19398     19400     19401     19395     19398     19406     19407
     19395     19398     19406     19408     19395     19398     19406     19409
     19396     19395     19398     19399     19396     19395     19398     19400
     19396     19395     19398     19406     19397     19395     19398     19399
     19397     19395     19398     19400     19397     19395     19398     19406
     19398     19400     19401     19402     19398     19400     19401     19403
     19398     19406     19409     19410     19399     19398     19400     19401
     19399     19398     19406     19407     19399     19398     19406     19408
     19399     19398     19406     19409     19400     19398     19406     19407
     19400     19398     19406     19408     19400     19398     19406     19409
     19400     19401     19403     19404     19400     19401     19403     19405
     19400     19401     19403     19415     19401     19400     19398     19406
     19401     19403     19415     19416     19401     19403     19415     19417
     19401     19403     19415     19418     19402     19401     19403     19404
     19402     19401     19403     19405     19402     19401     19403     19415
     19403     19415     19418     19419     19403     19415     19418     19420
     19403     19415     19418     19421     19404     19403     19415     19416
     19404     19403     19415     19417     19404     19403     19415     19418
     19405     19403     19415     19416     19405     19403     19415     19417
     19405     19403     19415     19418     19406     19409     19410     19411
     19406     19409     19410     19412     19407     19406     19409     19410
     19408     19406     19409     19410     19409     19410     19412     19413
     19409     19410     19412     19414     19409     19410     19412     19462
     19410     19412     19462     19463     19410     19412     19462     19464
     19410     19412     19462     19465     19411     19410     19412     19413
     19411     19410     19412     19414     19411     19410     19412     19462
     19412     19462     19465     19466     19412     19462     19465     19467
     19412     19462     19465     19468     19413     19412     19462     19463
     19413     19412     19462     19464     19413     19412     19462     19465
     19414     19412     19462     19463     19414     19412     19462     19464
     19414     19412     19462     19465     19415     19418     19421     19422
     19415     19418     19421     19423     19415     19418     19421     19424
     19416     19415     19418     19419     19416     19415     19418     19420
     19416     19415     19418     19421     19417     19415     19418     19419
     19417     19415     19418     19420     19417     19415     19418     19421
     19418     19421     19424     19425     19418     19421     19424     19426
     19418     19421     19424     19427     19419     19418     19421     19422
     19419     19418     19421     19423     19419     19418     19421     19424
     19420     19418     19421     19422     19420     19418     19421     19423
     19420     19418     19421     19424     19421     19424     19427     19428
     19421     19424     19427     19429     19421     19424     19427     19430
     19422     19421     19424     19425     19422     19421     19424     19426
     19422     19421     19424     19427     19423     19421     19424     19425
     19423     19421     19424     19426     19423     19421     19424     19427
     19424     19427     19430     19431     19424     19427     19430     19432
     19424     19427     19430     19433     19425     19424     19427     19428
     19425     19424     19427     19429     19425     19424     19427     19430
     19426     19424     19427     19428     19426     19424     19427     19429
     19426     19424     19427     19430     19427     19430     19433     19434
     19427     19430     19433     19435     19428     19427     19430     19431
     19428     19427     19430     19432     19428     19427     19430     19433
     19429     19427     19430     19431     19429     19427     19430     19432
     19429     19427     19430     19433     19430     19433     19435     19436
     19430     19433     19435     19437     19431     19430     19433     19434
     19431     19430     19433     19435     19432     19430     19433     19434
     19432     19430     19433     19435     19433     19435     19437     19438
     19433     19435     19437     19439     19433     19435     19437     19440
     19434     19433     19435     19436     19434     19433     19435     19437
     19435     19437     19440     19441     19435     19437     19440     19442
     19435     19437     19440     19443     19436     19435     19437     19438
     19436     19435     19437     19439     19436     19435     19437     19440
     19437     19440     19443     19444     19437     19440     19443     19445
     19437     19440     19443     19446     19438     19437     19440     19441
     19438     19437     19440     19442     19438     19437     19440     19443
     19439     19437     19440     19441     19439     19437     19440     19442
     19439     19437     19440     19443     19440     19443     19446     19447
     19440     19443     19446     19448     19440     19443     19446     19449
     19441     19440     19443     19444     19441     19440     19443     19445
     19441     19440     19443     19446     19442     19440     19443     19444
     19442     19440     19443     19445     19442     19440     19443     19446
     19443     19446     19449     19450     19443     19446     19449     19451
     19443     19446     19449     19452     19444     19443     19446     19447
     19444     19443     19446     19448     19444     19443     19446     19449
     19445     19443     19446     19447     19445     19443     19446     19448
     19445     19443     19446     19449     19446     19449     19452     19453
     19446     19449     19452     19454     19446     19449     19452     19455
     19447     19446     19449     19450     19447     19446     19449     19451
     19447     19446     19449     19452     19448     19446     19449     19450
     19448     19446     19449     19451     19448     19446     19449     19452
     19449     19452     19455     19456     19449     19452     19455     19457
     19449     19452     19455     19458     19450     19449     19452     19453
     19450     19449     19452     19454     19450     19449     19452     19455
     19451     19449     19452     19453     19451     19449     19452     19454
     19451     19449     19452     19455     19452     19455     19458     19459
     19452     19455     19458     19460     19452     19455     19458     19461
     19453     19452     19455     19456     19453     19452     19455     19457
     19453     19452     19455     19458     19454     19452     19455     19456
     19454     19452     19455     19457     19454     19452     19455     19458
     19456     19455     19458     19459     19456     19455     19458     19460
     19456     19455     19458     19461     19457     19455     19458     19459
     19457     19455     19458     19460     19457     19455     19458     19461
     19462     19465     19468     19469     19462     19465     19468     19470
     19462     19465     19468     19471     19463     19462     19465     19466
     19463     19462     19465     19467     19463     19462     19465     19468
     19464     19462     19465     19466     19464     19462     19465     19467
     19464     19462     19465     19468     19465     19468     19471     19472
     19465     19468     19471     19473     19465     19468     19471     19474
     19466     19465     19468     19469     19466     19465     19468     19470
     19466     19465     19468     19471     19467     19465     19468     19469
     19467     19465     19468     19470     19467     19465     19468     19471
     19468     19471     19474     19475     19468     19471     19474     19476
     19468     19471     19474     19477     19469     19468     19471     19472
     19469     19468     19471     19473     19469     19468     19471     19474
     19470     19468     19471     19472     19470     19468     19471     19473
     19470     19468     19471     19474     19471     19474     19477     19478
     19471     19474     19477     19479     19471     19474     19477     19480
     19472     19471     19474     19475     19472     19471     19474     19476
     19472     19471     19474     19477     19473     19471     19474     19475
     19473     19471     19474     19476     19473     19471     19474     19477
     19474     19477     19480     19481     19474     19477     19480     19482
     19474     19477     19480     19483     19475     19474     19477     19478
     19475     19474     19477     19479     19475     19474     19477     19480
     19476     19474     19477     19478     19476     19474     19477     19479
     19476     19474     19477     19480     19477     19480     19483     19484
     19477     19480     19483     19485     19477     19480     19483     19486
     19478     19477     19480     19481     19478     19477     19480     19482
     19478     19477     19480     19483     19479     19477     19480     19481
     19479     19477     19480     19482     19479     19477     19480     19483
     19480     19483     19486     19487     19480     19483     19486     19488
     19480     19483     19486     19489     19481     19480     19483     19484
     19481     19480     19483     19485     19481     19480     19483     19486
     19482     19480     19483     19484     19482     19480     19483     19485
     19482     19480     19483     19486     19483     19486     19489     19490
     19483     19486     19489     19491     19483     19486     19489     19492
     19484     19483     19486     19487     19484     19483     19486     19488
     19484     19483     19486     19489     19485     19483     19486     19487
     19485     19483     19486     19488     19485     19483     19486     19489
     19486     19489     19492     19493     19486     19489     19492     19494
     19486     19489     19492     19495     19487     19486     19489     19490
     19487     19486     19489     19491     19487     19486     19489     19492
     19488     19486     19489     19490     19488     19486     19489     19491
     19488     19486     19489     19492     19489     19492     19495     19496
     19489     19492     19495     19497     19489     19492     19495     19498
     19490     19489     19492     19493     19490     19489     19492     19494
     19490     19489     19492     19495     19491     19489     19492     19493
     19491     19489     19492     19494     19491     19489     19492     19495
     19492     19495     19498     19499     19492     19495     19498     19500
     19492     19495     19498     19501     19493     19492     19495     19496
     19493     19492     19495     19497     19493     19492     19495     19498
     19494     19492     19495     19496     19494     19492     19495     19497
     19494     19492     19495     19498     19495     19498     19501     19502
     19495     19498     19501     19503     19495     19498     19501     19504
     19496     19495     19498     19499     19496     19495     19498     19500
     19496     19495     19498     19501     19497     19495     19498     19499
     19497     19495     19498     19500     19497     19495     19498     19501
     19499     19498     19501     19502     19499     19498     19501     19503
     19499     19498     19501     19504     19500     19498     19501     19502
     19500     19498     19501     19503     19500     19498     19501     19504
     19505     19506     19521     19522     19505     19506     19521     19523
     19505     19506     19521     19527     19506     19505     19509     19510
     19506     19505     19509     19511     19506     19505     19509     19512
     19506     19505     19513     19514     19506     19505     19513     19515
     19506     19505     19513     19516     19506     19505     19517     19518
     19506     19505     19517     19519     19506     19505     19517     19520
     19506     19521     19527     19524     19507     19506     19505     19509
     19507     19506     19505     19513     19507     19506     19505     19517
     19507     19506     19521     19522     19507     19506     19521     19523
     19507     19506     19521     19527     19508     19506     19505     19509
     19508     19506     19505     19513     19508     19506     19505     19517
     19508     19506     19521     19522     19508     19506     19521     19523
     19508     19506     19521     19527     19509     19505     19506     19521
     19509     19505     19513     19514     19509     19505     19513     19515
     19509     19505     19513     19516     19509     19505     19517     19518
     19509     19505     19517     19519     19509     19505     19517     19520
     19510     19509     19505     19513     19510     19509     19505     19517
     19511     19509     19505     19513     19511     19509     19505     19517
     19512     19509     19505     19513     19512     19509     19505     19517
     19513     19505     19506     19521     19513     19505     19517     19518
     19513     19505     19517     19519     19513     19505     19517     19520
     19514     19513     19505     19517     19515     19513     19505     19517
     19516     19513     19505     19517     19517     19505     19506     19521
     19521     19527     19524     19525     19521     19527     19524     19526
     19521     19527     19524     19528     19522     19521     19527     19524
     19523     19521     19527     19524     19524     19528     19529     19530
     19524     19528     19529     19531     19524     19528     19529     19532
     19525     19524     19528     19529     19526     19524     19528     19529
     19527     19524     19528     19529     19528     19529     19532     19533
     19528     19529     19532     19534     19528     19529     19532     19540
     19529     19532     19534     19535     19529     19532     19540     19541
     19529     19532     19540     19542     19529     19532     19540     19543
     19530     19529     19532     19533     19530     19529     19532     19534
     19530     19529     19532     19540     19531     19529     19532     19533
     19531     19529     19532     19534     19531     19529     19532     19540
     19532     19534     19535     19536     19532     19534     19535     19537
     19532     19540     19543     19544     19533     19532     19534     19535
     19533     19532     19540     19541     19533     19532     19540     19542
     19533     19532     19540     19543     19534     19532     19540     19541
     19534     19532     19540     19542     19534     19532     19540     19543
     19534     19535     19537     19538     19534     19535     19537     19539
     19534     19535     19537     19549     19535     19534     19532     19540
     19535     19537     19549     19550     19535     19537     19549     19551
     19535     19537     19549     19552     19536     19535     19537     19538
     19536     19535     19537     19539     19536     19535     19537     19549
     19537     19549     19552     19553     19537     19549     19552     19554
     19537     19549     19552     19555     19538     19537     19549     19550
     19538     19537     19549     19551     19538     19537     19549     19552
     19539     19537     19549     19550     19539     19537     19549     19551
     19539     19537     19549     19552     19540     19543     19544     19545
     19540     19543     19544     19546     19541     19540     19543     19544
     19542     19540     19543     19544     19543     19544     19546     19547
     19543     19544     19546     19548     19543     19544     19546     19596
     19544     19546     19596     19597     19544     19546     19596     19598
     19544     19546     19596     19599     19545     19544     19546     19547
     19545     19544     19546     19548     19545     19544     19546     19596
     19546     19596     19599     19600     19546     19596     19599     19601
     19546     19596     19599     19602     19547     19546     19596     19597
     19547     19546     19596     19598     19547     19546     19596     19599
     19548     19546     19596     19597     19548     19546     19596     19598
     19548     19546     19596     19599     19549     19552     19555     19556
     19549     19552     19555     19557     19549     19552     19555     19558
     19550     19549     19552     19553     19550     19549     19552     19554
     19550     19549     19552     19555     19551     19549     19552     19553
     19551     19549     19552     19554     19551     19549     19552     19555
     19552     19555     19558     19559     19552     19555     19558     19560
     19552     19555     19558     19561     19553     19552     19555     19556
     19553     19552     19555     19557     19553     19552     19555     19558
     19554     19552     19555     19556     19554     19552     19555     19557
     19554     19552     19555     19558     19555     19558     19561     19562
     19555     19558     19561     19563     19555     19558     19561     19564
     19556     19555     19558     19559     19556     19555     19558     19560
     19556     19555     19558     19561     19557     19555     19558     19559
     19557     19555     19558     19560     19557     19555     19558     19561
     19558     19561     19564     19565     19558     19561     19564     19566
     19558     19561     19564     19567     19559     19558     19561     19562
     19559     19558     19561     19563     19559     19558     19561     19564
     19560     19558     19561     19562     19560     19558     19561     19563
     19560     19558     19561     19564     19561     19564     19567     19568
     19561     19564     19567     19569     19562     19561     19564     19565
     19562     19561     19564     19566     19562     19561     19564     19567
     19563     19561     19564     19565     19563     19561     19564     19566
     19563     19561     19564     19567     19564     19567     19569     19570
     19564     19567     19569     19571     19565     19564     19567     19568
     19565     19564     19567     19569     19566     19564     19567     19568
     19566     19564     19567     19569     19567     19569     19571     19572
     19567     19569     19571     19573     19567     19569     19571     19574
     19568     19567     19569     19570     19568     19567     19569     19571
     19569     19571     19574     19575     19569     19571     19574     19576
     19569     19571     19574     19577     19570     19569     19571     19572
     19570     19569     19571     19573     19570     19569     19571     19574
     19571     19574     19577     19578     19571     19574     19577     19579
     19571     19574     19577     19580     19572     19571     19574     19575
     19572     19571     19574     19576     19572     19571     19574     19577
     19573     19571     19574     19575     19573     19571     19574     19576
     19573     19571     19574     19577     19574     19577     19580     19581
     19574     19577     19580     19582     19574     19577     19580     19583
     19575     19574     19577     19578     19575     19574     19577     19579
     19575     19574     19577     19580     19576     19574     19577     19578
     19576     19574     19577     19579     19576     19574     19577     19580
     19577     19580     19583     19584     19577     19580     19583     19585
     19577     19580     19583     19586     19578     19577     19580     19581
     19578     19577     19580     19582     19578     19577     19580     19583
     19579     19577     19580     19581     19579     19577     19580     19582
     19579     19577     19580     19583     19580     19583     19586     19587
     19580     19583     19586     19588     19580     19583     19586     19589
     19581     19580     19583     19584     19581     19580     19583     19585
     19581     19580     19583     19586     19582     19580     19583     19584
     19582     19580     19583     19585     19582     19580     19583     19586
     19583     19586     19589     19590     19583     19586     19589     19591
     19583     19586     19589     19592     19584     19583     19586     19587
     19584     19583     19586     19588     19584     19583     19586     19589
     19585     19583     19586     19587     19585     19583     19586     19588
     19585     19583     19586     19589     19586     19589     19592     19593
     19586     19589     19592     19594     19586     19589     19592     19595
     19587     19586     19589     19590     19587     19586     19589     19591
     19587     19586     19589     19592     19588     19586     19589     19590
     19588     19586     19589     19591     19588     19586     19589     19592
     19590     19589     19592     19593     19590     19589     19592     19594
     19590     19589     19592     19595     19591     19589     19592     19593
     19591     19589     19592     19594     19591     19589     19592     19595
     19596     19599     19602     19603     19596     19599     19602     19604
     19596     19599     19602     19605     19597     19596     19599     19600
     19597     19596     19599     19601     19597     19596     19599     19602
     19598     19596     19599     19600     19598     19596     19599     19601
     19598     19596     19599     19602     19599     19602     19605     19606
     19599     19602     19605     19607     19599     19602     19605     19608
     19600     19599     19602     19603     19600     19599     19602     19604
     19600     19599     19602     19605     19601     19599     19602     19603
     19601     19599     19602     19604     19601     19599     19602     19605
     19602     19605     19608     19609     19602     19605     19608     19610
     19602     19605     19608     19611     19603     19602     19605     19606
     19603     19602     19605     19607     19603     19602     19605     19608
     19604     19602     19605     19606     19604     19602     19605     19607
     19604     19602     19605     19608     19605     19608     19611     19612
     19605     19608     19611     19613     19605     19608     19611     19614
     19606     19605     19608     19609     19606     19605     19608     19610
     19606     19605     19608     19611     19607     19605     19608     19609
     19607     19605     19608     19610     19607     19605     19608     19611
     19608     19611     19614     19615     19608     19611     19614     19616
     19608     19611     19614     19617     19609     19608     19611     19612
     19609     19608     19611     19613     19609     19608     19611     19614
     19610     19608     19611     19612     19610     19608     19611     19613
     19610     19608     19611     19614     19611     19614     19617     19618
     19611     19614     19617     19619     19611     19614     19617     19620
     19612     19611     19614     19615     19612     19611     19614     19616
     19612     19611     19614     19617     19613     19611     19614     19615
     19613     19611     19614     19616     19613     19611     19614     19617
     19614     19617     19620     19621     19614     19617     19620     19622
     19614     19617     19620     19623     19615     19614     19617     19618
     19615     19614     19617     19619     19615     19614     19617     19620
     19616     19614     19617     19618     19616     19614     19617     19619
     19616     19614     19617     19620     19617     19620     19623     19624
     19617     19620     19623     19625     19617     19620     19623     19626
     19618     19617     19620     19621     19618     19617     19620     19622
     19618     19617     19620     19623     19619     19617     19620     19621
     19619     19617     19620     19622     19619     19617     19620     19623
     19620     19623     19626     19627     19620     19623     19626     19628
     19620     19623     19626     19629     19621     19620     19623     19624
     19621     19620     19623     19625     19621     19620     19623     19626
     19622     19620     19623     19624     19622     19620     19623     19625
     19622     19620     19623     19626     19623     19626     19629     19630
     19623     19626     19629     19631     19623     19626     19629     19632
     19624     19623     19626     19627     19624     19623     19626     19628
     19624     19623     19626     19629     19625     19623     19626     19627
     19625     19623     19626     19628     19625     19623     19626     19629
     19626     19629     19632     19633     19626     19629     19632     19634
     19626     19629     19632     19635     19627     19626     19629     19630
     19627     19626     19629     19631     19627     19626     19629     19632
     19628     19626     19629     19630     19628     19626     19629     19631
     19628     19626     19629     19632     19629     19632     19635     19636
     19629     19632     19635     19637     19629     19632     19635     19638
     19630     19629     19632     19633     19630     19629     19632     19634
     19630     19629     19632     19635     19631     19629     19632     19633
     19631     19629     19632     19634     19631     19629     19632     19635
     19633     19632     19635     19636     19633     19632     19635     19637
     19633     19632     19635     19638     19634     19632     19635     19636
     19634     19632     19635     19637     19634     19632     19635     19638
     19639     19640     19655     19656     19639     19640     19655     19657
     19639     19640     19655     19661     19640     19639     19643     19644
     19640     19639     19643     19645     19640     19639     19643     19646
     19640     19639     19647     19648     19640     19639     19647     19649
     19640     19639     19647     19650     19640     19639     19651     19652
     19640     19639     19651     19653     19640     19639     19651     19654
     19640     19655     19661     19658     19641     19640     19639     19643
     19641     19640     19639     19647     19641     19640     19639     19651
     19641     19640     19655     19656     19641     19640     19655     19657
     19641     19640     19655     19661     19642     19640     19639     19643
     19642     19640     19639     19647     19642     19640     19639     19651
     19642     19640     19655     19656     19642     19640     19655     19657
     19642     19640     19655     19661     19643     19639     19640     19655
     19643     19639     19647     19648     19643     19639     19647     19649
     19643     19639     19647     19650     19643     19639     19651     19652
     19643     19639     19651     19653     19643     19639     19651     19654
     19644     19643     19639     19647     19644     19643     19639     19651
     19645     19643     19639     19647     19645     19643     19639     19651
     19646     19643     19639     19647     19646     19643     19639     19651
     19647     19639     19640     19655     19647     19639     19651     19652
     19647     19639     19651     19653     19647     19639     19651     19654
     19648     19647     19639     19651     19649     19647     19639     19651
     19650     19647     19639     19651     19651     19639     19640     19655
     19655     19661     19658     19659     19655     19661     19658     19660
     19655     19661     19658     19662     19656     19655     19661     19658
     19657     19655     19661     19658     19658     19662     19663     19664
     19658     19662     19663     19665     19658     19662     19663     19666
     19659     19658     19662     19663     19660     19658     19662     19663
     19661     19658     19662     19663     19662     19663     19666     19667
     19662     19663     19666     19668     19662     19663     19666     19674
     19663     19666     19668     19669     19663     19666     19674     19675
     19663     19666     19674     19676     19663     19666     19674     19677
     19664     19663     19666     19667     19664     19663     19666     19668
     19664     19663     19666     19674     19665     19663     19666     19667
     19665     19663     19666     19668     19665     19663     19666     19674
     19666     19668     19669     19670     19666     19668     19669     19671
     19666     19674     19677     19678     19667     19666     19668     19669
     19667     19666     19674     19675     19667     19666     19674     19676
     19667     19666     19674     19677     19668     19666     19674     19675
     19668     19666     19674     19676     19668     19666     19674     19677
     19668     19669     19671     19672     19668     19669     19671     19673
     19668     19669     19671     19683     19669     19668     19666     19674
     19669     19671     19683     19684     19669     19671     19683     19685
     19669     19671     19683     19686     19670     19669     19671     19672
     19670     19669     19671     19673     19670     19669     19671     19683
     19671     19683     19686     19687     19671     19683     19686     19688
     19671     19683     19686     19689     19672     19671     19683     19684
     19672     19671     19683     19685     19672     19671     19683     19686
     19673     19671     19683     19684     19673     19671     19683     19685
     19673     19671     19683     19686     19674     19677     19678     19679
     19674     19677     19678     19680     19675     19674     19677     19678
     19676     19674     19677     19678     19677     19678     19680     19681
     19677     19678     19680     19682     19677     19678     19680     19730
     19678     19680     19730     19731     19678     19680     19730     19732
     19678     19680     19730     19733     19679     19678     19680     19681
     19679     19678     19680     19682     19679     19678     19680     19730
     19680     19730     19733     19734     19680     19730     19733     19735
     19680     19730     19733     19736     19681     19680     19730     19731
     19681     19680     19730     19732     19681     19680     19730     19733
     19682     19680     19730     19731     19682     19680     19730     19732
     19682     19680     19730     19733     19683     19686     19689     19690
     19683     19686     19689     19691     19683     19686     19689     19692
     19684     19683     19686     19687     19684     19683     19686     19688
     19684     19683     19686     19689     19685     19683     19686     19687
     19685     19683     19686     19688     19685     19683     19686     19689
     19686     19689     19692     19693     19686     19689     19692     19694
     19686     19689     19692     19695     19687     19686     19689     19690
     19687     19686     19689     19691     19687     19686     19689     19692
     19688     19686     19689     19690     19688     19686     19689     19691
     19688     19686     19689     19692     19689     19692     19695     19696
     19689     19692     19695     19697     19689     19692     19695     19698
     19690     19689     19692     19693     19690     19689     19692     19694
     19690     19689     19692     19695     19691     19689     19692     19693
     19691     19689     19692     19694     19691     19689     19692     19695
     19692     19695     19698     19699     19692     19695     19698     19700
     19692     19695     19698     19701     19693     19692     19695     19696
     19693     19692     19695     19697     19693     19692     19695     19698
     19694     19692     19695     19696     19694     19692     19695     19697
     19694     19692     19695     19698     19695     19698     19701     19702
     19695     19698     19701     19703     19696     19695     19698     19699
     19696     19695     19698     19700     19696     19695     19698     19701
     19697     19695     19698     19699     19697     19695     19698     19700
     19697     19695     19698     19701     19698     19701     19703     19704
     19698     19701     19703     19705     19699     19698     19701     19702
     19699     19698     19701     19703     19700     19698     19701     19702
     19700     19698     19701     19703     19701     19703     19705     19706
     19701     19703     19705     19707     19701     19703     19705     19708
     19702     19701     19703     19704     19702     19701     19703     19705
     19703     19705     19708     19709     19703     19705     19708     19710
     19703     19705     19708     19711     19704     19703     19705     19706
     19704     19703     19705     19707     19704     19703     19705     19708
     19705     19708     19711     19712     19705     19708     19711     19713
     19705     19708     19711     19714     19706     19705     19708     19709
     19706     19705     19708     19710     19706     19705     19708     19711
     19707     19705     19708     19709     19707     19705     19708     19710
     19707     19705     19708     19711     19708     19711     19714     19715
     19708     19711     19714     19716     19708     19711     19714     19717
     19709     19708     19711     19712     19709     19708     19711     19713
     19709     19708     19711     19714     19710     19708     19711     19712
     19710     19708     19711     19713     19710     19708     19711     19714
     19711     19714     19717     19718     19711     19714     19717     19719
     19711     19714     19717     19720     19712     19711     19714     19715
     19712     19711     19714     19716     19712     19711     19714     19717
     19713     19711     19714     19715     19713     19711     19714     19716
     19713     19711     19714     19717     19714     19717     19720     19721
     19714     19717     19720     19722     19714     19717     19720     19723
     19715     19714     19717     19718     19715     19714     19717     19719
     19715     19714     19717     19720     19716     19714     19717     19718
     19716     19714     19717     19719     19716     19714     19717     19720
     19717     19720     19723     19724     19717     19720     19723     19725
     19717     19720     19723     19726     19718     19717     19720     19721
     19718     19717     19720     19722     19718     19717     19720     19723
     19719     19717     19720     19721     19719     19717     19720     19722
     19719     19717     19720     19723     19720     19723     19726     19727
     19720     19723     19726     19728     19720     19723     19726     19729
     19721     19720     19723     19724     19721     19720     19723     19725
     19721     19720     19723     19726     19722     19720     19723     19724
     19722     19720     19723     19725     19722     19720     19723     19726
     19724     19723     19726     19727     19724     19723     19726     19728
     19724     19723     19726     19729     19725     19723     19726     19727
     19725     19723     19726     19728     19725     19723     19726     19729
     19730     19733     19736     19737     19730     19733     19736     19738
     19730     19733     19736     19739     19731     19730     19733     19734
     19731     19730     19733     19735     19731     19730     19733     19736
     19732     19730     19733     19734     19732     19730     19733     19735
     19732     19730     19733     19736     19733     19736     19739     19740
     19733     19736     19739     19741     19733     19736     19739     19742
     19734     19733     19736     19737     19734     19733     19736     19738
     19734     19733     19736     19739     19735     19733     19736     19737
     19735     19733     19736     19738     19735     19733     19736     19739
     19736     19739     19742     19743     19736     19739     19742     19744
     19736     19739     19742     19745     19737     19736     19739     19740
     19737     19736     19739     19741     19737     19736     19739     19742
     19738     19736     19739     19740     19738     19736     19739     19741
     19738     19736     19739     19742     19739     19742     19745     19746
     19739     19742     19745     19747     19739     19742     19745     19748
     19740     19739     19742     19743     19740     19739     19742     19744
     19740     19739     19742     19745     19741     19739     19742     19743
     19741     19739     19742     19744     19741     19739     19742     19745
     19742     19745     19748     19749     19742     19745     19748     19750
     19742     19745     19748     19751     19743     19742     19745     19746
     19743     19742     19745     19747     19743     19742     19745     19748
     19744     19742     19745     19746     19744     19742     19745     19747
     19744     19742     19745     19748     19745     19748     19751     19752
     19745     19748     19751     19753     19745     19748     19751     19754
     19746     19745     19748     19749     19746     19745     19748     19750
     19746     19745     19748     19751     19747     19745     19748     19749
     19747     19745     19748     19750     19747     19745     19748     19751
     19748     19751     19754     19755     19748     19751     19754     19756
     19748     19751     19754     19757     19749     19748     19751     19752
     19749     19748     19751     19753     19749     19748     19751     19754
     19750     19748     19751     19752     19750     19748     19751     19753
     19750     19748     19751     19754     19751     19754     19757     19758
     19751     19754     19757     19759     19751     19754     19757     19760
     19752     19751     19754     19755     19752     19751     19754     19756
     19752     19751     19754     19757     19753     19751     19754     19755
     19753     19751     19754     19756     19753     19751     19754     19757
     19754     19757     19760     19761     19754     19757     19760     19762
     19754     19757     19760     19763     19755     19754     19757     19758
     19755     19754     19757     19759     19755     19754     19757     19760
     19756     19754     19757     19758     19756     19754     19757     19759
     19756     19754     19757     19760     19757     19760     19763     19764
     19757     19760     19763     19765     19757     19760     19763     19766
     19758     19757     19760     19761     19758     19757     19760     19762
     19758     19757     19760     19763     19759     19757     19760     19761
     19759     19757     19760     19762     19759     19757     19760     19763
     19760     19763     19766     19767     19760     19763     19766     19768
     19760     19763     19766     19769     19761     19760     19763     19764
     19761     19760     19763     19765     19761     19760     19763     19766
     19762     19760     19763     19764     19762     19760     19763     19765
     19762     19760     19763     19766     19763     19766     19769     19770
     19763     19766     19769     19771     19763     19766     19769     19772
     19764     19763     19766     19767     19764     19763     19766     19768
     19764     19763     19766     19769     19765     19763     19766     19767
     19765     19763     19766     19768     19765     19763     19766     19769
     19767     19766     19769     19770     19767     19766     19769     19771
     19767     19766     19769     19772     19768     19766     19769     19770
     19768     19766     19769     19771     19768     19766     19769     19772
     19773     19777     19780     19781     19773     19777     19780     19782
     19773     19777     19780     19787     19774     19773     19777     19778
     19774     19773     19777     19779     19774     19773     19777     19780
     19775     19773     19777     19778     19775     19773     19777     19779
     19775     19773     19777     19780     19776     19773     19777     19778
     19776     19773     19777     19779     19776     19773     19777     19780
     19777     19780     19787     19783     19778     19777     19780     19781
     19778     19777     19780     19782     19778     19777     19780     19787
     19779     19777     19780     19781     19779     19777     19780     19782
     19779     19777     19780     19787     19780     19787     19783     19784
     19780     19787     19783     19785     19780     19787     19783     19786
     19781     19780     19787     19783     19782     19780     19787     19783
     19783     19786     19788     19789     19783     19786     19788     19790
     19783     19786     19788     19791     19784     19783     19786     19788
     19785     19783     19786     19788     19786     19788     19791     19792
     19786     19788     19791     19793     19786     19788     19791     19799
     19787     19783     19786     19788     19788     19791     19793     19794
     19788     19791     19799     19800     19788     19791     19799     19801
     19788     19791     19799     19802     19789     19788     19791     19792
     19789     19788     19791     19793     19789     19788     19791     19799
     19790     19788     19791     19792     19790     19788     19791     19793
     19790     19788     19791     19799     19791     19793     19794     19795
     19791     19793     19794     19796     19791     19799     19802     19803
     19792     19791     19793     19794     19792     19791     19799     19800
     19792     19791     19799     19801     19792     19791     19799     19802
     19793     19791     19799     19800     19793     19791     19799     19801
     19793     19791     19799     19802     19793     19794     19796     19797
     19793     19794     19796     19798     19793     19794     19796     19808
     19794     19793     19791     19799     19794     19796     19808     19809
     19794     19796     19808     19810     19794     19796     19808     19811
     19795     19794     19796     19797     19795     19794     19796     19798
     19795     19794     19796     19808     19796     19808     19811     19812
     19796     19808     19811     19813     19796     19808     19811     19814
     19797     19796     19808     19809     19797     19796     19808     19810
     19797     19796     19808     19811     19798     19796     19808     19809
     19798     19796     19808     19810     19798     19796     19808     19811
     19799     19802     19803     19804     19799     19802     19803     19805
     19800     19799     19802     19803     19801     19799     19802     19803
     19802     19803     19805     19806     19802     19803     19805     19807
     19802     19803     19805     19855     19803     19805     19855     19856
     19803     19805     19855     19857     19803     19805     19855     19858
     19804     19803     19805     19806     19804     19803     19805     19807
     19804     19803     19805     19855     19805     19855     19858     19859
     19805     19855     19858     19860     19805     19855     19858     19861
     19806     19805     19855     19856     19806     19805     19855     19857
     19806     19805     19855     19858     19807     19805     19855     19856
     19807     19805     19855     19857     19807     19805     19855     19858
     19808     19811     19814     19815     19808     19811     19814     19816
     19808     19811     19814     19817     19809     19808     19811     19812
     19809     19808     19811     19813     19809     19808     19811     19814
     19810     19808     19811     19812     19810     19808     19811     19813
     19810     19808     19811     19814     19811     19814     19817     19818
     19811     19814     19817     19819     19811     19814     19817     19820
     19812     19811     19814     19815     19812     19811     19814     19816
     19812     19811     19814     19817     19813     19811     19814     19815
     19813     19811     19814     19816     19813     19811     19814     19817
     19814     19817     19820     19821     19814     19817     19820     19822
     19814     19817     19820     19823     19815     19814     19817     19818
     19815     19814     19817     19819     19815     19814     19817     19820
     19816     19814     19817     19818     19816     19814     19817     19819
     19816     19814     19817     19820     19817     19820     19823     19824
     19817     19820     19823     19825     19817     19820     19823     19826
     19818     19817     19820     19821     19818     19817     19820     19822
     19818     19817     19820     19823     19819     19817     19820     19821
     19819     19817     19820     19822     19819     19817     19820     19823
     19820     19823     19826     19827     19820     19823     19826     19828
     19821     19820     19823     19824     19821     19820     19823     19825
     19821     19820     19823     19826     19822     19820     19823     19824
     19822     19820     19823     19825     19822     19820     19823     19826
     19823     19826     19828     19829     19823     19826     19828     19830
     19824     19823     19826     19827     19824     19823     19826     19828
     19825     19823     19826     19827     19825     19823     19826     19828
     19826     19828     19830     19831     19826     19828     19830     19832
     19826     19828     19830     19833     19827     19826     19828     19829
     19827     19826     19828     19830     19828     19830     19833     19834
     19828     19830     19833     19835     19828     19830     19833     19836
     19829     19828     19830     19831     19829     19828     19830     19832
     19829     19828     19830     19833     19830     19833     19836     19837
     19830     19833     19836     19838     19830     19833     19836     19839
     19831     19830     19833     19834     19831     19830     19833     19835
     19831     19830     19833     19836     19832     19830     19833     19834
     19832     19830     19833     19835     19832     19830     19833     19836
     19833     19836     19839     19840     19833     19836     19839     19841
     19833     19836     19839     19842     19834     19833     19836     19837
     19834     19833     19836     19838     19834     19833     19836     19839
     19835     19833     19836     19837     19835     19833     19836     19838
     19835     19833     19836     19839     19836     19839     19842     19843
     19836     19839     19842     19844     19836     19839     19842     19845
     19837     19836     19839     19840     19837     19836     19839     19841
     19837     19836     19839     19842     19838     19836     19839     19840
     19838     19836     19839     19841     19838     19836     19839     19842
     19839     19842     19845     19846     19839     19842     19845     19847
     19839     19842     19845     19848     19840     19839     19842     19843
     19840     19839     19842     19844     19840     19839     19842     19845
     19841     19839     19842     19843     19841     19839     19842     19844
     19841     19839     19842     19845     19842     19845     19848     19849
     19842     19845     19848     19850     19842     19845     19848     19851
     19843     19842     19845     19846     19843     19842     19845     19847
     19843     19842     19845     19848     19844     19842     19845     19846
     19844     19842     19845     19847     19844     19842     19845     19848
     19845     19848     19851     19852     19845     19848     19851     19853
     19845     19848     19851     19854     19846     19845     19848     19849
     19846     19845     19848     19850     19846     19845     19848     19851
     19847     19845     19848     19849     19847     19845     19848     19850
     19847     19845     19848     19851     19849     19848     19851     19852
     19849     19848     19851     19853     19849     19848     19851     19854
     19850     19848     19851     19852     19850     19848     19851     19853
     19850     19848     19851     19854     19855     19858     19861     19862
     19855     19858     19861     19863     19855     19858     19861     19864
     19856     19855     19858     19859     19856     19855     19858     19860
     19856     19855     19858     19861     19857     19855     19858     19859
     19857     19855     19858     19860     19857     19855     19858     19861
     19858     19861     19864     19865     19858     19861     19864     19866
     19858     19861     19864     19867     19859     19858     19861     19862
     19859     19858     19861     19863     19859     19858     19861     19864
     19860     19858     19861     19862     19860     19858     19861     19863
     19860     19858     19861     19864     19861     19864     19867     19868
     19861     19864     19867     19869     19861     19864     19867     19870
     19862     19861     19864     19865     19862     19861     19864     19866
     19862     19861     19864     19867     19863     19861     19864     19865
     19863     19861     19864     19866     19863     19861     19864     19867
     19864     19867     19870     19871     19864     19867     19870     19872
     19864     19867     19870     19873     19865     19864     19867     19868
     19865     19864     19867     19869     19865     19864     19867     19870
     19866     19864     19867     19868     19866     19864     19867     19869
     19866     19864     19867     19870     19867     19870     19873     19874
     19867     19870     19873     19875     19867     19870     19873     19876
     19868     19867     19870     19871     19868     19867     19870     19872
     19868     19867     19870     19873     19869     19867     19870     19871
     19869     19867     19870     19872     19869     19867     19870     19873
     19870     19873     19876     19877     19870     19873     19876     19878
     19870     19873     19876     19879     19871     19870     19873     19874
     19871     19870     19873     19875     19871     19870     19873     19876
     19872     19870     19873     19874     19872     19870     19873     19875
     19872     19870     19873     19876     19873     19876     19879     19880
     19873     19876     19879     19881     19873     19876     19879     19882
     19874     19873     19876     19877     19874     19873     19876     19878
     19874     19873     19876     19879     19875     19873     19876     19877
     19875     19873     19876     19878     19875     19873     19876     19879
     19876     19879     19882     19883     19876     19879     19882     19884
     19876     19879     19882     19885     19877     19876     19879     19880
     19877     19876     19879     19881     19877     19876     19879     19882
     19878     19876     19879     19880     19878     19876     19879     19881
     19878     19876     19879     19882     19879     19882     19885     19886
     19879     19882     19885     19887     19879     19882     19885     19888
     19880     19879     19882     19883     19880     19879     19882     19884
     19880     19879     19882     19885     19881     19879     19882     19883
     19881     19879     19882     19884     19881     19879     19882     19885
     19882     19885     19888     19889     19882     19885     19888     19890
     19882     19885     19888     19891     19883     19882     19885     19886
     19883     19882     19885     19887     19883     19882     19885     19888
     19884     19882     19885     19886     19884     19882     19885     19887
     19884     19882     19885     19888     19885     19888     19891     19892
     19885     19888     19891     19893     19885     19888     19891     19894
     19886     19885     19888     19889     19886     19885     19888     19890
     19886     19885     19888     19891     19887     19885     19888     19889
     19887     19885     19888     19890     19887     19885     19888     19891
     19888     19891     19894     19895     19888     19891     19894     19896
     19888     19891     19894     19897     19889     19888     19891     19892
     19889     19888     19891     19893     19889     19888     19891     19894
     19890     19888     19891     19892     19890     19888     19891     19893
     19890     19888     19891     19894     19892     19891     19894     19895
     19892     19891     19894     19896     19892     19891     19894     19897
     19893     19891     19894     19895     19893     19891     19894     19896
     19893     19891     19894     19897     19898     19902     19905     19906
     19898     19902     19905     19907     19898     19902     19905     19912
     19899     19898     19902     19903     19899     19898     19902     19904
     19899     19898     19902     19905     19900     19898     19902     19903
     19900     19898     19902     19904     19900     19898     19902     19905
     19901     19898     19902     19903     19901     19898     19902     19904
     19901     19898     19902     19905     19902     19905     19912     19908
     19903     19902     19905     19906     19903     19902     19905     19907
     19903     19902     19905     19912     19904     19902     19905     19906
     19904     19902     19905     19907     19904     19902     19905     19912
     19905     19912     19908     19909     19905     19912     19908     19910
     19905     19912     19908     19911     19906     19905     19912     19908
     19907     19905     19912     19908     19908     19911     19913     19914
     19908     19911     19913     19915     19908     19911     19913     19916
     19909     19908     19911     19913     19910     19908     19911     19913
     19911     19913     19916     19917     19911     19913     19916     19918
     19911     19913     19916     19924     19912     19908     19911     19913
     19913     19916     19918     19919     19913     19916     19924     19925
     19913     19916     19924     19926     19913     19916     19924     19927
     19914     19913     19916     19917     19914     19913     19916     19918
     19914     19913     19916     19924     19915     19913     19916     19917
     19915     19913     19916     19918     19915     19913     19916     19924
     19916     19918     19919     19920     19916     19918     19919     19921
     19916     19924     19927     19928     19917     19916     19918     19919
     19917     19916     19924     19925     19917     19916     19924     19926
     19917     19916     19924     19927     19918     19916     19924     19925
     19918     19916     19924     19926     19918     19916     19924     19927
     19918     19919     19921     19922     19918     19919     19921     19923
     19918     19919     19921     19933     19919     19918     19916     19924
     19919     19921     19933     19934     19919     19921     19933     19935
     19919     19921     19933     19936     19920     19919     19921     19922
     19920     19919     19921     19923     19920     19919     19921     19933
     19921     19933     19936     19937     19921     19933     19936     19938
     19921     19933     19936     19939     19922     19921     19933     19934
     19922     19921     19933     19935     19922     19921     19933     19936
     19923     19921     19933     19934     19923     19921     19933     19935
     19923     19921     19933     19936     19924     19927     19928     19929
     19924     19927     19928     19930     19925     19924     19927     19928
     19926     19924     19927     19928     19927     19928     19930     19931
     19927     19928     19930     19932     19927     19928     19930     19980
     19928     19930     19980     19981     19928     19930     19980     19982
     19928     19930     19980     19983     19929     19928     19930     19931
     19929     19928     19930     19932     19929     19928     19930     19980
     19930     19980     19983     19984     19930     19980     19983     19985
     19930     19980     19983     19986     19931     19930     19980     19981
     19931     19930     19980     19982     19931     19930     19980     19983
     19932     19930     19980     19981     19932     19930     19980     19982
     19932     19930     19980     19983     19933     19936     19939     19940
     19933     19936     19939     19941     19933     19936     19939     19942
     19934     19933     19936     19937     19934     19933     19936     19938
     19934     19933     19936     19939     19935     19933     19936     19937
     19935     19933     19936     19938     19935     19933     19936     19939
     19936     19939     19942     19943     19936     19939     19942     19944
     19936     19939     19942     19945     19937     19936     19939     19940
     19937     19936     19939     19941     19937     19936     19939     19942
     19938     19936     19939     19940     19938     19936     19939     19941
     19938     19936     19939     19942     19939     19942     19945     19946
     19939     19942     19945     19947     19939     19942     19945     19948
     19940     19939     19942     19943     19940     19939     19942     19944
     19940     19939     19942     19945     19941     19939     19942     19943
     19941     19939     19942     19944     19941     19939     19942     19945
     19942     19945     19948     19949     19942     19945     19948     19950
     19942     19945     19948     19951     19943     19942     19945     19946
     19943     19942     19945     19947     19943     19942     19945     19948
     19944     19942     19945     19946     19944     19942     19945     19947
     19944     19942     19945     19948     19945     19948     19951     19952
     19945     19948     19951     19953     19946     19945     19948     19949
     19946     19945     19948     19950     19946     19945     19948     19951
     19947     19945     19948     19949     19947     19945     19948     19950
     19947     19945     19948     19951     19948     19951     19953     19954
     19948     19951     19953     19955     19949     19948     19951     19952
     19949     19948     19951     19953     19950     19948     19951     19952
     19950     19948     19951     19953     19951     19953     19955     19956
     19951     19953     19955     19957     19951     19953     19955     19958
     19952     19951     19953     19954     19952     19951     19953     19955
     19953     19955     19958     19959     19953     19955     19958     19960
     19953     19955     19958     19961     19954     19953     19955     19956
     19954     19953     19955     19957     19954     19953     19955     19958
     19955     19958     19961     19962     19955     19958     19961     19963
     19955     19958     19961     19964     19956     19955     19958     19959
     19956     19955     19958     19960     19956     19955     19958     19961
     19957     19955     19958     19959     19957     19955     19958     19960
     19957     19955     19958     19961     19958     19961     19964     19965
     19958     19961     19964     19966     19958     19961     19964     19967
     19959     19958     19961     19962     19959     19958     19961     19963
     19959     19958     19961     19964     19960     19958     19961     19962
     19960     19958     19961     19963     19960     19958     19961     19964
     19961     19964     19967     19968     19961     19964     19967     19969
     19961     19964     19967     19970     19962     19961     19964     19965
     19962     19961     19964     19966     19962     19961     19964     19967
     19963     19961     19964     19965     19963     19961     19964     19966
     19963     19961     19964     19967     19964     19967     19970     19971
     19964     19967     19970     19972     19964     19967     19970     19973
     19965     19964     19967     19968     19965     19964     19967     19969
     19965     19964     19967     19970     19966     19964     19967     19968
     19966     19964     19967     19969     19966     19964     19967     19970
     19967     19970     19973     19974     19967     19970     19973     19975
     19967     19970     19973     19976     19968     19967     19970     19971
     19968     19967     19970     19972     19968     19967     19970     19973
     19969     19967     19970     19971     19969     19967     19970     19972
     19969     19967     19970     19973     19970     19973     19976     19977
     19970     19973     19976     19978     19970     19973     19976     19979
     19971     19970     19973     19974     19971     19970     19973     19975
     19971     19970     19973     19976     19972     19970     19973     19974
     19972     19970     19973     19975     19972     19970     19973     19976
     19974     19973     19976     19977     19974     19973     19976     19978
     19974     19973     19976     19979     19975     19973     19976     19977
     19975     19973     19976     19978     19975     19973     19976     19979
     19980     19983     19986     19987     19980     19983     19986     19988
     19980     19983     19986     19989     19981     19980     19983     19984
     19981     19980     19983     19985     19981     19980     19983     19986
     19982     19980     19983     19984     19982     19980     19983     19985
     19982     19980     19983     19986     19983     19986     19989     19990
     19983     19986     19989     19991     19983     19986     19989     19992
     19984     19983     19986     19987     19984     19983     19986     19988
     19984     19983     19986     19989     19985     19983     19986     19987
     19985     19983     19986     19988     19985     19983     19986     19989
     19986     19989     19992     19993     19986     19989     19992     19994
     19986     19989     19992     19995     19987     19986     19989     19990
     19987     19986     19989     19991     19987     19986     19989     19992
     19988     19986     19989     19990     19988     19986     19989     19991
     19988     19986     19989     19992     19989     19992     19995     19996
     19989     19992     19995     19997     19989     19992     19995     19998
     19990     19989     19992     19993     19990     19989     19992     19994
     19990     19989     19992     19995     19991     19989     19992     19993
     19991     19989     19992     19994     19991     19989     19992     19995
     19992     19995     19998     19999     19992     19995     19998     20000
     19992     19995     19998     20001     19993     19992     19995     19996
     19993     19992     19995     19997     19993     19992     19995     19998
     19994     19992     19995     19996     19994     19992     19995     19997
     19994     19992     19995     19998     19995     19998     20001     20002
     19995     19998     20001     20003     19995     19998     20001     20004
     19996     19995     19998     19999     19996     19995     19998     20000
     19996     19995     19998     20001     19997     19995     19998     19999
     19997     19995     19998     20000     19997     19995     19998     20001
     19998     20001     20004     20005     19998     20001     20004     20006
     19998     20001     20004     20007     19999     19998     20001     20002
     19999     19998     20001     20003     19999     19998     20001     20004
     20000     19998     20001     20002     20000     19998     20001     20003
     20000     19998     20001     20004     20001     20004     20007     20008
     20001     20004     20007     20009     20001     20004     20007     20010
     20002     20001     20004     20005     20002     20001     20004     20006
     20002     20001     20004     20007     20003     20001     20004     20005
     20003     20001     20004     20006     20003     20001     20004     20007
     20004     20007     20010     20011     20004     20007     20010     20012
     20004     20007     20010     20013     20005     20004     20007     20008
     20005     20004     20007     20009     20005     20004     20007     20010
     20006     20004     20007     20008     20006     20004     20007     20009
     20006     20004     20007     20010     20007     20010     20013     20014
     20007     20010     20013     20015     20007     20010     20013     20016
     20008     20007     20010     20011     20008     20007     20010     20012
     20008     20007     20010     20013     20009     20007     20010     20011
     20009     20007     20010     20012     20009     20007     20010     20013
     20010     20013     20016     20017     20010     20013     20016     20018
     20010     20013     20016     20019     20011     20010     20013     20014
     20011     20010     20013     20015     20011     20010     20013     20016
     20012     20010     20013     20014     20012     20010     20013     20015
     20012     20010     20013     20016     20013     20016     20019     20020
     20013     20016     20019     20021     20013     20016     20019     20022
     20014     20013     20016     20017     20014     20013     20016     20018
     20014     20013     20016     20019     20015     20013     20016     20017
     20015     20013     20016     20018     20015     20013     20016     20019
     20017     20016     20019     20020     20017     20016     20019     20021
     20017     20016     20019     20022     20018     20016     20019     20020
     20018     20016     20019     20021     20018     20016     20019     20022
     20023     20024     20039     20040     20023     20024     20039     20041
     20023     20024     20039     20045     20024     20023     20027     20028
     20024     20023     20027     20029     20024     20023     20027     20030
     20024     20023     20031     20032     20024     20023     20031     20033
     20024     20023     20031     20034     20024     20023     20035     20036
     20024     20023     20035     20037     20024     20023     20035     20038
     20024     20039     20045     20042     20025     20024     20023     20027
     20025     20024     20023     20031     20025     20024     20023     20035
     20025     20024     20039     20040     20025     20024     20039     20041
     20025     20024     20039     20045     20026     20024     20023     20027
     20026     20024     20023     20031     20026     20024     20023     20035
     20026     20024     20039     20040     20026     20024     20039     20041
     20026     20024     20039     20045     20027     20023     20024     20039
     20027     20023     20031     20032     20027     20023     20031     20033
     20027     20023     20031     20034     20027     20023     20035     20036
     20027     20023     20035     20037     20027     20023     20035     20038
     20028     20027     20023     20031     20028     20027     20023     20035
     20029     20027     20023     20031     20029     20027     20023     20035
     20030     20027     20023     20031     20030     20027     20023     20035
     20031     20023     20024     20039     20031     20023     20035     20036
     20031     20023     20035     20037     20031     20023     20035     20038
     20032     20031     20023     20035     20033     20031     20023     20035
     20034     20031     20023     20035     20035     20023     20024     20039
     20039     20045     20042     20043     20039     20045     20042     20044
     20039     20045     20042     20046     20040     20039     20045     20042
     20041     20039     20045     20042     20042     20046     20047     20048
     20042     20046     20047     20049     20042     20046     20047     20050
     20043     20042     20046     20047     20044     20042     20046     20047
     20045     20042     20046     20047     20046     20047     20050     20051
     20046     20047     20050     20052     20046     20047     20050     20058
     20047     20050     20052     20053     20047     20050     20058     20059
     20047     20050     20058     20060     20047     20050     20058     20061
     20048     20047     20050     20051     20048     20047     20050     20052
     20048     20047     20050     20058     20049     20047     20050     20051
     20049     20047     20050     20052     20049     20047     20050     20058
     20050     20052     20053     20054     20050     20052     20053     20055
     20050     20058     20061     20062     20051     20050     20052     20053
     20051     20050     20058     20059     20051     20050     20058     20060
     20051     20050     20058     20061     20052     20050     20058     20059
     20052     20050     20058     20060     20052     20050     20058     20061
     20052     20053     20055     20056     20052     20053     20055     20057
     20052     20053     20055     20067     20053     20052     20050     20058
     20053     20055     20067     20068     20053     20055     20067     20069
     20053     20055     20067     20070     20054     20053     20055     20056
     20054     20053     20055     20057     20054     20053     20055     20067
     20055     20067     20070     20071     20055     20067     20070     20072
     20055     20067     20070     20073     20056     20055     20067     20068
     20056     20055     20067     20069     20056     20055     20067     20070
     20057     20055     20067     20068     20057     20055     20067     20069
     20057     20055     20067     20070     20058     20061     20062     20063
     20058     20061     20062     20064     20059     20058     20061     20062
     20060     20058     20061     20062     20061     20062     20064     20065
     20061     20062     20064     20066     20061     20062     20064     20114
     20062     20064     20114     20115     20062     20064     20114     20116
     20062     20064     20114     20117     20063     20062     20064     20065
     20063     20062     20064     20066     20063     20062     20064     20114
     20064     20114     20117     20118     20064     20114     20117     20119
     20064     20114     20117     20120     20065     20064     20114     20115
     20065     20064     20114     20116     20065     20064     20114     20117
     20066     20064     20114     20115     20066     20064     20114     20116
     20066     20064     20114     20117     20067     20070     20073     20074
     20067     20070     20073     20075     20067     20070     20073     20076
     20068     20067     20070     20071     20068     20067     20070     20072
     20068     20067     20070     20073     20069     20067     20070     20071
     20069     20067     20070     20072     20069     20067     20070     20073
     20070     20073     20076     20077     20070     20073     20076     20078
     20070     20073     20076     20079     20071     20070     20073     20074
     20071     20070     20073     20075     20071     20070     20073     20076
     20072     20070     20073     20074     20072     20070     20073     20075
     20072     20070     20073     20076     20073     20076     20079     20080
     20073     20076     20079     20081     20073     20076     20079     20082
     20074     20073     20076     20077     20074     20073     20076     20078
     20074     20073     20076     20079     20075     20073     20076     20077
     20075     20073     20076     20078     20075     20073     20076     20079
     20076     20079     20082     20083     20076     20079     20082     20084
     20076     20079     20082     20085     20077     20076     20079     20080
     20077     20076     20079     20081     20077     20076     20079     20082
     20078     20076     20079     20080     20078     20076     20079     20081
     20078     20076     20079     20082     20079     20082     20085     20086
     20079     20082     20085     20087     20080     20079     20082     20083
     20080     20079     20082     20084     20080     20079     20082     20085
     20081     20079     20082     20083     20081     20079     20082     20084
     20081     20079     20082     20085     20082     20085     20087     20088
     20082     20085     20087     20089     20083     20082     20085     20086
     20083     20082     20085     20087     20084     20082     20085     20086
     20084     20082     20085     20087     20085     20087     20089     20090
     20085     20087     20089     20091     20085     20087     20089     20092
     20086     20085     20087     20088     20086     20085     20087     20089
     20087     20089     20092     20093     20087     20089     20092     20094
     20087     20089     20092     20095     20088     20087     20089     20090
     20088     20087     20089     20091     20088     20087     20089     20092
     20089     20092     20095     20096     20089     20092     20095     20097
     20089     20092     20095     20098     20090     20089     20092     20093
     20090     20089     20092     20094     20090     20089     20092     20095
     20091     20089     20092     20093     20091     20089     20092     20094
     20091     20089     20092     20095     20092     20095     20098     20099
     20092     20095     20098     20100     20092     20095     20098     20101
     20093     20092     20095     20096     20093     20092     20095     20097
     20093     20092     20095     20098     20094     20092     20095     20096
     20094     20092     20095     20097     20094     20092     20095     20098
     20095     20098     20101     20102     20095     20098     20101     20103
     20095     20098     20101     20104     20096     20095     20098     20099
     20096     20095     20098     20100     20096     20095     20098     20101
     20097     20095     20098     20099     20097     20095     20098     20100
     20097     20095     20098     20101     20098     20101     20104     20105
     20098     20101     20104     20106     20098     20101     20104     20107
     20099     20098     20101     20102     20099     20098     20101     20103
     20099     20098     20101     20104     20100     20098     20101     20102
     20100     20098     20101     20103     20100     20098     20101     20104
     20101     20104     20107     20108     20101     20104     20107     20109
     20101     20104     20107     20110     20102     20101     20104     20105
     20102     20101     20104     20106     20102     20101     20104     20107
     20103     20101     20104     20105     20103     20101     20104     20106
     20103     20101     20104     20107     20104     20107     20110     20111
     20104     20107     20110     20112     20104     20107     20110     20113
     20105     20104     20107     20108     20105     20104     20107     20109
     20105     20104     20107     20110     20106     20104     20107     20108
     20106     20104     20107     20109     20106     20104     20107     20110
     20108     20107     20110     20111     20108     20107     20110     20112
     20108     20107     20110     20113     20109     20107     20110     20111
     20109     20107     20110     20112     20109     20107     20110     20113
     20114     20117     20120     20121     20114     20117     20120     20122
     20114     20117     20120     20123     20115     20114     20117     20118
     20115     20114     20117     20119     20115     20114     20117     20120
     20116     20114     20117     20118     20116     20114     20117     20119
     20116     20114     20117     20120     20117     20120     20123     20124
     20117     20120     20123     20125     20117     20120     20123     20126
     20118     20117     20120     20121     20118     20117     20120     20122
     20118     20117     20120     20123     20119     20117     20120     20121
     20119     20117     20120     20122     20119     20117     20120     20123
     20120     20123     20126     20127     20120     20123     20126     20128
     20120     20123     20126     20129     20121     20120     20123     20124
     20121     20120     20123     20125     20121     20120     20123     20126
     20122     20120     20123     20124     20122     20120     20123     20125
     20122     20120     20123     20126     20123     20126     20129     20130
     20123     20126     20129     20131     20123     20126     20129     20132
     20124     20123     20126     20127     20124     20123     20126     20128
     20124     20123     20126     20129     20125     20123     20126     20127
     20125     20123     20126     20128     20125     20123     20126     20129
     20126     20129     20132     20133     20126     20129     20132     20134
     20126     20129     20132     20135     20127     20126     20129     20130
     20127     20126     20129     20131     20127     20126     20129     20132
     20128     20126     20129     20130     20128     20126     20129     20131
     20128     20126     20129     20132     20129     20132     20135     20136
     20129     20132     20135     20137     20129     20132     20135     20138
     20130     20129     20132     20133     20130     20129     20132     20134
     20130     20129     20132     20135     20131     20129     20132     20133
     20131     20129     20132     20134     20131     20129     20132     20135
     20132     20135     20138     20139     20132     20135     20138     20140
     20132     20135     20138     20141     20133     20132     20135     20136
     20133     20132     20135     20137     20133     20132     20135     20138
     20134     20132     20135     20136     20134     20132     20135     20137
     20134     20132     20135     20138     20135     20138     20141     20142
     20135     20138     20141     20143     20135     20138     20141     20144
     20136     20135     20138     20139     20136     20135     20138     20140
     20136     20135     20138     20141     20137     20135     20138     20139
     20137     20135     20138     20140     20137     20135     20138     20141
     20138     20141     20144     20145     20138     20141     20144     20146
     20138     20141     20144     20147     20139     20138     20141     20142
     20139     20138     20141     20143     20139     20138     20141     20144
     20140     20138     20141     20142     20140     20138     20141     20143
     20140     20138     20141     20144     20141     20144     20147     20148
     20141     20144     20147     20149     20141     20144     20147     20150
     20142     20141     20144     20145     20142     20141     20144     20146
     20142     20141     20144     20147     20143     20141     20144     20145
     20143     20141     20144     20146     20143     20141     20144     20147
     20144     20147     20150     20151     20144     20147     20150     20152
     20144     20147     20150     20153     20145     20144     20147     20148
     20145     20144     20147     20149     20145     20144     20147     20150
     20146     20144     20147     20148     20146     20144     20147     20149
     20146     20144     20147     20150     20147     20150     20153     20154
     20147     20150     20153     20155     20147     20150     20153     20156
     20148     20147     20150     20151     20148     20147     20150     20152
     20148     20147     20150     20153     20149     20147     20150     20151
     20149     20147     20150     20152     20149     20147     20150     20153
     20151     20150     20153     20154     20151     20150     20153     20155
     20151     20150     20153     20156     20152     20150     20153     20154
     20152     20150     20153     20155     20152     20150     20153     20156
     20157     20158     20173     20174     20157     20158     20173     20175
     20157     20158     20173     20179     20158     20157     20161     20162
     20158     20157     20161     20163     20158     20157     20161     20164
     20158     20157     20165     20166     20158     20157     20165     20167
     20158     20157     20165     20168     20158     20157     20169     20170
     20158     20157     20169     20171     20158     20157     20169     20172
     20158     20173     20179     20176     20159     20158     20157     20161
     20159     20158     20157     20165     20159     20158     20157     20169
     20159     20158     20173     20174     20159     20158     20173     20175
     20159     20158     20173     20179     20160     20158     20157     20161
     20160     20158     20157     20165     20160     20158     20157     20169
     20160     20158     20173     20174     20160     20158     20173     20175
     20160     20158     20173     20179     20161     20157     20158     20173
     20161     20157     20165     20166     20161     20157     20165     20167
     20161     20157     20165     20168     20161     20157     20169     20170
     20161     20157     20169     20171     20161     20157     20169     20172
     20162     20161     20157     20165     20162     20161     20157     20169
     20163     20161     20157     20165     20163     20161     20157     20169
     20164     20161     20157     20165     20164     20161     20157     20169
     20165     20157     20158     20173     20165     20157     20169     20170
     20165     20157     20169     20171     20165     20157     20169     20172
     20166     20165     20157     20169     20167     20165     20157     20169
     20168     20165     20157     20169     20169     20157     20158     20173
     20173     20179     20176     20177     20173     20179     20176     20178
     20173     20179     20176     20180     20174     20173     20179     20176
     20175     20173     20179     20176     20176     20180     20181     20182
     20176     20180     20181     20183     20176     20180     20181     20184
     20177     20176     20180     20181     20178     20176     20180     20181
     20179     20176     20180     20181     20180     20181     20184     20185
     20180     20181     20184     20186     20180     20181     20184     20192
     20181     20184     20186     20187     20181     20184     20192     20193
     20181     20184     20192     20194     20181     20184     20192     20195
     20182     20181     20184     20185     20182     20181     20184     20186
     20182     20181     20184     20192     20183     20181     20184     20185
     20183     20181     20184     20186     20183     20181     20184     20192
     20184     20186     20187     20188     20184     20186     20187     20189
     20184     20192     20195     20196     20185     20184     20186     20187
     20185     20184     20192     20193     20185     20184     20192     20194
     20185     20184     20192     20195     20186     20184     20192     20193
     20186     20184     20192     20194     20186     20184     20192     20195
     20186     20187     20189     20190     20186     20187     20189     20191
     20186     20187     20189     20201     20187     20186     20184     20192
     20187     20189     20201     20202     20187     20189     20201     20203
     20187     20189     20201     20204     20188     20187     20189     20190
     20188     20187     20189     20191     20188     20187     20189     20201
     20189     20201     20204     20205     20189     20201     20204     20206
     20189     20201     20204     20207     20190     20189     20201     20202
     20190     20189     20201     20203     20190     20189     20201     20204
     20191     20189     20201     20202     20191     20189     20201     20203
     20191     20189     20201     20204     20192     20195     20196     20197
     20192     20195     20196     20198     20193     20192     20195     20196
     20194     20192     20195     20196     20195     20196     20198     20199
     20195     20196     20198     20200     20195     20196     20198     20248
     20196     20198     20248     20249     20196     20198     20248     20250
     20196     20198     20248     20251     20197     20196     20198     20199
     20197     20196     20198     20200     20197     20196     20198     20248
     20198     20248     20251     20252     20198     20248     20251     20253
     20198     20248     20251     20254     20199     20198     20248     20249
     20199     20198     20248     20250     20199     20198     20248     20251
     20200     20198     20248     20249     20200     20198     20248     20250
     20200     20198     20248     20251     20201     20204     20207     20208
     20201     20204     20207     20209     20201     20204     20207     20210
     20202     20201     20204     20205     20202     20201     20204     20206
     20202     20201     20204     20207     20203     20201     20204     20205
     20203     20201     20204     20206     20203     20201     20204     20207
     20204     20207     20210     20211     20204     20207     20210     20212
     20204     20207     20210     20213     20205     20204     20207     20208
     20205     20204     20207     20209     20205     20204     20207     20210
     20206     20204     20207     20208     20206     20204     20207     20209
     20206     20204     20207     20210     20207     20210     20213     20214
     20207     20210     20213     20215     20207     20210     20213     20216
     20208     20207     20210     20211     20208     20207     20210     20212
     20208     20207     20210     20213     20209     20207     20210     20211
     20209     20207     20210     20212     20209     20207     20210     20213
     20210     20213     20216     20217     20210     20213     20216     20218
     20210     20213     20216     20219     20211     20210     20213     20214
     20211     20210     20213     20215     20211     20210     20213     20216
     20212     20210     20213     20214     20212     20210     20213     20215
     20212     20210     20213     20216     20213     20216     20219     20220
     20213     20216     20219     20221     20214     20213     20216     20217
     20214     20213     20216     20218     20214     20213     20216     20219
     20215     20213     20216     20217     20215     20213     20216     20218
     20215     20213     20216     20219     20216     20219     20221     20222
     20216     20219     20221     20223     20217     20216     20219     20220
     20217     20216     20219     20221     20218     20216     20219     20220
     20218     20216     20219     20221     20219     20221     20223     20224
     20219     20221     20223     20225     20219     20221     20223     20226
     20220     20219     20221     20222     20220     20219     20221     20223
     20221     20223     20226     20227     20221     20223     20226     20228
     20221     20223     20226     20229     20222     20221     20223     20224
     20222     20221     20223     20225     20222     20221     20223     20226
     20223     20226     20229     20230     20223     20226     20229     20231
     20223     20226     20229     20232     20224     20223     20226     20227
     20224     20223     20226     20228     20224     20223     20226     20229
     20225     20223     20226     20227     20225     20223     20226     20228
     20225     20223     20226     20229     20226     20229     20232     20233
     20226     20229     20232     20234     20226     20229     20232     20235
     20227     20226     20229     20230     20227     20226     20229     20231
     20227     20226     20229     20232     20228     20226     20229     20230
     20228     20226     20229     20231     20228     20226     20229     20232
     20229     20232     20235     20236     20229     20232     20235     20237
     20229     20232     20235     20238     20230     20229     20232     20233
     20230     20229     20232     20234     20230     20229     20232     20235
     20231     20229     20232     20233     20231     20229     20232     20234
     20231     20229     20232     20235     20232     20235     20238     20239
     20232     20235     20238     20240     20232     20235     20238     20241
     20233     20232     20235     20236     20233     20232     20235     20237
     20233     20232     20235     20238     20234     20232     20235     20236
     20234     20232     20235     20237     20234     20232     20235     20238
     20235     20238     20241     20242     20235     20238     20241     20243
     20235     20238     20241     20244     20236     20235     20238     20239
     20236     20235     20238     20240     20236     20235     20238     20241
     20237     20235     20238     20239     20237     20235     20238     20240
     20237     20235     20238     20241     20238     20241     20244     20245
     20238     20241     20244     20246     20238     20241     20244     20247
     20239     20238     20241     20242     20239     20238     20241     20243
     20239     20238     20241     20244     20240     20238     20241     20242
     20240     20238     20241     20243     20240     20238     20241     20244
     20242     20241     20244     20245     20242     20241     20244     20246
     20242     20241     20244     20247     20243     20241     20244     20245
     20243     20241     20244     20246     20243     20241     20244     20247
     20248     20251     20254     20255     20248     20251     20254     20256
     20248     20251     20254     20257     20249     20248     20251     20252
     20249     20248     20251     20253     20249     20248     20251     20254
     20250     20248     20251     20252     20250     20248     20251     20253
     20250     20248     20251     20254     20251     20254     20257     20258
     20251     20254     20257     20259     20251     20254     20257     20260
     20252     20251     20254     20255     20252     20251     20254     20256
     20252     20251     20254     20257     20253     20251     20254     20255
     20253     20251     20254     20256     20253     20251     20254     20257
     20254     20257     20260     20261     20254     20257     20260     20262
     20254     20257     20260     20263     20255     20254     20257     20258
     20255     20254     20257     20259     20255     20254     20257     20260
     20256     20254     20257     20258     20256     20254     20257     20259
     20256     20254     20257     20260     20257     20260     20263     20264
     20257     20260     20263     20265     20257     20260     20263     20266
     20258     20257     20260     20261     20258     20257     20260     20262
     20258     20257     20260     20263     20259     20257     20260     20261
     20259     20257     20260     20262     20259     20257     20260     20263
     20260     20263     20266     20267     20260     20263     20266     20268
     20260     20263     20266     20269     20261     20260     20263     20264
     20261     20260     20263     20265     20261     20260     20263     20266
     20262     20260     20263     20264     20262     20260     20263     20265
     20262     20260     20263     20266     20263     20266     20269     20270
     20263     20266     20269     20271     20263     20266     20269     20272
     20264     20263     20266     20267     20264     20263     20266     20268
     20264     20263     20266     20269     20265     20263     20266     20267
     20265     20263     20266     20268     20265     20263     20266     20269
     20266     20269     20272     20273     20266     20269     20272     20274
     20266     20269     20272     20275     20267     20266     20269     20270
     20267     20266     20269     20271     20267     20266     20269     20272
     20268     20266     20269     20270     20268     20266     20269     20271
     20268     20266     20269     20272     20269     20272     20275     20276
     20269     20272     20275     20277     20269     20272     20275     20278
     20270     20269     20272     20273     20270     20269     20272     20274
     20270     20269     20272     20275     20271     20269     20272     20273
     20271     20269     20272     20274     20271     20269     20272     20275
     20272     20275     20278     20279     20272     20275     20278     20280
     20272     20275     20278     20281     20273     20272     20275     20276
     20273     20272     20275     20277     20273     20272     20275     20278
     20274     20272     20275     20276     20274     20272     20275     20277
     20274     20272     20275     20278     20275     20278     20281     20282
     20275     20278     20281     20283     20275     20278     20281     20284
     20276     20275     20278     20279     20276     20275     20278     20280
     20276     20275     20278     20281     20277     20275     20278     20279
     20277     20275     20278     20280     20277     20275     20278     20281
     20278     20281     20284     20285     20278     20281     20284     20286
     20278     20281     20284     20287     20279     20278     20281     20282
     20279     20278     20281     20283     20279     20278     20281     20284
     20280     20278     20281     20282     20280     20278     20281     20283
     20280     20278     20281     20284     20281     20284     20287     20288
     20281     20284     20287     20289     20281     20284     20287     20290
     20282     20281     20284     20285     20282     20281     20284     20286
     20282     20281     20284     20287     20283     20281     20284     20285
     20283     20281     20284     20286     20283     20281     20284     20287
     20285     20284     20287     20288     20285     20284     20287     20289
     20285     20284     20287     20290     20286     20284     20287     20288
     20286     20284     20287     20289     20286     20284     20287     20290
     20291     20295     20298     20299     20291     20295     20298     20300
     20291     20295     20298     20305     20292     20291     20295     20296
     20292     20291     20295     20297     20292     20291     20295     20298
     20293     20291     20295     20296     20293     20291     20295     20297
     20293     20291     20295     20298     20294     20291     20295     20296
     20294     20291     20295     20297     20294     20291     20295     20298
     20295     20298     20305     20301     20296     20295     20298     20299
     20296     20295     20298     20300     20296     20295     20298     20305
     20297     20295     20298     20299     20297     20295     20298     20300
     20297     20295     20298     20305     20298     20305     20301     20302
     20298     20305     20301     20303     20298     20305     20301     20304
     20299     20298     20305     20301     20300     20298     20305     20301
     20301     20304     20306     20307     20301     20304     20306     20308
     20301     20304     20306     20309     20302     20301     20304     20306
     20303     20301     20304     20306     20304     20306     20309     20310
     20304     20306     20309     20311     20304     20306     20309     20317
     20305     20301     20304     20306     20306     20309     20311     20312
     20306     20309     20317     20318     20306     20309     20317     20319
     20306     20309     20317     20320     20307     20306     20309     20310
     20307     20306     20309     20311     20307     20306     20309     20317
     20308     20306     20309     20310     20308     20306     20309     20311
     20308     20306     20309     20317     20309     20311     20312     20313
     20309     20311     20312     20314     20309     20317     20320     20321
     20310     20309     20311     20312     20310     20309     20317     20318
     20310     20309     20317     20319     20310     20309     20317     20320
     20311     20309     20317     20318     20311     20309     20317     20319
     20311     20309     20317     20320     20311     20312     20314     20315
     20311     20312     20314     20316     20311     20312     20314     20326
     20312     20311     20309     20317     20312     20314     20326     20327
     20312     20314     20326     20328     20312     20314     20326     20329
     20313     20312     20314     20315     20313     20312     20314     20316
     20313     20312     20314     20326     20314     20326     20329     20330
     20314     20326     20329     20331     20314     20326     20329     20332
     20315     20314     20326     20327     20315     20314     20326     20328
     20315     20314     20326     20329     20316     20314     20326     20327
     20316     20314     20326     20328     20316     20314     20326     20329
     20317     20320     20321     20322     20317     20320     20321     20323
     20318     20317     20320     20321     20319     20317     20320     20321
     20320     20321     20323     20324     20320     20321     20323     20325
     20320     20321     20323     20373     20321     20323     20373     20374
     20321     20323     20373     20375     20321     20323     20373     20376
     20322     20321     20323     20324     20322     20321     20323     20325
     20322     20321     20323     20373     20323     20373     20376     20377
     20323     20373     20376     20378     20323     20373     20376     20379
     20324     20323     20373     20374     20324     20323     20373     20375
     20324     20323     20373     20376     20325     20323     20373     20374
     20325     20323     20373     20375     20325     20323     20373     20376
     20326     20329     20332     20333     20326     20329     20332     20334
     20326     20329     20332     20335     20327     20326     20329     20330
     20327     20326     20329     20331     20327     20326     20329     20332
     20328     20326     20329     20330     20328     20326     20329     20331
     20328     20326     20329     20332     20329     20332     20335     20336
     20329     20332     20335     20337     20329     20332     20335     20338
     20330     20329     20332     20333     20330     20329     20332     20334
     20330     20329     20332     20335     20331     20329     20332     20333
     20331     20329     20332     20334     20331     20329     20332     20335
     20332     20335     20338     20339     20332     20335     20338     20340
     20332     20335     20338     20341     20333     20332     20335     20336
     20333     20332     20335     20337     20333     20332     20335     20338
     20334     20332     20335     20336     20334     20332     20335     20337
     20334     20332     20335     20338     20335     20338     20341     20342
     20335     20338     20341     20343     20335     20338     20341     20344
     20336     20335     20338     20339     20336     20335     20338     20340
     20336     20335     20338     20341     20337     20335     20338     20339
     20337     20335     20338     20340     20337     20335     20338     20341
     20338     20341     20344     20345     20338     20341     20344     20346
     20339     20338     20341     20342     20339     20338     20341     20343
     20339     20338     20341     20344     20340     20338     20341     20342
     20340     20338     20341     20343     20340     20338     20341     20344
     20341     20344     20346     20347     20341     20344     20346     20348
     20342     20341     20344     20345     20342     20341     20344     20346
     20343     20341     20344     20345     20343     20341     20344     20346
     20344     20346     20348     20349     20344     20346     20348     20350
     20344     20346     20348     20351     20345     20344     20346     20347
     20345     20344     20346     20348     20346     20348     20351     20352
     20346     20348     20351     20353     20346     20348     20351     20354
     20347     20346     20348     20349     20347     20346     20348     20350
     20347     20346     20348     20351     20348     20351     20354     20355
     20348     20351     20354     20356     20348     20351     20354     20357
     20349     20348     20351     20352     20349     20348     20351     20353
     20349     20348     20351     20354     20350     20348     20351     20352
     20350     20348     20351     20353     20350     20348     20351     20354
     20351     20354     20357     20358     20351     20354     20357     20359
     20351     20354     20357     20360     20352     20351     20354     20355
     20352     20351     20354     20356     20352     20351     20354     20357
     20353     20351     20354     20355     20353     20351     20354     20356
     20353     20351     20354     20357     20354     20357     20360     20361
     20354     20357     20360     20362     20354     20357     20360     20363
     20355     20354     20357     20358     20355     20354     20357     20359
     20355     20354     20357     20360     20356     20354     20357     20358
     20356     20354     20357     20359     20356     20354     20357     20360
     20357     20360     20363     20364     20357     20360     20363     20365
     20357     20360     20363     20366     20358     20357     20360     20361
     20358     20357     20360     20362     20358     20357     20360     20363
     20359     20357     20360     20361     20359     20357     20360     20362
     20359     20357     20360     20363     20360     20363     20366     20367
     20360     20363     20366     20368     20360     20363     20366     20369
     20361     20360     20363     20364     20361     20360     20363     20365
     20361     20360     20363     20366     20362     20360     20363     20364
     20362     20360     20363     20365     20362     20360     20363     20366
     20363     20366     20369     20370     20363     20366     20369     20371
     20363     20366     20369     20372     20364     20363     20366     20367
     20364     20363     20366     20368     20364     20363     20366     20369
     20365     20363     20366     20367     20365     20363     20366     20368
     20365     20363     20366     20369     20367     20366     20369     20370
     20367     20366     20369     20371     20367     20366     20369     20372
     20368     20366     20369     20370     20368     20366     20369     20371
     20368     20366     20369     20372     20373     20376     20379     20380
     20373     20376     20379     20381     20373     20376     20379     20382
     20374     20373     20376     20377     20374     20373     20376     20378
     20374     20373     20376     20379     20375     20373     20376     20377
     20375     20373     20376     20378     20375     20373     20376     20379
     20376     20379     20382     20383     20376     20379     20382     20384
     20376     20379     20382     20385     20377     20376     20379     20380
     20377     20376     20379     20381     20377     20376     20379     20382
     20378     20376     20379     20380     20378     20376     20379     20381
     20378     20376     20379     20382     20379     20382     20385     20386
     20379     20382     20385     20387     20379     20382     20385     20388
     20380     20379     20382     20383     20380     20379     20382     20384
     20380     20379     20382     20385     20381     20379     20382     20383
     20381     20379     20382     20384     20381     20379     20382     20385
     20382     20385     20388     20389     20382     20385     20388     20390
     20382     20385     20388     20391     20383     20382     20385     20386
     20383     20382     20385     20387     20383     20382     20385     20388
     20384     20382     20385     20386     20384     20382     20385     20387
     20384     20382     20385     20388     20385     20388     20391     20392
     20385     20388     20391     20393     20385     20388     20391     20394
     20386     20385     20388     20389     20386     20385     20388     20390
     20386     20385     20388     20391     20387     20385     20388     20389
     20387     20385     20388     20390     20387     20385     20388     20391
     20388     20391     20394     20395     20388     20391     20394     20396
     20388     20391     20394     20397     20389     20388     20391     20392
     20389     20388     20391     20393     20389     20388     20391     20394
     20390     20388     20391     20392     20390     20388     20391     20393
     20390     20388     20391     20394     20391     20394     20397     20398
     20391     20394     20397     20399     20391     20394     20397     20400
     20392     20391     20394     20395     20392     20391     20394     20396
     20392     20391     20394     20397     20393     20391     20394     20395
     20393     20391     20394     20396     20393     20391     20394     20397
     20394     20397     20400     20401     20394     20397     20400     20402
     20394     20397     20400     20403     20395     20394     20397     20398
     20395     20394     20397     20399     20395     20394     20397     20400
     20396     20394     20397     20398     20396     20394     20397     20399
     20396     20394     20397     20400     20397     20400     20403     20404
     20397     20400     20403     20405     20397     20400     20403     20406
     20398     20397     20400     20401     20398     20397     20400     20402
     20398     20397     20400     20403     20399     20397     20400     20401
     20399     20397     20400     20402     20399     20397     20400     20403
     20400     20403     20406     20407     20400     20403     20406     20408
     20400     20403     20406     20409     20401     20400     20403     20404
     20401     20400     20403     20405     20401     20400     20403     20406
     20402     20400     20403     20404     20402     20400     20403     20405
     20402     20400     20403     20406     20403     20406     20409     20410
     20403     20406     20409     20411     20403     20406     20409     20412
     20404     20403     20406     20407     20404     20403     20406     20408
     20404     20403     20406     20409     20405     20403     20406     20407
     20405     20403     20406     20408     20405     20403     20406     20409
     20406     20409     20412     20413     20406     20409     20412     20414
     20406     20409     20412     20415     20407     20406     20409     20410
     20407     20406     20409     20411     20407     20406     20409     20412
     20408     20406     20409     20410     20408     20406     20409     20411
     20408     20406     20409     20412     20410     20409     20412     20413
     20410     20409     20412     20414     20410     20409     20412     20415
     20411     20409     20412     20413     20411     20409     20412     20414
     20411     20409     20412     20415     20416     20417     20432     20433
     20416     20417     20432     20434     20416     20417     20432     20438
     20417     20416     20420     20421     20417     20416     20420     20422
     20417     20416     20420     20423     20417     20416     20424     20425
     20417     20416     20424     20426     20417     20416     20424     20427
     20417     20416     20428     20429     20417     20416     20428     20430
     20417     20416     20428     20431     20417     20432     20438     20435
     20418     20417     20416     20420     20418     20417     20416     20424
     20418     20417     20416     20428     20418     20417     20432     20433
     20418     20417     20432     20434     20418     20417     20432     20438
     20419     20417     20416     20420     20419     20417     20416     20424
     20419     20417     20416     20428     20419     20417     20432     20433
     20419     20417     20432     20434     20419     20417     20432     20438
     20420     20416     20417     20432     20420     20416     20424     20425
     20420     20416     20424     20426     20420     20416     20424     20427
     20420     20416     20428     20429     20420     20416     20428     20430
     20420     20416     20428     20431     20421     20420     20416     20424
     20421     20420     20416     20428     20422     20420     20416     20424
     20422     20420     20416     20428     20423     20420     20416     20424
     20423     20420     20416     20428     20424     20416     20417     20432
     20424     20416     20428     20429     20424     20416     20428     20430
     20424     20416     20428     20431     20425     20424     20416     20428
     20426     20424     20416     20428     20427     20424     20416     20428
     20428     20416     20417     20432     20432     20438     20435     20436
     20432     20438     20435     20437     20432     20438     20435     20439
     20433     20432     20438     20435     20434     20432     20438     20435
     20435     20439     20440     20441     20435     20439     20440     20442
     20435     20439     20440     20443     20436     20435     20439     20440
     20437     20435     20439     20440     20438     20435     20439     20440
     20439     20440     20443     20444     20439     20440     20443     20445
     20439     20440     20443     20451     20440     20443     20445     20446
     20440     20443     20451     20452     20440     20443     20451     20453
     20440     20443     20451     20454     20441     20440     20443     20444
     20441     20440     20443     20445     20441     20440     20443     20451
     20442     20440     20443     20444     20442     20440     20443     20445
     20442     20440     20443     20451     20443     20445     20446     20447
     20443     20445     20446     20448     20443     20451     20454     20455
     20444     20443     20445     20446     20444     20443     20451     20452
     20444     20443     20451     20453     20444     20443     20451     20454
     20445     20443     20451     20452     20445     20443     20451     20453
     20445     20443     20451     20454     20445     20446     20448     20449
     20445     20446     20448     20450     20445     20446     20448     20460
     20446     20445     20443     20451     20446     20448     20460     20461
     20446     20448     20460     20462     20446     20448     20460     20463
     20447     20446     20448     20449     20447     20446     20448     20450
     20447     20446     20448     20460     20448     20460     20463     20464
     20448     20460     20463     20465     20448     20460     20463     20466
     20449     20448     20460     20461     20449     20448     20460     20462
     20449     20448     20460     20463     20450     20448     20460     20461
     20450     20448     20460     20462     20450     20448     20460     20463
     20451     20454     20455     20456     20451     20454     20455     20457
     20452     20451     20454     20455     20453     20451     20454     20455
     20454     20455     20457     20458     20454     20455     20457     20459
     20454     20455     20457     20507     20455     20457     20507     20508
     20455     20457     20507     20509     20455     20457     20507     20510
     20456     20455     20457     20458     20456     20455     20457     20459
     20456     20455     20457     20507     20457     20507     20510     20511
     20457     20507     20510     20512     20457     20507     20510     20513
     20458     20457     20507     20508     20458     20457     20507     20509
     20458     20457     20507     20510     20459     20457     20507     20508
     20459     20457     20507     20509     20459     20457     20507     20510
     20460     20463     20466     20467     20460     20463     20466     20468
     20460     20463     20466     20469     20461     20460     20463     20464
     20461     20460     20463     20465     20461     20460     20463     20466
     20462     20460     20463     20464     20462     20460     20463     20465
     20462     20460     20463     20466     20463     20466     20469     20470
     20463     20466     20469     20471     20463     20466     20469     20472
     20464     20463     20466     20467     20464     20463     20466     20468
     20464     20463     20466     20469     20465     20463     20466     20467
     20465     20463     20466     20468     20465     20463     20466     20469
     20466     20469     20472     20473     20466     20469     20472     20474
     20466     20469     20472     20475     20467     20466     20469     20470
     20467     20466     20469     20471     20467     20466     20469     20472
     20468     20466     20469     20470     20468     20466     20469     20471
     20468     20466     20469     20472     20469     20472     20475     20476
     20469     20472     20475     20477     20469     20472     20475     20478
     20470     20469     20472     20473     20470     20469     20472     20474
     20470     20469     20472     20475     20471     20469     20472     20473
     20471     20469     20472     20474     20471     20469     20472     20475
     20472     20475     20478     20479     20472     20475     20478     20480
     20473     20472     20475     20476     20473     20472     20475     20477
     20473     20472     20475     20478     20474     20472     20475     20476
     20474     20472     20475     20477     20474     20472     20475     20478
     20475     20478     20480     20481     20475     20478     20480     20482
     20476     20475     20478     20479     20476     20475     20478     20480
     20477     20475     20478     20479     20477     20475     20478     20480
     20478     20480     20482     20483     20478     20480     20482     20484
     20478     20480     20482     20485     20479     20478     20480     20481
     20479     20478     20480     20482     20480     20482     20485     20486
     20480     20482     20485     20487     20480     20482     20485     20488
     20481     20480     20482     20483     20481     20480     20482     20484
     20481     20480     20482     20485     20482     20485     20488     20489
     20482     20485     20488     20490     20482     20485     20488     20491
     20483     20482     20485     20486     20483     20482     20485     20487
     20483     20482     20485     20488     20484     20482     20485     20486
     20484     20482     20485     20487     20484     20482     20485     20488
     20485     20488     20491     20492     20485     20488     20491     20493
     20485     20488     20491     20494     20486     20485     20488     20489
     20486     20485     20488     20490     20486     20485     20488     20491
     20487     20485     20488     20489     20487     20485     20488     20490
     20487     20485     20488     20491     20488     20491     20494     20495
     20488     20491     20494     20496     20488     20491     20494     20497
     20489     20488     20491     20492     20489     20488     20491     20493
     20489     20488     20491     20494     20490     20488     20491     20492
     20490     20488     20491     20493     20490     20488     20491     20494
     20491     20494     20497     20498     20491     20494     20497     20499
     20491     20494     20497     20500     20492     20491     20494     20495
     20492     20491     20494     20496     20492     20491     20494     20497
     20493     20491     20494     20495     20493     20491     20494     20496
     20493     20491     20494     20497     20494     20497     20500     20501
     20494     20497     20500     20502     20494     20497     20500     20503
     20495     20494     20497     20498     20495     20494     20497     20499
     20495     20494     20497     20500     20496     20494     20497     20498
     20496     20494     20497     20499     20496     20494     20497     20500
     20497     20500     20503     20504     20497     20500     20503     20505
     20497     20500     20503     20506     20498     20497     20500     20501
     20498     20497     20500     20502     20498     20497     20500     20503
     20499     20497     20500     20501     20499     20497     20500     20502
     20499     20497     20500     20503     20501     20500     20503     20504
     20501     20500     20503     20505     20501     20500     20503     20506
     20502     20500     20503     20504     20502     20500     20503     20505
     20502     20500     20503     20506     20507     20510     20513     20514
     20507     20510     20513     20515     20507     20510     20513     20516
     20508     20507     20510     20511     20508     20507     20510     20512
     20508     20507     20510     20513     20509     20507     20510     20511
     20509     20507     20510     20512     20509     20507     20510     20513
     20510     20513     20516     20517     20510     20513     20516     20518
     20510     20513     20516     20519     20511     20510     20513     20514
     20511     20510     20513     20515     20511     20510     20513     20516
     20512     20510     20513     20514     20512     20510     20513     20515
     20512     20510     20513     20516     20513     20516     20519     20520
     20513     20516     20519     20521     20513     20516     20519     20522
     20514     20513     20516     20517     20514     20513     20516     20518
     20514     20513     20516     20519     20515     20513     20516     20517
     20515     20513     20516     20518     20515     20513     20516     20519
     20516     20519     20522     20523     20516     20519     20522     20524
     20516     20519     20522     20525     20517     20516     20519     20520
     20517     20516     20519     20521     20517     20516     20519     20522
     20518     20516     20519     20520     20518     20516     20519     20521
     20518     20516     20519     20522     20519     20522     20525     20526
     20519     20522     20525     20527     20519     20522     20525     20528
     20520     20519     20522     20523     20520     20519     20522     20524
     20520     20519     20522     20525     20521     20519     20522     20523
     20521     20519     20522     20524     20521     20519     20522     20525
     20522     20525     20528     20529     20522     20525     20528     20530
     20522     20525     20528     20531     20523     20522     20525     20526
     20523     20522     20525     20527     20523     20522     20525     20528
     20524     20522     20525     20526     20524     20522     20525     20527
     20524     20522     20525     20528     20525     20528     20531     20532
     20525     20528     20531     20533     20525     20528     20531     20534
     20526     20525     20528     20529     20526     20525     20528     20530
     20526     20525     20528     20531     20527     20525     20528     20529
     20527     20525     20528     20530     20527     20525     20528     20531
     20528     20531     20534     20535     20528     20531     20534     20536
     20528     20531     20534     20537     20529     20528     20531     20532
     20529     20528     20531     20533     20529     20528     20531     20534
     20530     20528     20531     20532     20530     20528     20531     20533
     20530     20528     20531     20534     20531     20534     20537     20538
     20531     20534     20537     20539     20531     20534     20537     20540
     20532     20531     20534     20535     20532     20531     20534     20536
     20532     20531     20534     20537     20533     20531     20534     20535
     20533     20531     20534     20536     20533     20531     20534     20537
     20534     20537     20540     20541     20534     20537     20540     20542
     20534     20537     20540     20543     20535     20534     20537     20538
     20535     20534     20537     20539     20535     20534     20537     20540
     20536     20534     20537     20538     20536     20534     20537     20539
     20536     20534     20537     20540     20537     20540     20543     20544
     20537     20540     20543     20545     20537     20540     20543     20546
     20538     20537     20540     20541     20538     20537     20540     20542
     20538     20537     20540     20543     20539     20537     20540     20541
     20539     20537     20540     20542     20539     20537     20540     20543
     20540     20543     20546     20547     20540     20543     20546     20548
     20540     20543     20546     20549     20541     20540     20543     20544
     20541     20540     20543     20545     20541     20540     20543     20546
     20542     20540     20543     20544     20542     20540     20543     20545
     20542     20540     20543     20546     20544     20543     20546     20547
     20544     20543     20546     20548     20544     20543     20546     20549
     20545     20543     20546     20547     20545     20543     20546     20548
     20545     20543     20546     20549     20550     20551     20566     20567
     20550     20551     20566     20568     20550     20551     20566     20572
     20551     20550     20554     20555     20551     20550     20554     20556
     20551     20550     20554     20557     20551     20550     20558     20559
     20551     20550     20558     20560     20551     20550     20558     20561
     20551     20550     20562     20563     20551     20550     20562     20564
     20551     20550     20562     20565     20551     20566     20572     20569
     20552     20551     20550     20554     20552     20551     20550     20558
     20552     20551     20550     20562     20552     20551     20566     20567
     20552     20551     20566     20568     20552     20551     20566     20572
     20553     20551     20550     20554     20553     20551     20550     20558
     20553     20551     20550     20562     20553     20551     20566     20567
     20553     20551     20566     20568     20553     20551     20566     20572
     20554     20550     20551     20566     20554     20550     20558     20559
     20554     20550     20558     20560     20554     20550     20558     20561
     20554     20550     20562     20563     20554     20550     20562     20564
     20554     20550     20562     20565     20555     20554     20550     20558
     20555     20554     20550     20562     20556     20554     20550     20558
     20556     20554     20550     20562     20557     20554     20550     20558
     20557     20554     20550     20562     20558     20550     20551     20566
     20558     20550     20562     20563     20558     20550     20562     20564
     20558     20550     20562     20565     20559     20558     20550     20562
     20560     20558     20550     20562     20561     20558     20550     20562
     20562     20550     20551     20566     20566     20572     20569     20570
     20566     20572     20569     20571     20566     20572     20569     20573
     20567     20566     20572     20569     20568     20566     20572     20569
     20569     20573     20574     20575     20569     20573     20574     20576
     20569     20573     20574     20577     20570     20569     20573     20574
     20571     20569     20573     20574     20572     20569     20573     20574
     20573     20574     20577     20578     20573     20574     20577     20579
     20573     20574     20577     20585     20574     20577     20579     20580
     20574     20577     20585     20586     20574     20577     20585     20587
     20574     20577     20585     20588     20575     20574     20577     20578
     20575     20574     20577     20579     20575     20574     20577     20585
     20576     20574     20577     20578     20576     20574     20577     20579
     20576     20574     20577     20585     20577     20579     20580     20581
     20577     20579     20580     20582     20577     20585     20588     20589
     20578     20577     20579     20580     20578     20577     20585     20586
     20578     20577     20585     20587     20578     20577     20585     20588
     20579     20577     20585     20586     20579     20577     20585     20587
     20579     20577     20585     20588     20579     20580     20582     20583
     20579     20580     20582     20584     20579     20580     20582     20594
     20580     20579     20577     20585     20580     20582     20594     20595
     20580     20582     20594     20596     20580     20582     20594     20597
     20581     20580     20582     20583     20581     20580     20582     20584
     20581     20580     20582     20594     20582     20594     20597     20598
     20582     20594     20597     20599     20582     20594     20597     20600
     20583     20582     20594     20595     20583     20582     20594     20596
     20583     20582     20594     20597     20584     20582     20594     20595
     20584     20582     20594     20596     20584     20582     20594     20597
     20585     20588     20589     20590     20585     20588     20589     20591
     20586     20585     20588     20589     20587     20585     20588     20589
     20588     20589     20591     20592     20588     20589     20591     20593
     20588     20589     20591     20641     20589     20591     20641     20642
     20589     20591     20641     20643     20589     20591     20641     20644
     20590     20589     20591     20592     20590     20589     20591     20593
     20590     20589     20591     20641     20591     20641     20644     20645
     20591     20641     20644     20646     20591     20641     20644     20647
     20592     20591     20641     20642     20592     20591     20641     20643
     20592     20591     20641     20644     20593     20591     20641     20642
     20593     20591     20641     20643     20593     20591     20641     20644
     20594     20597     20600     20601     20594     20597     20600     20602
     20594     20597     20600     20603     20595     20594     20597     20598
     20595     20594     20597     20599     20595     20594     20597     20600
     20596     20594     20597     20598     20596     20594     20597     20599
     20596     20594     20597     20600     20597     20600     20603     20604
     20597     20600     20603     20605     20597     20600     20603     20606
     20598     20597     20600     20601     20598     20597     20600     20602
     20598     20597     20600     20603     20599     20597     20600     20601
     20599     20597     20600     20602     20599     20597     20600     20603
     20600     20603     20606     20607     20600     20603     20606     20608
     20600     20603     20606     20609     20601     20600     20603     20604
     20601     20600     20603     20605     20601     20600     20603     20606
     20602     20600     20603     20604     20602     20600     20603     20605
     20602     20600     20603     20606     20603     20606     20609     20610
     20603     20606     20609     20611     20603     20606     20609     20612
     20604     20603     20606     20607     20604     20603     20606     20608
     20604     20603     20606     20609     20605     20603     20606     20607
     20605     20603     20606     20608     20605     20603     20606     20609
     20606     20609     20612     20613     20606     20609     20612     20614
     20607     20606     20609     20610     20607     20606     20609     20611
     20607     20606     20609     20612     20608     20606     20609     20610
     20608     20606     20609     20611     20608     20606     20609     20612
     20609     20612     20614     20615     20609     20612     20614     20616
     20610     20609     20612     20613     20610     20609     20612     20614
     20611     20609     20612     20613     20611     20609     20612     20614
     20612     20614     20616     20617     20612     20614     20616     20618
     20612     20614     20616     20619     20613     20612     20614     20615
     20613     20612     20614     20616     20614     20616     20619     20620
     20614     20616     20619     20621     20614     20616     20619     20622
     20615     20614     20616     20617     20615     20614     20616     20618
     20615     20614     20616     20619     20616     20619     20622     20623
     20616     20619     20622     20624     20616     20619     20622     20625
     20617     20616     20619     20620     20617     20616     20619     20621
     20617     20616     20619     20622     20618     20616     20619     20620
     20618     20616     20619     20621     20618     20616     20619     20622
     20619     20622     20625     20626     20619     20622     20625     20627
     20619     20622     20625     20628     20620     20619     20622     20623
     20620     20619     20622     20624     20620     20619     20622     20625
     20621     20619     20622     20623     20621     20619     20622     20624
     20621     20619     20622     20625     20622     20625     20628     20629
     20622     20625     20628     20630     20622     20625     20628     20631
     20623     20622     20625     20626     20623     20622     20625     20627
     20623     20622     20625     20628     20624     20622     20625     20626
     20624     20622     20625     20627     20624     20622     20625     20628
     20625     20628     20631     20632     20625     20628     20631     20633
     20625     20628     20631     20634     20626     20625     20628     20629
     20626     20625     20628     20630     20626     20625     20628     20631
     20627     20625     20628     20629     20627     20625     20628     20630
     20627     20625     20628     20631     20628     20631     20634     20635
     20628     20631     20634     20636     20628     20631     20634     20637
     20629     20628     20631     20632     20629     20628     20631     20633
     20629     20628     20631     20634     20630     20628     20631     20632
     20630     20628     20631     20633     20630     20628     20631     20634
     20631     20634     20637     20638     20631     20634     20637     20639
     20631     20634     20637     20640     20632     20631     20634     20635
     20632     20631     20634     20636     20632     20631     20634     20637
     20633     20631     20634     20635     20633     20631     20634     20636
     20633     20631     20634     20637     20635     20634     20637     20638
     20635     20634     20637     20639     20635     20634     20637     20640
     20636     20634     20637     20638     20636     20634     20637     20639
     20636     20634     20637     20640     20641     20644     20647     20648
     20641     20644     20647     20649     20641     20644     20647     20650
     20642     20641     20644     20645     20642     20641     20644     20646
     20642     20641     20644     20647     20643     20641     20644     20645
     20643     20641     20644     20646     20643     20641     20644     20647
     20644     20647     20650     20651     20644     20647     20650     20652
     20644     20647     20650     20653     20645     20644     20647     20648
     20645     20644     20647     20649     20645     20644     20647     20650
     20646     20644     20647     20648     20646     20644     20647     20649
     20646     20644     20647     20650     20647     20650     20653     20654
     20647     20650     20653     20655     20647     20650     20653     20656
     20648     20647     20650     20651     20648     20647     20650     20652
     20648     20647     20650     20653     20649     20647     20650     20651
     20649     20647     20650     20652     20649     20647     20650     20653
     20650     20653     20656     20657     20650     20653     20656     20658
     20650     20653     20656     20659     20651     20650     20653     20654
     20651     20650     20653     20655     20651     20650     20653     20656
     20652     20650     20653     20654     20652     20650     20653     20655
     20652     20650     20653     20656     20653     20656     20659     20660
     20653     20656     20659     20661     20653     20656     20659     20662
     20654     20653     20656     20657     20654     20653     20656     20658
     20654     20653     20656     20659     20655     20653     20656     20657
     20655     20653     20656     20658     20655     20653     20656     20659
     20656     20659     20662     20663     20656     20659     20662     20664
     20656     20659     20662     20665     20657     20656     20659     20660
     20657     20656     20659     20661     20657     20656     20659     20662
     20658     20656     20659     20660     20658     20656     20659     20661
     20658     20656     20659     20662     20659     20662     20665     20666
     20659     20662     20665     20667     20659     20662     20665     20668
     20660     20659     20662     20663     20660     20659     20662     20664
     20660     20659     20662     20665     20661     20659     20662     20663
     20661     20659     20662     20664     20661     20659     20662     20665
     20662     20665     20668     20669     20662     20665     20668     20670
     20662     20665     20668     20671     20663     20662     20665     20666
     20663     20662     20665     20667     20663     20662     20665     20668
     20664     20662     20665     20666     20664     20662     20665     20667
     20664     20662     20665     20668     20665     20668     20671     20672
     20665     20668     20671     20673     20665     20668     20671     20674
     20666     20665     20668     20669     20666     20665     20668     20670
     20666     20665     20668     20671     20667     20665     20668     20669
     20667     20665     20668     20670     20667     20665     20668     20671
     20668     20671     20674     20675     20668     20671     20674     20676
     20668     20671     20674     20677     20669     20668     20671     20672
     20669     20668     20671     20673     20669     20668     20671     20674
     20670     20668     20671     20672     20670     20668     20671     20673
     20670     20668     20671     20674     20671     20674     20677     20678
     20671     20674     20677     20679     20671     20674     20677     20680
     20672     20671     20674     20675     20672     20671     20674     20676
     20672     20671     20674     20677     20673     20671     20674     20675
     20673     20671     20674     20676     20673     20671     20674     20677
     20674     20677     20680     20681     20674     20677     20680     20682
     20674     20677     20680     20683     20675     20674     20677     20678
     20675     20674     20677     20679     20675     20674     20677     20680
     20676     20674     20677     20678     20676     20674     20677     20679
     20676     20674     20677     20680     20678     20677     20680     20681
     20678     20677     20680     20682     20678     20677     20680     20683
     20679     20677     20680     20681     20679     20677     20680     20682
     20679     20677     20680     20683     20684     20685     20700     20701
     20684     20685     20700     20702     20684     20685     20700     20706
     20685     20684     20688     20689     20685     20684     20688     20690
     20685     20684     20688     20691     20685     20684     20692     20693
     20685     20684     20692     20694     20685     20684     20692     20695
     20685     20684     20696     20697     20685     20684     20696     20698
     20685     20684     20696     20699     20685     20700     20706     20703
     20686     20685     20684     20688     20686     20685     20684     20692
     20686     20685     20684     20696     20686     20685     20700     20701
     20686     20685     20700     20702     20686     20685     20700     20706
     20687     20685     20684     20688     20687     20685     20684     20692
     20687     20685     20684     20696     20687     20685     20700     20701
     20687     20685     20700     20702     20687     20685     20700     20706
     20688     20684     20685     20700     20688     20684     20692     20693
     20688     20684     20692     20694     20688     20684     20692     20695
     20688     20684     20696     20697     20688     20684     20696     20698
     20688     20684     20696     20699     20689     20688     20684     20692
     20689     20688     20684     20696     20690     20688     20684     20692
     20690     20688     20684     20696     20691     20688     20684     20692
     20691     20688     20684     20696     20692     20684     20685     20700
     20692     20684     20696     20697     20692     20684     20696     20698
     20692     20684     20696     20699     20693     20692     20684     20696
     20694     20692     20684     20696     20695     20692     20684     20696
     20696     20684     20685     20700     20700     20706     20703     20704
     20700     20706     20703     20705     20700     20706     20703     20707
     20701     20700     20706     20703     20702     20700     20706     20703
     20703     20707     20708     20709     20703     20707     20708     20710
     20703     20707     20708     20711     20704     20703     20707     20708
     20705     20703     20707     20708     20706     20703     20707     20708
     20707     20708     20711     20712     20707     20708     20711     20713
     20707     20708     20711     20719     20708     20711     20713     20714
     20708     20711     20719     20720     20708     20711     20719     20721
     20708     20711     20719     20722     20709     20708     20711     20712
     20709     20708     20711     20713     20709     20708     20711     20719
     20710     20708     20711     20712     20710     20708     20711     20713
     20710     20708     20711     20719     20711     20713     20714     20715
     20711     20713     20714     20716     20711     20719     20722     20723
     20712     20711     20713     20714     20712     20711     20719     20720
     20712     20711     20719     20721     20712     20711     20719     20722
     20713     20711     20719     20720     20713     20711     20719     20721
     20713     20711     20719     20722     20713     20714     20716     20717
     20713     20714     20716     20718     20713     20714     20716     20728
     20714     20713     20711     20719     20714     20716     20728     20729
     20714     20716     20728     20730     20714     20716     20728     20731
     20715     20714     20716     20717     20715     20714     20716     20718
     20715     20714     20716     20728     20716     20728     20731     20732
     20716     20728     20731     20733     20716     20728     20731     20734
     20717     20716     20728     20729     20717     20716     20728     20730
     20717     20716     20728     20731     20718     20716     20728     20729
     20718     20716     20728     20730     20718     20716     20728     20731
     20719     20722     20723     20724     20719     20722     20723     20725
     20720     20719     20722     20723     20721     20719     20722     20723
     20722     20723     20725     20726     20722     20723     20725     20727
     20722     20723     20725     20775     20723     20725     20775     20776
     20723     20725     20775     20777     20723     20725     20775     20778
     20724     20723     20725     20726     20724     20723     20725     20727
     20724     20723     20725     20775     20725     20775     20778     20779
     20725     20775     20778     20780     20725     20775     20778     20781
     20726     20725     20775     20776     20726     20725     20775     20777
     20726     20725     20775     20778     20727     20725     20775     20776
     20727     20725     20775     20777     20727     20725     20775     20778
     20728     20731     20734     20735     20728     20731     20734     20736
     20728     20731     20734     20737     20729     20728     20731     20732
     20729     20728     20731     20733     20729     20728     20731     20734
     20730     20728     20731     20732     20730     20728     20731     20733
     20730     20728     20731     20734     20731     20734     20737     20738
     20731     20734     20737     20739     20731     20734     20737     20740
     20732     20731     20734     20735     20732     20731     20734     20736
     20732     20731     20734     20737     20733     20731     20734     20735
     20733     20731     20734     20736     20733     20731     20734     20737
     20734     20737     20740     20741     20734     20737     20740     20742
     20734     20737     20740     20743     20735     20734     20737     20738
     20735     20734     20737     20739     20735     20734     20737     20740
     20736     20734     20737     20738     20736     20734     20737     20739
     20736     20734     20737     20740     20737     20740     20743     20744
     20737     20740     20743     20745     20737     20740     20743     20746
     20738     20737     20740     20741     20738     20737     20740     20742
     20738     20737     20740     20743     20739     20737     20740     20741
     20739     20737     20740     20742     20739     20737     20740     20743
     20740     20743     20746     20747     20740     20743     20746     20748
     20741     20740     20743     20744     20741     20740     20743     20745
     20741     20740     20743     20746     20742     20740     20743     20744
     20742     20740     20743     20745     20742     20740     20743     20746
     20743     20746     20748     20749     20743     20746     20748     20750
     20744     20743     20746     20747     20744     20743     20746     20748
     20745     20743     20746     20747     20745     20743     20746     20748
     20746     20748     20750     20751     20746     20748     20750     20752
     20746     20748     20750     20753     20747     20746     20748     20749
     20747     20746     20748     20750     20748     20750     20753     20754
     20748     20750     20753     20755     20748     20750     20753     20756
     20749     20748     20750     20751     20749     20748     20750     20752
     20749     20748     20750     20753     20750     20753     20756     20757
     20750     20753     20756     20758     20750     20753     20756     20759
     20751     20750     20753     20754     20751     20750     20753     20755
     20751     20750     20753     20756     20752     20750     20753     20754
     20752     20750     20753     20755     20752     20750     20753     20756
     20753     20756     20759     20760     20753     20756     20759     20761
     20753     20756     20759     20762     20754     20753     20756     20757
     20754     20753     20756     20758     20754     20753     20756     20759
     20755     20753     20756     20757     20755     20753     20756     20758
     20755     20753     20756     20759     20756     20759     20762     20763
     20756     20759     20762     20764     20756     20759     20762     20765
     20757     20756     20759     20760     20757     20756     20759     20761
     20757     20756     20759     20762     20758     20756     20759     20760
     20758     20756     20759     20761     20758     20756     20759     20762
     20759     20762     20765     20766     20759     20762     20765     20767
     20759     20762     20765     20768     20760     20759     20762     20763
     20760     20759     20762     20764     20760     20759     20762     20765
     20761     20759     20762     20763     20761     20759     20762     20764
     20761     20759     20762     20765     20762     20765     20768     20769
     20762     20765     20768     20770     20762     20765     20768     20771
     20763     20762     20765     20766     20763     20762     20765     20767
     20763     20762     20765     20768     20764     20762     20765     20766
     20764     20762     20765     20767     20764     20762     20765     20768
     20765     20768     20771     20772     20765     20768     20771     20773
     20765     20768     20771     20774     20766     20765     20768     20769
     20766     20765     20768     20770     20766     20765     20768     20771
     20767     20765     20768     20769     20767     20765     20768     20770
     20767     20765     20768     20771     20769     20768     20771     20772
     20769     20768     20771     20773     20769     20768     20771     20774
     20770     20768     20771     20772     20770     20768     20771     20773
     20770     20768     20771     20774     20775     20778     20781     20782
     20775     20778     20781     20783     20775     20778     20781     20784
     20776     20775     20778     20779     20776     20775     20778     20780
     20776     20775     20778     20781     20777     20775     20778     20779
     20777     20775     20778     20780     20777     20775     20778     20781
     20778     20781     20784     20785     20778     20781     20784     20786
     20778     20781     20784     20787     20779     20778     20781     20782
     20779     20778     20781     20783     20779     20778     20781     20784
     20780     20778     20781     20782     20780     20778     20781     20783
     20780     20778     20781     20784     20781     20784     20787     20788
     20781     20784     20787     20789     20781     20784     20787     20790
     20782     20781     20784     20785     20782     20781     20784     20786
     20782     20781     20784     20787     20783     20781     20784     20785
     20783     20781     20784     20786     20783     20781     20784     20787
     20784     20787     20790     20791     20784     20787     20790     20792
     20784     20787     20790     20793     20785     20784     20787     20788
     20785     20784     20787     20789     20785     20784     20787     20790
     20786     20784     20787     20788     20786     20784     20787     20789
     20786     20784     20787     20790     20787     20790     20793     20794
     20787     20790     20793     20795     20787     20790     20793     20796
     20788     20787     20790     20791     20788     20787     20790     20792
     20788     20787     20790     20793     20789     20787     20790     20791
     20789     20787     20790     20792     20789     20787     20790     20793
     20790     20793     20796     20797     20790     20793     20796     20798
     20790     20793     20796     20799     20791     20790     20793     20794
     20791     20790     20793     20795     20791     20790     20793     20796
     20792     20790     20793     20794     20792     20790     20793     20795
     20792     20790     20793     20796     20793     20796     20799     20800
     20793     20796     20799     20801     20793     20796     20799     20802
     20794     20793     20796     20797     20794     20793     20796     20798
     20794     20793     20796     20799     20795     20793     20796     20797
     20795     20793     20796     20798     20795     20793     20796     20799
     20796     20799     20802     20803     20796     20799     20802     20804
     20796     20799     20802     20805     20797     20796     20799     20800
     20797     20796     20799     20801     20797     20796     20799     20802
     20798     20796     20799     20800     20798     20796     20799     20801
     20798     20796     20799     20802     20799     20802     20805     20806
     20799     20802     20805     20807     20799     20802     20805     20808
     20800     20799     20802     20803     20800     20799     20802     20804
     20800     20799     20802     20805     20801     20799     20802     20803
     20801     20799     20802     20804     20801     20799     20802     20805
     20802     20805     20808     20809     20802     20805     20808     20810
     20802     20805     20808     20811     20803     20802     20805     20806
     20803     20802     20805     20807     20803     20802     20805     20808
     20804     20802     20805     20806     20804     20802     20805     20807
     20804     20802     20805     20808     20805     20808     20811     20812
     20805     20808     20811     20813     20805     20808     20811     20814
     20806     20805     20808     20809     20806     20805     20808     20810
     20806     20805     20808     20811     20807     20805     20808     20809
     20807     20805     20808     20810     20807     20805     20808     20811
     20808     20811     20814     20815     20808     20811     20814     20816
     20808     20811     20814     20817     20809     20808     20811     20812
     20809     20808     20811     20813     20809     20808     20811     20814
     20810     20808     20811     20812     20810     20808     20811     20813
     20810     20808     20811     20814     20812     20811     20814     20815
     20812     20811     20814     20816     20812     20811     20814     20817
     20813     20811     20814     20815     20813     20811     20814     20816
     20813     20811     20814     20817     20818     20822     20825     20826
     20818     20822     20825     20827     20818     20822     20825     20832
     20819     20818     20822     20823     20819     20818     20822     20824
     20819     20818     20822     20825     20820     20818     20822     20823
     20820     20818     20822     20824     20820     20818     20822     20825
     20821     20818     20822     20823     20821     20818     20822     20824
     20821     20818     20822     20825     20822     20825     20832     20828
     20823     20822     20825     20826     20823     20822     20825     20827
     20823     20822     20825     20832     20824     20822     20825     20826
     20824     20822     20825     20827     20824     20822     20825     20832
     20825     20832     20828     20829     20825     20832     20828     20830
     20825     20832     20828     20831     20826     20825     20832     20828
     20827     20825     20832     20828     20828     20831     20833     20834
     20828     20831     20833     20835     20828     20831     20833     20836
     20829     20828     20831     20833     20830     20828     20831     20833
     20831     20833     20836     20837     20831     20833     20836     20838
     20831     20833     20836     20844     20832     20828     20831     20833
     20833     20836     20838     20839     20833     20836     20844     20845
     20833     20836     20844     20846     20833     20836     20844     20847
     20834     20833     20836     20837     20834     20833     20836     20838
     20834     20833     20836     20844     20835     20833     20836     20837
     20835     20833     20836     20838     20835     20833     20836     20844
     20836     20838     20839     20840     20836     20838     20839     20841
     20836     20844     20847     20848     20837     20836     20838     20839
     20837     20836     20844     20845     20837     20836     20844     20846
     20837     20836     20844     20847     20838     20836     20844     20845
     20838     20836     20844     20846     20838     20836     20844     20847
     20838     20839     20841     20842     20838     20839     20841     20843
     20838     20839     20841     20853     20839     20838     20836     20844
     20839     20841     20853     20854     20839     20841     20853     20855
     20839     20841     20853     20856     20840     20839     20841     20842
     20840     20839     20841     20843     20840     20839     20841     20853
     20841     20853     20856     20857     20841     20853     20856     20858
     20841     20853     20856     20859     20842     20841     20853     20854
     20842     20841     20853     20855     20842     20841     20853     20856
     20843     20841     20853     20854     20843     20841     20853     20855
     20843     20841     20853     20856     20844     20847     20848     20849
     20844     20847     20848     20850     20845     20844     20847     20848
     20846     20844     20847     20848     20847     20848     20850     20851
     20847     20848     20850     20852     20847     20848     20850     20900
     20848     20850     20900     20901     20848     20850     20900     20902
     20848     20850     20900     20903     20849     20848     20850     20851
     20849     20848     20850     20852     20849     20848     20850     20900
     20850     20900     20903     20904     20850     20900     20903     20905
     20850     20900     20903     20906     20851     20850     20900     20901
     20851     20850     20900     20902     20851     20850     20900     20903
     20852     20850     20900     20901     20852     20850     20900     20902
     20852     20850     20900     20903     20853     20856     20859     20860
     20853     20856     20859     20861     20853     20856     20859     20862
     20854     20853     20856     20857     20854     20853     20856     20858
     20854     20853     20856     20859     20855     20853     20856     20857
     20855     20853     20856     20858     20855     20853     20856     20859
     20856     20859     20862     20863     20856     20859     20862     20864
     20856     20859     20862     20865     20857     20856     20859     20860
     20857     20856     20859     20861     20857     20856     20859     20862
     20858     20856     20859     20860     20858     20856     20859     20861
     20858     20856     20859     20862     20859     20862     20865     20866
     20859     20862     20865     20867     20859     20862     20865     20868
     20860     20859     20862     20863     20860     20859     20862     20864
     20860     20859     20862     20865     20861     20859     20862     20863
     20861     20859     20862     20864     20861     20859     20862     20865
     20862     20865     20868     20869     20862     20865     20868     20870
     20862     20865     20868     20871     20863     20862     20865     20866
     20863     20862     20865     20867     20863     20862     20865     20868
     20864     20862     20865     20866     20864     20862     20865     20867
     20864     20862     20865     20868     20865     20868     20871     20872
     20865     20868     20871     20873     20866     20865     20868     20869
     20866     20865     20868     20870     20866     20865     20868     20871
     20867     20865     20868     20869     20867     20865     20868     20870
     20867     20865     20868     20871     20868     20871     20873     20874
     20868     20871     20873     20875     20869     20868     20871     20872
     20869     20868     20871     20873     20870     20868     20871     20872
     20870     20868     20871     20873     20871     20873     20875     20876
     20871     20873     20875     20877     20871     20873     20875     20878
     20872     20871     20873     20874     20872     20871     20873     20875
     20873     20875     20878     20879     20873     20875     20878     20880
     20873     20875     20878     20881     20874     20873     20875     20876
     20874     20873     20875     20877     20874     20873     20875     20878
     20875     20878     20881     20882     20875     20878     20881     20883
     20875     20878     20881     20884     20876     20875     20878     20879
     20876     20875     20878     20880     20876     20875     20878     20881
     20877     20875     20878     20879     20877     20875     20878     20880
     20877     20875     20878     20881     20878     20881     20884     20885
     20878     20881     20884     20886     20878     20881     20884     20887
     20879     20878     20881     20882     20879     20878     20881     20883
     20879     20878     20881     20884     20880     20878     20881     20882
     20880     20878     20881     20883     20880     20878     20881     20884
     20881     20884     20887     20888     20881     20884     20887     20889
     20881     20884     20887     20890     20882     20881     20884     20885
     20882     20881     20884     20886     20882     20881     20884     20887
     20883     20881     20884     20885     20883     20881     20884     20886
     20883     20881     20884     20887     20884     20887     20890     20891
     20884     20887     20890     20892     20884     20887     20890     20893
     20885     20884     20887     20888     20885     20884     20887     20889
     20885     20884     20887     20890     20886     20884     20887     20888
     20886     20884     20887     20889     20886     20884     20887     20890
     20887     20890     20893     20894     20887     20890     20893     20895
     20887     20890     20893     20896     20888     20887     20890     20891
     20888     20887     20890     20892     20888     20887     20890     20893
     20889     20887     20890     20891     20889     20887     20890     20892
     20889     20887     20890     20893     20890     20893     20896     20897
     20890     20893     20896     20898     20890     20893     20896     20899
     20891     20890     20893     20894     20891     20890     20893     20895
     20891     20890     20893     20896     20892     20890     20893     20894
     20892     20890     20893     20895     20892     20890     20893     20896
     20894     20893     20896     20897     20894     20893     20896     20898
     20894     20893     20896     20899     20895     20893     20896     20897
     20895     20893     20896     20898     20895     20893     20896     20899
     20900     20903     20906     20907     20900     20903     20906     20908
     20900     20903     20906     20909     20901     20900     20903     20904
     20901     20900     20903     20905     20901     20900     20903     20906
     20902     20900     20903     20904     20902     20900     20903     20905
     20902     20900     20903     20906     20903     20906     20909     20910
     20903     20906     20909     20911     20903     20906     20909     20912
     20904     20903     20906     20907     20904     20903     20906     20908
     20904     20903     20906     20909     20905     20903     20906     20907
     20905     20903     20906     20908     20905     20903     20906     20909
     20906     20909     20912     20913     20906     20909     20912     20914
     20906     20909     20912     20915     20907     20906     20909     20910
     20907     20906     20909     20911     20907     20906     20909     20912
     20908     20906     20909     20910     20908     20906     20909     20911
     20908     20906     20909     20912     20909     20912     20915     20916
     20909     20912     20915     20917     20909     20912     20915     20918
     20910     20909     20912     20913     20910     20909     20912     20914
     20910     20909     20912     20915     20911     20909     20912     20913
     20911     20909     20912     20914     20911     20909     20912     20915
     20912     20915     20918     20919     20912     20915     20918     20920
     20912     20915     20918     20921     20913     20912     20915     20916
     20913     20912     20915     20917     20913     20912     20915     20918
     20914     20912     20915     20916     20914     20912     20915     20917
     20914     20912     20915     20918     20915     20918     20921     20922
     20915     20918     20921     20923     20915     20918     20921     20924
     20916     20915     20918     20919     20916     20915     20918     20920
     20916     20915     20918     20921     20917     20915     20918     20919
     20917     20915     20918     20920     20917     20915     20918     20921
     20918     20921     20924     20925     20918     20921     20924     20926
     20918     20921     20924     20927     20919     20918     20921     20922
     20919     20918     20921     20923     20919     20918     20921     20924
     20920     20918     20921     20922     20920     20918     20921     20923
     20920     20918     20921     20924     20921     20924     20927     20928
     20921     20924     20927     20929     20921     20924     20927     20930
     20922     20921     20924     20925     20922     20921     20924     20926
     20922     20921     20924     20927     20923     20921     20924     20925
     20923     20921     20924     20926     20923     20921     20924     20927
     20924     20927     20930     20931     20924     20927     20930     20932
     20924     20927     20930     20933     20925     20924     20927     20928
     20925     20924     20927     20929     20925     20924     20927     20930
     20926     20924     20927     20928     20926     20924     20927     20929
     20926     20924     20927     20930     20927     20930     20933     20934
     20927     20930     20933     20935     20927     20930     20933     20936
     20928     20927     20930     20931     20928     20927     20930     20932
     20928     20927     20930     20933     20929     20927     20930     20931
     20929     20927     20930     20932     20929     20927     20930     20933
     20930     20933     20936     20937     20930     20933     20936     20938
     20930     20933     20936     20939     20931     20930     20933     20934
     20931     20930     20933     20935     20931     20930     20933     20936
     20932     20930     20933     20934     20932     20930     20933     20935
     20932     20930     20933     20936     20933     20936     20939     20940
     20933     20936     20939     20941     20933     20936     20939     20942
     20934     20933     20936     20937     20934     20933     20936     20938
     20934     20933     20936     20939     20935     20933     20936     20937
     20935     20933     20936     20938     20935     20933     20936     20939
     20937     20936     20939     20940     20937     20936     20939     20941
     20937     20936     20939     20942     20938     20936     20939     20940
     20938     20936     20939     20941     20938     20936     20939     20942
     20943     20947     20950     20951     20943     20947     20950     20981
     20943     20989     20986     20981     20943     20989     20986     20987
     20943     20989     20986     20988     20944     20943     20945     20946
     20944     20943     20947     20948     20944     20943     20947     20949
     20944     20943     20947     20950     20944     20943     20989     20986
     20944     20943     20989     20990     20944     20943     20989     20991
     20945     20943     20947     20948     20945     20943     20947     20949
     20945     20943     20947     20950     20945     20943     20989     20986
     20945     20943     20989     20990     20945     20943     20989     20991
     20946     20945     20943     20947     20946     20945     20943     20989
     20947     20943     20989     20986     20947     20943     20989     20990
     20947     20943     20989     20991     20947     20950     20951     20952
     20947     20950     20951     20953     20947     20950     20981     20979
     20947     20950     20981     20982     20947     20950     20981     20986
     20948     20947     20943     20989     20948     20947     20950     20951
     20948     20947     20950     20981     20949     20947     20943     20989
     20949     20947     20950     20951     20949     20947     20950     20981
     20950     20947     20943     20989     20950     20951     20953     20954
     20950     20951     20953     20955     20950     20951     20953     20956
     20950     20981     20979     20956     20950     20981     20979     20976
     20950     20981     20979     20980     20950     20981     20982     20983
     20950     20981     20982     20984     20950     20981     20982     20985
     20950     20981     20986     20987     20950     20981     20986     20988
     20950     20981     20986     20989     20951     20950     20981     20979
     20951     20950     20981     20982     20951     20950     20981     20986
     20951     20953     20956     20957     20951     20953     20956     20958
     20951     20953     20956     20979     20952     20951     20950     20981
     20952     20951     20953     20954     20952     20951     20953     20955
     20952     20951     20953     20956     20953     20951     20950     20981
     20953     20956     20958     20959     20953     20956     20958     20960
     20953     20956     20958     20968     20953     20956     20979     20976
     20953     20956     20979     20980     20953     20956     20979     20981
     20954     20953     20956     20957     20954     20953     20956     20958
     20954     20953     20956     20979     20955     20953     20956     20957
     20955     20953     20956     20958     20955     20953     20956     20979
     20956     20958     20960     20961     20956     20958     20960     20962
     20956     20958     20960     20963     20956     20958     20968     20966
     20956     20958     20968     20969     20956     20958     20968     20973
     20956     20979     20976     20973     20956     20979     20976     20977
     20956     20979     20976     20978     20956     20979     20981     20982
     20956     20979     20981     20986     20957     20956     20958     20959
     20957     20956     20958     20960     20957     20956     20958     20968
     20957     20956     20979     20976     20957     20956     20979     20980
     20957     20956     20979     20981     20958     20956     20979     20976
     20958     20956     20979     20980     20958     20956     20979     20981
     20958     20960     20963     20964     20958     20960     20963     20965
     20958     20960     20963     20966     20958     20968     20966     20963
     20958     20968     20966     20967     20958     20968     20966     20992
     20958     20968     20969     20970     20958     20968     20969     20971
     20958     20968     20969     20972     20958     20968     20973     20974
     20958     20968     20973     20975     20958     20968     20973     20976
     20959     20958     20956     20979     20959     20958     20960     20961
     20959     20958     20960     20962     20959     20958     20960     20963
     20959     20958     20968     20966     20959     20958     20968     20969
     20959     20958     20968     20973     20960     20958     20956     20979
     20960     20958     20968     20966     20960     20958     20968     20969
     20960     20958     20968     20973     20960     20963     20966     20967
     20960     20963     20966     20968     20960     20963     20966     20992
     20961     20960     20958     20968     20961     20960     20963     20964
     20961     20960     20963     20965     20961     20960     20963     20966
     20962     20960     20958     20968     20962     20960     20963     20964
     20962     20960     20963     20965     20962     20960     20963     20966
     20963     20960     20958     20968     20963     20966     20968     20969
     20963     20966     20968     20973     20963     20966     20992     20993
     20963     20966     20992     20994     20963     20966     20992     20998
     20964     20963     20966     20967     20964     20963     20966     20968
     20964     20963     20966     20992     20965     20963     20966     20967
     20965     20963     20966     20968     20965     20963     20966     20992
     20966     20968     20969     20970     20966     20968     20969     20971
     20966     20968     20969     20972     20966     20968     20973     20974
     20966     20968     20973     20975     20966     20968     20973     20976
     20966     20992     20994     20995     20966     20992     20994     20996
     20966     20992     20994     20997     20966     20992     20998     20999
     20966     20992     20998     21000     20966     20992     20998     21001
     20967     20966     20968     20969     20967     20966     20968     20973
     20967     20966     20992     20993     20967     20966     20992     20994
     20967     20966     20992     20998     20968     20958     20956     20979
     20968     20966     20992     20993     20968     20966     20992     20994
     20968     20966     20992     20998     20968     20973     20976     20977
     20968     20973     20976     20978     20968     20973     20976     20979
     20969     20968     20966     20992     20969     20968     20973     20974
     20969     20968     20973     20975     20969     20968     20973     20976
     20970     20969     20968     20973     20971     20969     20968     20973
     20972     20969     20968     20973     20973     20968     20966     20992
     20973     20976     20979     20980     20973     20976     20979     20981
     20974     20973     20976     20977     20974     20973     20976     20978
     20974     20973     20976     20979     20975     20973     20976     20977
     20975     20973     20976     20978     20975     20973     20976     20979
     20976     20979     20981     20982     20976     20979     20981     20986
     20977     20976     20979     20980     20977     20976     20979     20981
     20978     20976     20979     20980     20978     20976     20979     20981
     20979     20981     20982     20983     20979     20981     20982     20984
     20979     20981     20982     20985     20979     20981     20986     20987
     20979     20981     20986     20988     20979     20981     20986     20989
     20980     20979     20981     20982     20980     20979     20981     20986
     20981     20986     20989     20990     20981     20986     20989     20991
     20982     20981     20986     20987     20982     20981     20986     20988
     20982     20981     20986     20989     20983     20982     20981     20986
     20984     20982     20981     20986     20985     20982     20981     20986
     20987     20986     20989     20990     20987     20986     20989     20991
     20988     20986     20989     20990     20988     20986     20989     20991
     20992     20998     21001     21002     20992     20998     21001     21003
     20992     20998     21001     21004     20993     20992     20994     20995
     20993     20992     20994     20996     20993     20992     20994     20997
     20993     20992     20998     20999     20993     20992     20998     21000
     20993     20992     20998     21001     20994     20992     20998     20999
     20994     20992     20998     21000     20994     20992     20998     21001
     20995     20994     20992     20998     20996     20994     20992     20998
     20997     20994     20992     20998     20998     21001     21004     21005
     20998     21001     21004     21006     20998     21001     21004     21007
     20999     20998     21001     21002     20999     20998     21001     21003
     20999     20998     21001     21004     21000     20998     21001     21002
     21000     20998     21001     21003     21000     20998     21001     21004
     21001     21004     21007     21008     21001     21004     21007     21009
     21001     21004     21007     21013     21002     21001     21004     21005
     21002     21001     21004     21006     21002     21001     21004     21007
     21003     21001     21004     21005     21003     21001     21004     21006
     21003     21001     21004     21007     21004     21007     21009     21010
     21004     21007     21009     21011     21004     21007     21009     21012
     21004     21007     21013     21014     21004     21007     21013     21015
     21004     21007     21013     21016     21005     21004     21007     21008
     21005     21004     21007     21009     21005     21004     21007     21013
     21006     21004     21007     21008     21006     21004     21007     21009
     21006     21004     21007     21013     21008     21007     21009     21010
     21008     21007     21009     21011     21008     21007     21009     21012
     21008     21007     21013     21014     21008     21007     21013     21015
     21008     21007     21013     21016     21009     21007     21013     21014
     21009     21007     21013     21015     21009     21007     21013     21016
     21010     21009     21007     21013     21011     21009     21007     21013
     21012     21009     21007     21013     21017     21021     21024     21025
     21017     21021     21024     21055     21017     21063     21060     21055
     21017     21063     21060     21061     21017     21063     21060     21062
     21018     21017     21019     21020     21018     21017     21021     21022
     21018     21017     21021     21023     21018     21017     21021     21024
     21018     21017     21063     21060     21018     21017     21063     21064
     21018     21017     21063     21065     21019     21017     21021     21022
     21019     21017     21021     21023     21019     21017     21021     21024
     21019     21017     21063     21060     21019     21017     21063     21064
     21019     21017     21063     21065     21020     21019     21017     21021
     21020     21019     21017     21063     21021     21017     21063     21060
     21021     21017     21063     21064     21021     21017     21063     21065
     21021     21024     21025     21026     21021     21024     21025     21027
     21021     21024     21055     21053     21021     21024     21055     21056
     21021     21024     21055     21060     21022     21021     21017     21063
     21022     21021     21024     21025     21022     21021     21024     21055
     21023     21021     21017     21063     21023     21021     21024     21025
     21023     21021     21024     21055     21024     21021     21017     21063
     21024     21025     21027     21028     21024     21025     21027     21029
     21024     21025     21027     21030     21024     21055     21053     21030
     21024     21055     21053     21050     21024     21055     21053     21054
     21024     21055     21056     21057     21024     21055     21056     21058
     21024     21055     21056     21059     21024     21055     21060     21061
     21024     21055     21060     21062     21024     21055     21060     21063
     21025     21024     21055     21053     21025     21024     21055     21056
     21025     21024     21055     21060     21025     21027     21030     21031
     21025     21027     21030     21032     21025     21027     21030     21053
     21026     21025     21024     21055     21026     21025     21027     21028
     21026     21025     21027     21029     21026     21025     21027     21030
     21027     21025     21024     21055     21027     21030     21032     21033
     21027     21030     21032     21034     21027     21030     21032     21042
     21027     21030     21053     21050     21027     21030     21053     21054
     21027     21030     21053     21055     21028     21027     21030     21031
     21028     21027     21030     21032     21028     21027     21030     21053
     21029     21027     21030     21031     21029     21027     21030     21032
     21029     21027     21030     21053     21030     21032     21034     21035
     21030     21032     21034     21036     21030     21032     21034     21037
     21030     21032     21042     21040     21030     21032     21042     21043
     21030     21032     21042     21047     21030     21053     21050     21047
     21030     21053     21050     21051     21030     21053     21050     21052
     21030     21053     21055     21056     21030     21053     21055     21060
     21031     21030     21032     21033     21031     21030     21032     21034
     21031     21030     21032     21042     21031     21030     21053     21050
     21031     21030     21053     21054     21031     21030     21053     21055
     21032     21030     21053     21050     21032     21030     21053     21054
     21032     21030     21053     21055     21032     21034     21037     21038
     21032     21034     21037     21039     21032     21034     21037     21040
     21032     21042     21040     21037     21032     21042     21040     21041
     21032     21042     21040     21066     21032     21042     21043     21044
     21032     21042     21043     21045     21032     21042     21043     21046
     21032     21042     21047     21048     21032     21042     21047     21049
     21032     21042     21047     21050     21033     21032     21030     21053
     21033     21032     21034     21035     21033     21032     21034     21036
     21033     21032     21034     21037     21033     21032     21042     21040
     21033     21032     21042     21043     21033     21032     21042     21047
     21034     21032     21030     21053     21034     21032     21042     21040
     21034     21032     21042     21043     21034     21032     21042     21047
     21034     21037     21040     21041     21034     21037     21040     21042
     21034     21037     21040     21066     21035     21034     21032     21042
     21035     21034     21037     21038     21035     21034     21037     21039
     21035     21034     21037     21040     21036     21034     21032     21042
     21036     21034     21037     21038     21036     21034     21037     21039
     21036     21034     21037     21040     21037     21034     21032     21042
     21037     21040     21042     21043     21037     21040     21042     21047
     21037     21040     21066     21067     21037     21040     21066     21068
     21037     21040     21066     21072     21038     21037     21040     21041
     21038     21037     21040     21042     21038     21037     21040     21066
     21039     21037     21040     21041     21039     21037     21040     21042
     21039     21037     21040     21066     21040     21042     21043     21044
     21040     21042     21043     21045     21040     21042     21043     21046
     21040     21042     21047     21048     21040     21042     21047     21049
     21040     21042     21047     21050     21040     21066     21068     21069
     21040     21066     21068     21070     21040     21066     21068     21071
     21040     21066     21072     21073     21040     21066     21072     21074
     21040     21066     21072     21075     21041     21040     21042     21043
     21041     21040     21042     21047     21041     21040     21066     21067
     21041     21040     21066     21068     21041     21040     21066     21072
     21042     21032     21030     21053     21042     21040     21066     21067
     21042     21040     21066     21068     21042     21040     21066     21072
     21042     21047     21050     21051     21042     21047     21050     21052
     21042     21047     21050     21053     21043     21042     21040     21066
     21043     21042     21047     21048     21043     21042     21047     21049
     21043     21042     21047     21050     21044     21043     21042     21047
     21045     21043     21042     21047     21046     21043     21042     21047
     21047     21042     21040     21066     21047     21050     21053     21054
     21047     21050     21053     21055     21048     21047     21050     21051
     21048     21047     21050     21052     21048     21047     21050     21053
     21049     21047     21050     21051     21049     21047     21050     21052
     21049     21047     21050     21053     21050     21053     21055     21056
     21050     21053     21055     21060     21051     21050     21053     21054
     21051     21050     21053     21055     21052     21050     21053     21054
     21052     21050     21053     21055     21053     21055     21056     21057
     21053     21055     21056     21058     21053     21055     21056     21059
     21053     21055     21060     21061     21053     21055     21060     21062
     21053     21055     21060     21063     21054     21053     21055     21056
     21054     21053     21055     21060     21055     21060     21063     21064
     21055     21060     21063     21065     21056     21055     21060     21061
     21056     21055     21060     21062     21056     21055     21060     21063
     21057     21056     21055     21060     21058     21056     21055     21060
     21059     21056     21055     21060     21061     21060     21063     21064
     21061     21060     21063     21065     21062     21060     21063     21064
     21062     21060     21063     21065     21066     21072     21075     21076
     21066     21072     21075     21077     21066     21072     21075     21078
     21067     21066     21068     21069     21067     21066     21068     21070
     21067     21066     21068     21071     21067     21066     21072     21073
     21067     21066     21072     21074     21067     21066     21072     21075
     21068     21066     21072     21073     21068     21066     21072     21074
     21068     21066     21072     21075     21069     21068     21066     21072
     21070     21068     21066     21072     21071     21068     21066     21072
     21072     21075     21078     21079     21072     21075     21078     21080
     21072     21075     21078     21081     21073     21072     21075     21076
     21073     21072     21075     21077     21073     21072     21075     21078
     21074     21072     21075     21076     21074     21072     21075     21077
     21074     21072     21075     21078     21075     21078     21081     21082
     21075     21078     21081     21083     21075     21078     21081     21087
     21076     21075     21078     21079     21076     21075     21078     21080
     21076     21075     21078     21081     21077     21075     21078     21079
     21077     21075     21078     21080     21077     21075     21078     21081
     21078     21081     21083     21084     21078     21081     21083     21085
     21078     21081     21083     21086     21078     21081     21087     21088
     21078     21081     21087     21089     21078     21081     21087     21090
     21079     21078     21081     21082     21079     21078     21081     21083
     21079     21078     21081     21087     21080     21078     21081     21082
     21080     21078     21081     21083     21080     21078     21081     21087
     21082     21081     21083     21084     21082     21081     21083     21085
     21082     21081     21083     21086     21082     21081     21087     21088
     21082     21081     21087     21089     21082     21081     21087     21090
     21083     21081     21087     21088     21083     21081     21087     21089
     21083     21081     21087     21090     21084     21083     21081     21087
     21085     21083     21081     21087     21086     21083     21081     21087
     21091     21095     21098     21099     21091     21095     21098     21129
     21091     21137     21134     21129     21091     21137     21134     21135
     21091     21137     21134     21136     21092     21091     21093     21094
     21092     21091     21095     21096     21092     21091     21095     21097
     21092     21091     21095     21098     21092     21091     21137     21134
     21092     21091     21137     21138     21092     21091     21137     21139
     21093     21091     21095     21096     21093     21091     21095     21097
     21093     21091     21095     21098     21093     21091     21137     21134
     21093     21091     21137     21138     21093     21091     21137     21139
     21094     21093     21091     21095     21094     21093     21091     21137
     21095     21091     21137     21134     21095     21091     21137     21138
     21095     21091     21137     21139     21095     21098     21099     21100
     21095     21098     21099     21101     21095     21098     21129     21127
     21095     21098     21129     21130     21095     21098     21129     21134
     21096     21095     21091     21137     21096     21095     21098     21099
     21096     21095     21098     21129     21097     21095     21091     21137
     21097     21095     21098     21099     21097     21095     21098     21129
     21098     21095     21091     21137     21098     21099     21101     21102
     21098     21099     21101     21103     21098     21099     21101     21104
     21098     21129     21127     21104     21098     21129     21127     21124
     21098     21129     21127     21128     21098     21129     21130     21131
     21098     21129     21130     21132     21098     21129     21130     21133
     21098     21129     21134     21135     21098     21129     21134     21136
     21098     21129     21134     21137     21099     21098     21129     21127
     21099     21098     21129     21130     21099     21098     21129     21134
     21099     21101     21104     21105     21099     21101     21104     21106
     21099     21101     21104     21127     21100     21099     21098     21129
     21100     21099     21101     21102     21100     21099     21101     21103
     21100     21099     21101     21104     21101     21099     21098     21129
     21101     21104     21106     21107     21101     21104     21106     21108
     21101     21104     21106     21116     21101     21104     21127     21124
     21101     21104     21127     21128     21101     21104     21127     21129
     21102     21101     21104     21105     21102     21101     21104     21106
     21102     21101     21104     21127     21103     21101     21104     21105
     21103     21101     21104     21106     21103     21101     21104     21127
     21104     21106     21108     21109     21104     21106     21108     21110
     21104     21106     21108     21111     21104     21106     21116     21114
     21104     21106     21116     21117     21104     21106     21116     21121
     21104     21127     21124     21121     21104     21127     21124     21125
     21104     21127     21124     21126     21104     21127     21129     21130
     21104     21127     21129     21134     21105     21104     21106     21107
     21105     21104     21106     21108     21105     21104     21106     21116
     21105     21104     21127     21124     21105     21104     21127     21128
     21105     21104     21127     21129     21106     21104     21127     21124
     21106     21104     21127     21128     21106     21104     21127     21129
     21106     21108     21111     21112     21106     21108     21111     21113
     21106     21108     21111     21114     21106     21116     21114     21111
     21106     21116     21114     21115     21106     21116     21114     21140
     21106     21116     21117     21118     21106     21116     21117     21119
     21106     21116     21117     21120     21106     21116     21121     21122
     21106     21116     21121     21123     21106     21116     21121     21124
     21107     21106     21104     21127     21107     21106     21108     21109
     21107     21106     21108     21110     21107     21106     21108     21111
     21107     21106     21116     21114     21107     21106     21116     21117
     21107     21106     21116     21121     21108     21106     21104     21127
     21108     21106     21116     21114     21108     21106     21116     21117
     21108     21106     21116     21121     21108     21111     21114     21115
     21108     21111     21114     21116     21108     21111     21114     21140
     21109     21108     21106     21116     21109     21108     21111     21112
     21109     21108     21111     21113     21109     21108     21111     21114
     21110     21108     21106     21116     21110     21108     21111     21112
     21110     21108     21111     21113     21110     21108     21111     21114
     21111     21108     21106     21116     21111     21114     21116     21117
     21111     21114     21116     21121     21111     21114     21140     21141
     21111     21114     21140     21142     21111     21114     21140     21146
     21112     21111     21114     21115     21112     21111     21114     21116
     21112     21111     21114     21140     21113     21111     21114     21115
     21113     21111     21114     21116     21113     21111     21114     21140
     21114     21116     21117     21118     21114     21116     21117     21119
     21114     21116     21117     21120     21114     21116     21121     21122
     21114     21116     21121     21123     21114     21116     21121     21124
     21114     21140     21142     21143     21114     21140     21142     21144
     21114     21140     21142     21145     21114     21140     21146     21147
     21114     21140     21146     21148     21114     21140     21146     21149
     21115     21114     21116     21117     21115     21114     21116     21121
     21115     21114     21140     21141     21115     21114     21140     21142
     21115     21114     21140     21146     21116     21106     21104     21127
     21116     21114     21140     21141     21116     21114     21140     21142
     21116     21114     21140     21146     21116     21121     21124     21125
     21116     21121     21124     21126     21116     21121     21124     21127
     21117     21116     21114     21140     21117     21116     21121     21122
     21117     21116     21121     21123     21117     21116     21121     21124
     21118     21117     21116     21121     21119     21117     21116     21121
     21120     21117     21116     21121     21121     21116     21114     21140
     21121     21124     21127     21128     21121     21124     21127     21129
     21122     21121     21124     21125     21122     21121     21124     21126
     21122     21121     21124     21127     21123     21121     21124     21125
     21123     21121     21124     21126     21123     21121     21124     21127
     21124     21127     21129     21130     21124     21127     21129     21134
     21125     21124     21127     21128     21125     21124     21127     21129
     21126     21124     21127     21128     21126     21124     21127     21129
     21127     21129     21130     21131     21127     21129     21130     21132
     21127     21129     21130     21133     21127     21129     21134     21135
     21127     21129     21134     21136     21127     21129     21134     21137
     21128     21127     21129     21130     21128     21127     21129     21134
     21129     21134     21137     21138     21129     21134     21137     21139
     21130     21129     21134     21135     21130     21129     21134     21136
     21130     21129     21134     21137     21131     21130     21129     21134
     21132     21130     21129     21134     21133     21130     21129     21134
     21135     21134     21137     21138     21135     21134     21137     21139
     21136     21134     21137     21138     21136     21134     21137     21139
     21140     21146     21149     21150     21140     21146     21149     21151
     21140     21146     21149     21152     21141     21140     21142     21143
     21141     21140     21142     21144     21141     21140     21142     21145
     21141     21140     21146     21147     21141     21140     21146     21148
     21141     21140     21146     21149     21142     21140     21146     21147
     21142     21140     21146     21148     21142     21140     21146     21149
     21143     21142     21140     21146     21144     21142     21140     21146
     21145     21142     21140     21146     21146     21149     21152     21153
     21146     21149     21152     21154     21146     21149     21152     21155
     21147     21146     21149     21150     21147     21146     21149     21151
     21147     21146     21149     21152     21148     21146     21149     21150
     21148     21146     21149     21151     21148     21146     21149     21152
     21149     21152     21155     21156     21149     21152     21155     21157
     21149     21152     21155     21161     21150     21149     21152     21153
     21150     21149     21152     21154     21150     21149     21152     21155
     21151     21149     21152     21153     21151     21149     21152     21154
     21151     21149     21152     21155     21152     21155     21157     21158
     21152     21155     21157     21159     21152     21155     21157     21160
     21152     21155     21161     21162     21152     21155     21161     21163
     21152     21155     21161     21164     21153     21152     21155     21156
     21153     21152     21155     21157     21153     21152     21155     21161
     21154     21152     21155     21156     21154     21152     21155     21157
     21154     21152     21155     21161     21156     21155     21157     21158
     21156     21155     21157     21159     21156     21155     21157     21160
     21156     21155     21161     21162     21156     21155     21161     21163
     21156     21155     21161     21164     21157     21155     21161     21162
     21157     21155     21161     21163     21157     21155     21161     21164
     21158     21157     21155     21161     21159     21157     21155     21161
     21160     21157     21155     21161     21165     21169     21172     21173
     21165     21169     21172     21203     21165     21211     21208     21203
     21165     21211     21208     21209     21165     21211     21208     21210
     21166     21165     21167     21168     21166     21165     21169     21170
     21166     21165     21169     21171     21166     21165     21169     21172
     21166     21165     21211     21208     21166     21165     21211     21212
     21166     21165     21211     21213     21167     21165     21169     21170
     21167     21165     21169     21171     21167     21165     21169     21172
     21167     21165     21211     21208     21167     21165     21211     21212
     21167     21165     21211     21213     21168     21167     21165     21169
     21168     21167     21165     21211     21169     21165     21211     21208
     21169     21165     21211     21212     21169     21165     21211     21213
     21169     21172     21173     21174     21169     21172     21173     21175
     21169     21172     21203     21201     21169     21172     21203     21204
     21169     21172     21203     21208     21170     21169     21165     21211
     21170     21169     21172     21173     21170     21169     21172     21203
     21171     21169     21165     21211     21171     21169     21172     21173
     21171     21169     21172     21203     21172     21169     21165     21211
     21172     21173     21175     21176     21172     21173     21175     21177
     21172     21173     21175     21178     21172     21203     21201     21178
     21172     21203     21201     21198     21172     21203     21201     21202
     21172     21203     21204     21205     21172     21203     21204     21206
     21172     21203     21204     21207     21172     21203     21208     21209
     21172     21203     21208     21210     21172     21203     21208     21211
     21173     21172     21203     21201     21173     21172     21203     21204
     21173     21172     21203     21208     21173     21175     21178     21179
     21173     21175     21178     21180     21173     21175     21178     21201
     21174     21173     21172     21203     21174     21173     21175     21176
     21174     21173     21175     21177     21174     21173     21175     21178
     21175     21173     21172     21203     21175     21178     21180     21181
     21175     21178     21180     21182     21175     21178     21180     21190
     21175     21178     21201     21198     21175     21178     21201     21202
     21175     21178     21201     21203     21176     21175     21178     21179
     21176     21175     21178     21180     21176     21175     21178     21201
     21177     21175     21178     21179     21177     21175     21178     21180
     21177     21175     21178     21201     21178     21180     21182     21183
     21178     21180     21182     21184     21178     21180     21182     21185
     21178     21180     21190     21188     21178     21180     21190     21191
     21178     21180     21190     21195     21178     21201     21198     21195
     21178     21201     21198     21199     21178     21201     21198     21200
     21178     21201     21203     21204     21178     21201     21203     21208
     21179     21178     21180     21181     21179     21178     21180     21182
     21179     21178     21180     21190     21179     21178     21201     21198
     21179     21178     21201     21202     21179     21178     21201     21203
     21180     21178     21201     21198     21180     21178     21201     21202
     21180     21178     21201     21203     21180     21182     21185     21186
     21180     21182     21185     21187     21180     21182     21185     21188
     21180     21190     21188     21185     21180     21190     21188     21189
     21180     21190     21188     21214     21180     21190     21191     21192
     21180     21190     21191     21193     21180     21190     21191     21194
     21180     21190     21195     21196     21180     21190     21195     21197
     21180     21190     21195     21198     21181     21180     21178     21201
     21181     21180     21182     21183     21181     21180     21182     21184
     21181     21180     21182     21185     21181     21180     21190     21188
     21181     21180     21190     21191     21181     21180     21190     21195
     21182     21180     21178     21201     21182     21180     21190     21188
     21182     21180     21190     21191     21182     21180     21190     21195
     21182     21185     21188     21189     21182     21185     21188     21190
     21182     21185     21188     21214     21183     21182     21180     21190
     21183     21182     21185     21186     21183     21182     21185     21187
     21183     21182     21185     21188     21184     21182     21180     21190
     21184     21182     21185     21186     21184     21182     21185     21187
     21184     21182     21185     21188     21185     21182     21180     21190
     21185     21188     21190     21191     21185     21188     21190     21195
     21185     21188     21214     21215     21185     21188     21214     21216
     21185     21188     21214     21220     21186     21185     21188     21189
     21186     21185     21188     21190     21186     21185     21188     21214
     21187     21185     21188     21189     21187     21185     21188     21190
     21187     21185     21188     21214     21188     21190     21191     21192
     21188     21190     21191     21193     21188     21190     21191     21194
     21188     21190     21195     21196     21188     21190     21195     21197
     21188     21190     21195     21198     21188     21214     21216     21217
     21188     21214     21216     21218     21188     21214     21216     21219
     21188     21214     21220     21221     21188     21214     21220     21222
     21188     21214     21220     21223     21189     21188     21190     21191
     21189     21188     21190     21195     21189     21188     21214     21215
     21189     21188     21214     21216     21189     21188     21214     21220
     21190     21180     21178     21201     21190     21188     21214     21215
     21190     21188     21214     21216     21190     21188     21214     21220
     21190     21195     21198     21199     21190     21195     21198     21200
     21190     21195     21198     21201     21191     21190     21188     21214
     21191     21190     21195     21196     21191     21190     21195     21197
     21191     21190     21195     21198     21192     21191     21190     21195
     21193     21191     21190     21195     21194     21191     21190     21195
     21195     21190     21188     21214     21195     21198     21201     21202
     21195     21198     21201     21203     21196     21195     21198     21199
     21196     21195     21198     21200     21196     21195     21198     21201
     21197     21195     21198     21199     21197     21195     21198     21200
     21197     21195     21198     21201     21198     21201     21203     21204
     21198     21201     21203     21208     21199     21198     21201     21202
     21199     21198     21201     21203     21200     21198     21201     21202
     21200     21198     21201     21203     21201     21203     21204     21205
     21201     21203     21204     21206     21201     21203     21204     21207
     21201     21203     21208     21209     21201     21203     21208     21210
     21201     21203     21208     21211     21202     21201     21203     21204
     21202     21201     21203     21208     21203     21208     21211     21212
     21203     21208     21211     21213     21204     21203     21208     21209
     21204     21203     21208     21210     21204     21203     21208     21211
     21205     21204     21203     21208     21206     21204     21203     21208
     21207     21204     21203     21208     21209     21208     21211     21212
     21209     21208     21211     21213     21210     21208     21211     21212
     21210     21208     21211     21213     21214     21220     21223     21224
     21214     21220     21223     21225     21214     21220     21223     21226
     21215     21214     21216     21217     21215     21214     21216     21218
     21215     21214     21216     21219     21215     21214     21220     21221
     21215     21214     21220     21222     21215     21214     21220     21223
     21216     21214     21220     21221     21216     21214     21220     21222
     21216     21214     21220     21223     21217     21216     21214     21220
     21218     21216     21214     21220     21219     21216     21214     21220
     21220     21223     21226     21227     21220     21223     21226     21228
     21220     21223     21226     21229     21221     21220     21223     21224
     21221     21220     21223     21225     21221     21220     21223     21226
     21222     21220     21223     21224     21222     21220     21223     21225
     21222     21220     21223     21226     21223     21226     21229     21230
     21223     21226     21229     21231     21223     21226     21229     21235
     21224     21223     21226     21227     21224     21223     21226     21228
     21224     21223     21226     21229     21225     21223     21226     21227
     21225     21223     21226     21228     21225     21223     21226     21229
     21226     21229     21231     21232     21226     21229     21231     21233
     21226     21229     21231     21234     21226     21229     21235     21236
     21226     21229     21235     21237     21226     21229     21235     21238
     21227     21226     21229     21230     21227     21226     21229     21231
     21227     21226     21229     21235     21228     21226     21229     21230
     21228     21226     21229     21231     21228     21226     21229     21235
     21230     21229     21231     21232     21230     21229     21231     21233
     21230     21229     21231     21234     21230     21229     21235     21236
     21230     21229     21235     21237     21230     21229     21235     21238
     21231     21229     21235     21236     21231     21229     21235     21237
     21231     21229     21235     21238     21232     21231     21229     21235
     21233     21231     21229     21235     21234     21231     21229     21235
     21239     21243     21246     21247     21239     21243     21246     21277
     21239     21285     21282     21277     21239     21285     21282     21283
     21239     21285     21282     21284     21240     21239     21241     21242
     21240     21239     21243     21244     21240     21239     21243     21245
     21240     21239     21243     21246     21240     21239     21285     21282
     21240     21239     21285     21286     21240     21239     21285     21287
     21241     21239     21243     21244     21241     21239     21243     21245
     21241     21239     21243     21246     21241     21239     21285     21282
     21241     21239     21285     21286     21241     21239     21285     21287
     21242     21241     21239     21243     21242     21241     21239     21285
     21243     21239     21285     21282     21243     21239     21285     21286
     21243     21239     21285     21287     21243     21246     21247     21248
     21243     21246     21247     21249     21243     21246     21277     21275
     21243     21246     21277     21278     21243     21246     21277     21282
     21244     21243     21239     21285     21244     21243     21246     21247
     21244     21243     21246     21277     21245     21243     21239     21285
     21245     21243     21246     21247     21245     21243     21246     21277
     21246     21243     21239     21285     21246     21247     21249     21250
     21246     21247     21249     21251     21246     21247     21249     21252
     21246     21277     21275     21252     21246     21277     21275     21272
     21246     21277     21275     21276     21246     21277     21278     21279
     21246     21277     21278     21280     21246     21277     21278     21281
     21246     21277     21282     21283     21246     21277     21282     21284
     21246     21277     21282     21285     21247     21246     21277     21275
     21247     21246     21277     21278     21247     21246     21277     21282
     21247     21249     21252     21253     21247     21249     21252     21254
     21247     21249     21252     21275     21248     21247     21246     21277
     21248     21247     21249     21250     21248     21247     21249     21251
     21248     21247     21249     21252     21249     21247     21246     21277
     21249     21252     21254     21255     21249     21252     21254     21256
     21249     21252     21254     21264     21249     21252     21275     21272
     21249     21252     21275     21276     21249     21252     21275     21277
     21250     21249     21252     21253     21250     21249     21252     21254
     21250     21249     21252     21275     21251     21249     21252     21253
     21251     21249     21252     21254     21251     21249     21252     21275
     21252     21254     21256     21257     21252     21254     21256     21258
     21252     21254     21256     21259     21252     21254     21264     21262
     21252     21254     21264     21265     21252     21254     21264     21269
     21252     21275     21272     21269     21252     21275     21272     21273
     21252     21275     21272     21274     21252     21275     21277     21278
     21252     21275     21277     21282     21253     21252     21254     21255
     21253     21252     21254     21256     21253     21252     21254     21264
     21253     21252     21275     21272     21253     21252     21275     21276
     21253     21252     21275     21277     21254     21252     21275     21272
     21254     21252     21275     21276     21254     21252     21275     21277
     21254     21256     21259     21260     21254     21256     21259     21261
     21254     21256     21259     21262     21254     21264     21262     21259
     21254     21264     21262     21263     21254     21264     21262     21288
     21254     21264     21265     21266     21254     21264     21265     21267
     21254     21264     21265     21268     21254     21264     21269     21270
     21254     21264     21269     21271     21254     21264     21269     21272
     21255     21254     21252     21275     21255     21254     21256     21257
     21255     21254     21256     21258     21255     21254     21256     21259
     21255     21254     21264     21262     21255     21254     21264     21265
     21255     21254     21264     21269     21256     21254     21252     21275
     21256     21254     21264     21262     21256     21254     21264     21265
     21256     21254     21264     21269     21256     21259     21262     21263
     21256     21259     21262     21264     21256     21259     21262     21288
     21257     21256     21254     21264     21257     21256     21259     21260
     21257     21256     21259     21261     21257     21256     21259     21262
     21258     21256     21254     21264     21258     21256     21259     21260
     21258     21256     21259     21261     21258     21256     21259     21262
     21259     21256     21254     21264     21259     21262     21264     21265
     21259     21262     21264     21269     21259     21262     21288     21289
     21259     21262     21288     21290     21259     21262     21288     21294
     21260     21259     21262     21263     21260     21259     21262     21264
     21260     21259     21262     21288     21261     21259     21262     21263
     21261     21259     21262     21264     21261     21259     21262     21288
     21262     21264     21265     21266     21262     21264     21265     21267
     21262     21264     21265     21268     21262     21264     21269     21270
     21262     21264     21269     21271     21262     21264     21269     21272
     21262     21288     21290     21291     21262     21288     21290     21292
     21262     21288     21290     21293     21262     21288     21294     21295
     21262     21288     21294     21296     21262     21288     21294     21297
     21263     21262     21264     21265     21263     21262     21264     21269
     21263     21262     21288     21289     21263     21262     21288     21290
     21263     21262     21288     21294     21264     21254     21252     21275
     21264     21262     21288     21289     21264     21262     21288     21290
     21264     21262     21288     21294     21264     21269     21272     21273
     21264     21269     21272     21274     21264     21269     21272     21275
     21265     21264     21262     21288     21265     21264     21269     21270
     21265     21264     21269     21271     21265     21264     21269     21272
     21266     21265     21264     21269     21267     21265     21264     21269
     21268     21265     21264     21269     21269     21264     21262     21288
     21269     21272     21275     21276     21269     21272     21275     21277
     21270     21269     21272     21273     21270     21269     21272     21274
     21270     21269     21272     21275     21271     21269     21272     21273
     21271     21269     21272     21274     21271     21269     21272     21275
     21272     21275     21277     21278     21272     21275     21277     21282
     21273     21272     21275     21276     21273     21272     21275     21277
     21274     21272     21275     21276     21274     21272     21275     21277
     21275     21277     21278     21279     21275     21277     21278     21280
     21275     21277     21278     21281     21275     21277     21282     21283
     21275     21277     21282     21284     21275     21277     21282     21285
     21276     21275     21277     21278     21276     21275     21277     21282
     21277     21282     21285     21286     21277     21282     21285     21287
     21278     21277     21282     21283     21278     21277     21282     21284
     21278     21277     21282     21285     21279     21278     21277     21282
     21280     21278     21277     21282     21281     21278     21277     21282
     21283     21282     21285     21286     21283     21282     21285     21287
     21284     21282     21285     21286     21284     21282     21285     21287
     21288     21294     21297     21298     21288     21294     21297     21299
     21288     21294     21297     21300     21289     21288     21290     21291
     21289     21288     21290     21292     21289     21288     21290     21293
     21289     21288     21294     21295     21289     21288     21294     21296
     21289     21288     21294     21297     21290     21288     21294     21295
     21290     21288     21294     21296     21290     21288     21294     21297
     21291     21290     21288     21294     21292     21290     21288     21294
     21293     21290     21288     21294     21294     21297     21300     21301
     21294     21297     21300     21302     21294     21297     21300     21303
     21295     21294     21297     21298     21295     21294     21297     21299
     21295     21294     21297     21300     21296     21294     21297     21298
     21296     21294     21297     21299     21296     21294     21297     21300
     21297     21300     21303     21304     21297     21300     21303     21305
     21297     21300     21303     21309     21298     21297     21300     21301
     21298     21297     21300     21302     21298     21297     21300     21303
     21299     21297     21300     21301     21299     21297     21300     21302
     21299     21297     21300     21303     21300     21303     21305     21306
     21300     21303     21305     21307     21300     21303     21305     21308
     21300     21303     21309     21310     21300     21303     21309     21311
     21300     21303     21309     21312     21301     21300     21303     21304
     21301     21300     21303     21305     21301     21300     21303     21309
     21302     21300     21303     21304     21302     21300     21303     21305
     21302     21300     21303     21309     21304     21303     21305     21306
     21304     21303     21305     21307     21304     21303     21305     21308
     21304     21303     21309     21310     21304     21303     21309     21311
     21304     21303     21309     21312     21305     21303     21309     21310
     21305     21303     21309     21311     21305     21303     21309     21312
     21306     21305     21303     21309     21307     21305     21303     21309
     21308     21305     21303     21309     21313     21317     21320     21321
     21313     21317     21320     21351     21313     21359     21356     21351
     21313     21359     21356     21357     21313     21359     21356     21358
     21314     21313     21315     21316     21314     21313     21317     21318
     21314     21313     21317     21319     21314     21313     21317     21320
     21314     21313     21359     21356     21314     21313     21359     21360
     21314     21313     21359     21361     21315     21313     21317     21318
     21315     21313     21317     21319     21315     21313     21317     21320
     21315     21313     21359     21356     21315     21313     21359     21360
     21315     21313     21359     21361     21316     21315     21313     21317
     21316     21315     21313     21359     21317     21313     21359     21356
     21317     21313     21359     21360     21317     21313     21359     21361
     21317     21320     21321     21322     21317     21320     21321     21323
     21317     21320     21351     21349     21317     21320     21351     21352
     21317     21320     21351     21356     21318     21317     21313     21359
     21318     21317     21320     21321     21318     21317     21320     21351
     21319     21317     21313     21359     21319     21317     21320     21321
     21319     21317     21320     21351     21320     21317     21313     21359
     21320     21321     21323     21324     21320     21321     21323     21325
     21320     21321     21323     21326     21320     21351     21349     21326
     21320     21351     21349     21346     21320     21351     21349     21350
     21320     21351     21352     21353     21320     21351     21352     21354
     21320     21351     21352     21355     21320     21351     21356     21357
     21320     21351     21356     21358     21320     21351     21356     21359
     21321     21320     21351     21349     21321     21320     21351     21352
     21321     21320     21351     21356     21321     21323     21326     21327
     21321     21323     21326     21328     21321     21323     21326     21349
     21322     21321     21320     21351     21322     21321     21323     21324
     21322     21321     21323     21325     21322     21321     21323     21326
     21323     21321     21320     21351     21323     21326     21328     21329
     21323     21326     21328     21330     21323     21326     21328     21338
     21323     21326     21349     21346     21323     21326     21349     21350
     21323     21326     21349     21351     21324     21323     21326     21327
     21324     21323     21326     21328     21324     21323     21326     21349
     21325     21323     21326     21327     21325     21323     21326     21328
     21325     21323     21326     21349     21326     21328     21330     21331
     21326     21328     21330     21332     21326     21328     21330     21333
     21326     21328     21338     21336     21326     21328     21338     21339
     21326     21328     21338     21343     21326     21349     21346     21343
     21326     21349     21346     21347     21326     21349     21346     21348
     21326     21349     21351     21352     21326     21349     21351     21356
     21327     21326     21328     21329     21327     21326     21328     21330
     21327     21326     21328     21338     21327     21326     21349     21346
     21327     21326     21349     21350     21327     21326     21349     21351
     21328     21326     21349     21346     21328     21326     21349     21350
     21328     21326     21349     21351     21328     21330     21333     21334
     21328     21330     21333     21335     21328     21330     21333     21336
     21328     21338     21336     21333     21328     21338     21336     21337
     21328     21338     21336     21362     21328     21338     21339     21340
     21328     21338     21339     21341     21328     21338     21339     21342
     21328     21338     21343     21344     21328     21338     21343     21345
     21328     21338     21343     21346     21329     21328     21326     21349
     21329     21328     21330     21331     21329     21328     21330     21332
     21329     21328     21330     21333     21329     21328     21338     21336
     21329     21328     21338     21339     21329     21328     21338     21343
     21330     21328     21326     21349     21330     21328     21338     21336
     21330     21328     21338     21339     21330     21328     21338     21343
     21330     21333     21336     21337     21330     21333     21336     21338
     21330     21333     21336     21362     21331     21330     21328     21338
     21331     21330     21333     21334     21331     21330     21333     21335
     21331     21330     21333     21336     21332     21330     21328     21338
     21332     21330     21333     21334     21332     21330     21333     21335
     21332     21330     21333     21336     21333     21330     21328     21338
     21333     21336     21338     21339     21333     21336     21338     21343
     21333     21336     21362     21363     21333     21336     21362     21364
     21333     21336     21362     21368     21334     21333     21336     21337
     21334     21333     21336     21338     21334     21333     21336     21362
     21335     21333     21336     21337     21335     21333     21336     21338
     21335     21333     21336     21362     21336     21338     21339     21340
     21336     21338     21339     21341     21336     21338     21339     21342
     21336     21338     21343     21344     21336     21338     21343     21345
     21336     21338     21343     21346     21336     21362     21364     21365
     21336     21362     21364     21366     21336     21362     21364     21367
     21336     21362     21368     21369     21336     21362     21368     21370
     21336     21362     21368     21371     21337     21336     21338     21339
     21337     21336     21338     21343     21337     21336     21362     21363
     21337     21336     21362     21364     21337     21336     21362     21368
     21338     21328     21326     21349     21338     21336     21362     21363
     21338     21336     21362     21364     21338     21336     21362     21368
     21338     21343     21346     21347     21338     21343     21346     21348
     21338     21343     21346     21349     21339     21338     21336     21362
     21339     21338     21343     21344     21339     21338     21343     21345
     21339     21338     21343     21346     21340     21339     21338     21343
     21341     21339     21338     21343     21342     21339     21338     21343
     21343     21338     21336     21362     21343     21346     21349     21350
     21343     21346     21349     21351     21344     21343     21346     21347
     21344     21343     21346     21348     21344     21343     21346     21349
     21345     21343     21346     21347     21345     21343     21346     21348
     21345     21343     21346     21349     21346     21349     21351     21352
     21346     21349     21351     21356     21347     21346     21349     21350
     21347     21346     21349     21351     21348     21346     21349     21350
     21348     21346     21349     21351     21349     21351     21352     21353
     21349     21351     21352     21354     21349     21351     21352     21355
     21349     21351     21356     21357     21349     21351     21356     21358
     21349     21351     21356     21359     21350     21349     21351     21352
     21350     21349     21351     21356     21351     21356     21359     21360
     21351     21356     21359     21361     21352     21351     21356     21357
     21352     21351     21356     21358     21352     21351     21356     21359
     21353     21352     21351     21356     21354     21352     21351     21356
     21355     21352     21351     21356     21357     21356     21359     21360
     21357     21356     21359     21361     21358     21356     21359     21360
     21358     21356     21359     21361     21362     21368     21371     21372
     21362     21368     21371     21373     21362     21368     21371     21374
     21363     21362     21364     21365     21363     21362     21364     21366
     21363     21362     21364     21367     21363     21362     21368     21369
     21363     21362     21368     21370     21363     21362     21368     21371
     21364     21362     21368     21369     21364     21362     21368     21370
     21364     21362     21368     21371     21365     21364     21362     21368
     21366     21364     21362     21368     21367     21364     21362     21368
     21368     21371     21374     21375     21368     21371     21374     21376
     21368     21371     21374     21377     21369     21368     21371     21372
     21369     21368     21371     21373     21369     21368     21371     21374
     21370     21368     21371     21372     21370     21368     21371     21373
     21370     21368     21371     21374     21371     21374     21377     21378
     21371     21374     21377     21379     21371     21374     21377     21383
     21372     21371     21374     21375     21372     21371     21374     21376
     21372     21371     21374     21377     21373     21371     21374     21375
     21373     21371     21374     21376     21373     21371     21374     21377
     21374     21377     21379     21380     21374     21377     21379     21381
     21374     21377     21379     21382     21374     21377     21383     21384
     21374     21377     21383     21385     21374     21377     21383     21386
     21375     21374     21377     21378     21375     21374     21377     21379
     21375     21374     21377     21383     21376     21374     21377     21378
     21376     21374     21377     21379     21376     21374     21377     21383
     21378     21377     21379     21380     21378     21377     21379     21381
     21378     21377     21379     21382     21378     21377     21383     21384
     21378     21377     21383     21385     21378     21377     21383     21386
     21379     21377     21383     21384     21379     21377     21383     21385
     21379     21377     21383     21386     21380     21379     21377     21383
     21381     21379     21377     21383     21382     21379     21377     21383
     21387     21391     21394     21395     21387     21391     21394     21425
     21387     21433     21430     21425     21387     21433     21430     21431
     21387     21433     21430     21432     21388     21387     21389     21390
     21388     21387     21391     21392     21388     21387     21391     21393
     21388     21387     21391     21394     21388     21387     21433     21430
     21388     21387     21433     21434     21388     21387     21433     21435
     21389     21387     21391     21392     21389     21387     21391     21393
     21389     21387     21391     21394     21389     21387     21433     21430
     21389     21387     21433     21434     21389     21387     21433     21435
     21390     21389     21387     21391     21390     21389     21387     21433
     21391     21387     21433     21430     21391     21387     21433     21434
     21391     21387     21433     21435     21391     21394     21395     21396
     21391     21394     21395     21397     21391     21394     21425     21423
     21391     21394     21425     21426     21391     21394     21425     21430
     21392     21391     21387     21433     21392     21391     21394     21395
     21392     21391     21394     21425     21393     21391     21387     21433
     21393     21391     21394     21395     21393     21391     21394     21425
     21394     21391     21387     21433     21394     21395     21397     21398
     21394     21395     21397     21399     21394     21395     21397     21400
     21394     21425     21423     21400     21394     21425     21423     21420
     21394     21425     21423     21424     21394     21425     21426     21427
     21394     21425     21426     21428     21394     21425     21426     21429
     21394     21425     21430     21431     21394     21425     21430     21432
     21394     21425     21430     21433     21395     21394     21425     21423
     21395     21394     21425     21426     21395     21394     21425     21430
     21395     21397     21400     21401     21395     21397     21400     21402
     21395     21397     21400     21423     21396     21395     21394     21425
     21396     21395     21397     21398     21396     21395     21397     21399
     21396     21395     21397     21400     21397     21395     21394     21425
     21397     21400     21402     21403     21397     21400     21402     21404
     21397     21400     21402     21412     21397     21400     21423     21420
     21397     21400     21423     21424     21397     21400     21423     21425
     21398     21397     21400     21401     21398     21397     21400     21402
     21398     21397     21400     21423     21399     21397     21400     21401
     21399     21397     21400     21402     21399     21397     21400     21423
     21400     21402     21404     21405     21400     21402     21404     21406
     21400     21402     21404     21407     21400     21402     21412     21410
     21400     21402     21412     21413     21400     21402     21412     21417
     21400     21423     21420     21417     21400     21423     21420     21421
     21400     21423     21420     21422     21400     21423     21425     21426
     21400     21423     21425     21430     21401     21400     21402     21403
     21401     21400     21402     21404     21401     21400     21402     21412
     21401     21400     21423     21420     21401     21400     21423     21424
     21401     21400     21423     21425     21402     21400     21423     21420
     21402     21400     21423     21424     21402     21400     21423     21425
     21402     21404     21407     21408     21402     21404     21407     21409
     21402     21404     21407     21410     21402     21412     21410     21407
     21402     21412     21410     21411     21402     21412     21410     21436
     21402     21412     21413     21414     21402     21412     21413     21415
     21402     21412     21413     21416     21402     21412     21417     21418
     21402     21412     21417     21419     21402     21412     21417     21420
     21403     21402     21400     21423     21403     21402     21404     21405
     21403     21402     21404     21406     21403     21402     21404     21407
     21403     21402     21412     21410     21403     21402     21412     21413
     21403     21402     21412     21417     21404     21402     21400     21423
     21404     21402     21412     21410     21404     21402     21412     21413
     21404     21402     21412     21417     21404     21407     21410     21411
     21404     21407     21410     21412     21404     21407     21410     21436
     21405     21404     21402     21412     21405     21404     21407     21408
     21405     21404     21407     21409     21405     21404     21407     21410
     21406     21404     21402     21412     21406     21404     21407     21408
     21406     21404     21407     21409     21406     21404     21407     21410
     21407     21404     21402     21412     21407     21410     21412     21413
     21407     21410     21412     21417     21407     21410     21436     21437
     21407     21410     21436     21438     21407     21410     21436     21442
     21408     21407     21410     21411     21408     21407     21410     21412
     21408     21407     21410     21436     21409     21407     21410     21411
     21409     21407     21410     21412     21409     21407     21410     21436
     21410     21412     21413     21414     21410     21412     21413     21415
     21410     21412     21413     21416     21410     21412     21417     21418
     21410     21412     21417     21419     21410     21412     21417     21420
     21410     21436     21438     21439     21410     21436     21438     21440
     21410     21436     21438     21441     21410     21436     21442     21443
     21410     21436     21442     21444     21410     21436     21442     21445
     21411     21410     21412     21413     21411     21410     21412     21417
     21411     21410     21436     21437     21411     21410     21436     21438
     21411     21410     21436     21442     21412     21402     21400     21423
     21412     21410     21436     21437     21412     21410     21436     21438
     21412     21410     21436     21442     21412     21417     21420     21421
     21412     21417     21420     21422     21412     21417     21420     21423
     21413     21412     21410     21436     21413     21412     21417     21418
     21413     21412     21417     21419     21413     21412     21417     21420
     21414     21413     21412     21417     21415     21413     21412     21417
     21416     21413     21412     21417     21417     21412     21410     21436
     21417     21420     21423     21424     21417     21420     21423     21425
     21418     21417     21420     21421     21418     21417     21420     21422
     21418     21417     21420     21423     21419     21417     21420     21421
     21419     21417     21420     21422     21419     21417     21420     21423
     21420     21423     21425     21426     21420     21423     21425     21430
     21421     21420     21423     21424     21421     21420     21423     21425
     21422     21420     21423     21424     21422     21420     21423     21425
     21423     21425     21426     21427     21423     21425     21426     21428
     21423     21425     21426     21429     21423     21425     21430     21431
     21423     21425     21430     21432     21423     21425     21430     21433
     21424     21423     21425     21426     21424     21423     21425     21430
     21425     21430     21433     21434     21425     21430     21433     21435
     21426     21425     21430     21431     21426     21425     21430     21432
     21426     21425     21430     21433     21427     21426     21425     21430
     21428     21426     21425     21430     21429     21426     21425     21430
     21431     21430     21433     21434     21431     21430     21433     21435
     21432     21430     21433     21434     21432     21430     21433     21435
     21436     21442     21445     21446     21436     21442     21445     21447
     21436     21442     21445     21448     21437     21436     21438     21439
     21437     21436     21438     21440     21437     21436     21438     21441
     21437     21436     21442     21443     21437     21436     21442     21444
     21437     21436     21442     21445     21438     21436     21442     21443
     21438     21436     21442     21444     21438     21436     21442     21445
     21439     21438     21436     21442     21440     21438     21436     21442
     21441     21438     21436     21442     21442     21445     21448     21449
     21442     21445     21448     21450     21442     21445     21448     21451
     21443     21442     21445     21446     21443     21442     21445     21447
     21443     21442     21445     21448     21444     21442     21445     21446
     21444     21442     21445     21447     21444     21442     21445     21448
     21445     21448     21451     21452     21445     21448     21451     21453
     21445     21448     21451     21457     21446     21445     21448     21449
     21446     21445     21448     21450     21446     21445     21448     21451
     21447     21445     21448     21449     21447     21445     21448     21450
     21447     21445     21448     21451     21448     21451     21453     21454
     21448     21451     21453     21455     21448     21451     21453     21456
     21448     21451     21457     21458     21448     21451     21457     21459
     21448     21451     21457     21460     21449     21448     21451     21452
     21449     21448     21451     21453     21449     21448     21451     21457
     21450     21448     21451     21452     21450     21448     21451     21453
     21450     21448     21451     21457     21452     21451     21453     21454
     21452     21451     21453     21455     21452     21451     21453     21456
     21452     21451     21457     21458     21452     21451     21457     21459
     21452     21451     21457     21460     21453     21451     21457     21458
     21453     21451     21457     21459     21453     21451     21457     21460
     21454     21453     21451     21457     21455     21453     21451     21457
     21456     21453     21451     21457     21461     21465     21468     21469
     21461     21465     21468     21499     21461     21507     21504     21499
     21461     21507     21504     21505     21461     21507     21504     21506
     21462     21461     21463     21464     21462     21461     21465     21466
     21462     21461     21465     21467     21462     21461     21465     21468
     21462     21461     21507     21504     21462     21461     21507     21508
     21462     21461     21507     21509     21463     21461     21465     21466
     21463     21461     21465     21467     21463     21461     21465     21468
     21463     21461     21507     21504     21463     21461     21507     21508
     21463     21461     21507     21509     21464     21463     21461     21465
     21464     21463     21461     21507     21465     21461     21507     21504
     21465     21461     21507     21508     21465     21461     21507     21509
     21465     21468     21469     21470     21465     21468     21469     21471
     21465     21468     21499     21497     21465     21468     21499     21500
     21465     21468     21499     21504     21466     21465     21461     21507
     21466     21465     21468     21469     21466     21465     21468     21499
     21467     21465     21461     21507     21467     21465     21468     21469
     21467     21465     21468     21499     21468     21465     21461     21507
     21468     21469     21471     21472     21468     21469     21471     21473
     21468     21469     21471     21474     21468     21499     21497     21474
     21468     21499     21497     21494     21468     21499     21497     21498
     21468     21499     21500     21501     21468     21499     21500     21502
     21468     21499     21500     21503     21468     21499     21504     21505
     21468     21499     21504     21506     21468     21499     21504     21507
     21469     21468     21499     21497     21469     21468     21499     21500
     21469     21468     21499     21504     21469     21471     21474     21475
     21469     21471     21474     21476     21469     21471     21474     21497
     21470     21469     21468     21499     21470     21469     21471     21472
     21470     21469     21471     21473     21470     21469     21471     21474
     21471     21469     21468     21499     21471     21474     21476     21477
     21471     21474     21476     21478     21471     21474     21476     21486
     21471     21474     21497     21494     21471     21474     21497     21498
     21471     21474     21497     21499     21472     21471     21474     21475
     21472     21471     21474     21476     21472     21471     21474     21497
     21473     21471     21474     21475     21473     21471     21474     21476
     21473     21471     21474     21497     21474     21476     21478     21479
     21474     21476     21478     21480     21474     21476     21478     21481
     21474     21476     21486     21484     21474     21476     21486     21487
     21474     21476     21486     21491     21474     21497     21494     21491
     21474     21497     21494     21495     21474     21497     21494     21496
     21474     21497     21499     21500     21474     21497     21499     21504
     21475     21474     21476     21477     21475     21474     21476     21478
     21475     21474     21476     21486     21475     21474     21497     21494
     21475     21474     21497     21498     21475     21474     21497     21499
     21476     21474     21497     21494     21476     21474     21497     21498
     21476     21474     21497     21499     21476     21478     21481     21482
     21476     21478     21481     21483     21476     21478     21481     21484
     21476     21486     21484     21481     21476     21486     21484     21485
     21476     21486     21484     21510     21476     21486     21487     21488
     21476     21486     21487     21489     21476     21486     21487     21490
     21476     21486     21491     21492     21476     21486     21491     21493
     21476     21486     21491     21494     21477     21476     21474     21497
     21477     21476     21478     21479     21477     21476     21478     21480
     21477     21476     21478     21481     21477     21476     21486     21484
     21477     21476     21486     21487     21477     21476     21486     21491
     21478     21476     21474     21497     21478     21476     21486     21484
     21478     21476     21486     21487     21478     21476     21486     21491
     21478     21481     21484     21485     21478     21481     21484     21486
     21478     21481     21484     21510     21479     21478     21476     21486
     21479     21478     21481     21482     21479     21478     21481     21483
     21479     21478     21481     21484     21480     21478     21476     21486
     21480     21478     21481     21482     21480     21478     21481     21483
     21480     21478     21481     21484     21481     21478     21476     21486
     21481     21484     21486     21487     21481     21484     21486     21491
     21481     21484     21510     21511     21481     21484     21510     21512
     21481     21484     21510     21516     21482     21481     21484     21485
     21482     21481     21484     21486     21482     21481     21484     21510
     21483     21481     21484     21485     21483     21481     21484     21486
     21483     21481     21484     21510     21484     21486     21487     21488
     21484     21486     21487     21489     21484     21486     21487     21490
     21484     21486     21491     21492     21484     21486     21491     21493
     21484     21486     21491     21494     21484     21510     21512     21513
     21484     21510     21512     21514     21484     21510     21512     21515
     21484     21510     21516     21517     21484     21510     21516     21518
     21484     21510     21516     21519     21485     21484     21486     21487
     21485     21484     21486     21491     21485     21484     21510     21511
     21485     21484     21510     21512     21485     21484     21510     21516
     21486     21476     21474     21497     21486     21484     21510     21511
     21486     21484     21510     21512     21486     21484     21510     21516
     21486     21491     21494     21495     21486     21491     21494     21496
     21486     21491     21494     21497     21487     21486     21484     21510
     21487     21486     21491     21492     21487     21486     21491     21493
     21487     21486     21491     21494     21488     21487     21486     21491
     21489     21487     21486     21491     21490     21487     21486     21491
     21491     21486     21484     21510     21491     21494     21497     21498
     21491     21494     21497     21499     21492     21491     21494     21495
     21492     21491     21494     21496     21492     21491     21494     21497
     21493     21491     21494     21495     21493     21491     21494     21496
     21493     21491     21494     21497     21494     21497     21499     21500
     21494     21497     21499     21504     21495     21494     21497     21498
     21495     21494     21497     21499     21496     21494     21497     21498
     21496     21494     21497     21499     21497     21499     21500     21501
     21497     21499     21500     21502     21497     21499     21500     21503
     21497     21499     21504     21505     21497     21499     21504     21506
     21497     21499     21504     21507     21498     21497     21499     21500
     21498     21497     21499     21504     21499     21504     21507     21508
     21499     21504     21507     21509     21500     21499     21504     21505
     21500     21499     21504     21506     21500     21499     21504     21507
     21501     21500     21499     21504     21502     21500     21499     21504
     21503     21500     21499     21504     21505     21504     21507     21508
     21505     21504     21507     21509     21506     21504     21507     21508
     21506     21504     21507     21509     21510     21516     21519     21520
     21510     21516     21519     21521     21510     21516     21519     21522
     21511     21510     21512     21513     21511     21510     21512     21514
     21511     21510     21512     21515     21511     21510     21516     21517
     21511     21510     21516     21518     21511     21510     21516     21519
     21512     21510     21516     21517     21512     21510     21516     21518
     21512     21510     21516     21519     21513     21512     21510     21516
     21514     21512     21510     21516     21515     21512     21510     21516
     21516     21519     21522     21523     21516     21519     21522     21524
     21516     21519     21522     21525     21517     21516     21519     21520
     21517     21516     21519     21521     21517     21516     21519     21522
     21518     21516     21519     21520     21518     21516     21519     21521
     21518     21516     21519     21522     21519     21522     21525     21526
     21519     21522     21525     21527     21519     21522     21525     21531
     21520     21519     21522     21523     21520     21519     21522     21524
     21520     21519     21522     21525     21521     21519     21522     21523
     21521     21519     21522     21524     21521     21519     21522     21525
     21522     21525     21527     21528     21522     21525     21527     21529
     21522     21525     21527     21530     21522     21525     21531     21532
     21522     21525     21531     21533     21522     21525     21531     21534
     21523     21522     21525     21526     21523     21522     21525     21527
     21523     21522     21525     21531     21524     21522     21525     21526
     21524     21522     21525     21527     21524     21522     21525     21531
     21526     21525     21527     21528     21526     21525     21527     21529
     21526     21525     21527     21530     21526     21525     21531     21532
     21526     21525     21531     21533     21526     21525     21531     21534
     21527     21525     21531     21532     21527     21525     21531     21533
     21527     21525     21531     21534     21528     21527     21525     21531
     21529     21527     21525     21531     21530     21527     21525     21531
     21535     21539     21542     21543     21535     21539     21542     21573
     21535     21581     21578     21573     21535     21581     21578     21579
     21535     21581     21578     21580     21536     21535     21537     21538
     21536     21535     21539     21540     21536     21535     21539     21541
     21536     21535     21539     21542     21536     21535     21581     21578
     21536     21535     21581     21582     21536     21535     21581     21583
     21537     21535     21539     21540     21537     21535     21539     21541
     21537     21535     21539     21542     21537     21535     21581     21578
     21537     21535     21581     21582     21537     21535     21581     21583
     21538     21537     21535     21539     21538     21537     21535     21581
     21539     21535     21581     21578     21539     21535     21581     21582
     21539     21535     21581     21583     21539     21542     21543     21544
     21539     21542     21543     21545     21539     21542     21573     21571
     21539     21542     21573     21574     21539     21542     21573     21578
     21540     21539     21535     21581     21540     21539     21542     21543
     21540     21539     21542     21573     21541     21539     21535     21581
     21541     21539     21542     21543     21541     21539     21542     21573
     21542     21539     21535     21581     21542     21543     21545     21546
     21542     21543     21545     21547     21542     21543     21545     21548
     21542     21573     21571     21548     21542     21573     21571     21568
     21542     21573     21571     21572     21542     21573     21574     21575
     21542     21573     21574     21576     21542     21573     21574     21577
     21542     21573     21578     21579     21542     21573     21578     21580
     21542     21573     21578     21581     21543     21542     21573     21571
     21543     21542     21573     21574     21543     21542     21573     21578
     21543     21545     21548     21549     21543     21545     21548     21550
     21543     21545     21548     21571     21544     21543     21542     21573
     21544     21543     21545     21546     21544     21543     21545     21547
     21544     21543     21545     21548     21545     21543     21542     21573
     21545     21548     21550     21551     21545     21548     21550     21552
     21545     21548     21550     21560     21545     21548     21571     21568
     21545     21548     21571     21572     21545     21548     21571     21573
     21546     21545     21548     21549     21546     21545     21548     21550
     21546     21545     21548     21571     21547     21545     21548     21549
     21547     21545     21548     21550     21547     21545     21548     21571
     21548     21550     21552     21553     21548     21550     21552     21554
     21548     21550     21552     21555     21548     21550     21560     21558
     21548     21550     21560     21561     21548     21550     21560     21565
     21548     21571     21568     21565     21548     21571     21568     21569
     21548     21571     21568     21570     21548     21571     21573     21574
     21548     21571     21573     21578     21549     21548     21550     21551
     21549     21548     21550     21552     21549     21548     21550     21560
     21549     21548     21571     21568     21549     21548     21571     21572
     21549     21548     21571     21573     21550     21548     21571     21568
     21550     21548     21571     21572     21550     21548     21571     21573
     21550     21552     21555     21556     21550     21552     21555     21557
     21550     21552     21555     21558     21550     21560     21558     21555
     21550     21560     21558     21559     21550     21560     21558     21584
     21550     21560     21561     21562     21550     21560     21561     21563
     21550     21560     21561     21564     21550     21560     21565     21566
     21550     21560     21565     21567     21550     21560     21565     21568
     21551     21550     21548     21571     21551     21550     21552     21553
     21551     21550     21552     21554     21551     21550     21552     21555
     21551     21550     21560     21558     21551     21550     21560     21561
     21551     21550     21560     21565     21552     21550     21548     21571
     21552     21550     21560     21558     21552     21550     21560     21561
     21552     21550     21560     21565     21552     21555     21558     21559
     21552     21555     21558     21560     21552     21555     21558     21584
     21553     21552     21550     21560     21553     21552     21555     21556
     21553     21552     21555     21557     21553     21552     21555     21558
     21554     21552     21550     21560     21554     21552     21555     21556
     21554     21552     21555     21557     21554     21552     21555     21558
     21555     21552     21550     21560     21555     21558     21560     21561
     21555     21558     21560     21565     21555     21558     21584     21585
     21555     21558     21584     21586     21555     21558     21584     21590
     21556     21555     21558     21559     21556     21555     21558     21560
     21556     21555     21558     21584     21557     21555     21558     21559
     21557     21555     21558     21560     21557     21555     21558     21584
     21558     21560     21561     21562     21558     21560     21561     21563
     21558     21560     21561     21564     21558     21560     21565     21566
     21558     21560     21565     21567     21558     21560     21565     21568
     21558     21584     21586     21587     21558     21584     21586     21588
     21558     21584     21586     21589     21558     21584     21590     21591
     21558     21584     21590     21592     21558     21584     21590     21593
     21559     21558     21560     21561     21559     21558     21560     21565
     21559     21558     21584     21585     21559     21558     21584     21586
     21559     21558     21584     21590     21560     21550     21548     21571
     21560     21558     21584     21585     21560     21558     21584     21586
     21560     21558     21584     21590     21560     21565     21568     21569
     21560     21565     21568     21570     21560     21565     21568     21571
     21561     21560     21558     21584     21561     21560     21565     21566
     21561     21560     21565     21567     21561     21560     21565     21568
     21562     21561     21560     21565     21563     21561     21560     21565
     21564     21561     21560     21565     21565     21560     21558     21584
     21565     21568     21571     21572     21565     21568     21571     21573
     21566     21565     21568     21569     21566     21565     21568     21570
     21566     21565     21568     21571     21567     21565     21568     21569
     21567     21565     21568     21570     21567     21565     21568     21571
     21568     21571     21573     21574     21568     21571     21573     21578
     21569     21568     21571     21572     21569     21568     21571     21573
     21570     21568     21571     21572     21570     21568     21571     21573
     21571     21573     21574     21575     21571     21573     21574     21576
     21571     21573     21574     21577     21571     21573     21578     21579
     21571     21573     21578     21580     21571     21573     21578     21581
     21572     21571     21573     21574     21572     21571     21573     21578
     21573     21578     21581     21582     21573     21578     21581     21583
     21574     21573     21578     21579     21574     21573     21578     21580
     21574     21573     21578     21581     21575     21574     21573     21578
     21576     21574     21573     21578     21577     21574     21573     21578
     21579     21578     21581     21582     21579     21578     21581     21583
     21580     21578     21581     21582     21580     21578     21581     21583
     21584     21590     21593     21594     21584     21590     21593     21595
     21584     21590     21593     21596     21585     21584     21586     21587
     21585     21584     21586     21588     21585     21584     21586     21589
     21585     21584     21590     21591     21585     21584     21590     21592
     21585     21584     21590     21593     21586     21584     21590     21591
     21586     21584     21590     21592     21586     21584     21590     21593
     21587     21586     21584     21590     21588     21586     21584     21590
     21589     21586     21584     21590     21590     21593     21596     21597
     21590     21593     21596     21598     21590     21593     21596     21599
     21591     21590     21593     21594     21591     21590     21593     21595
     21591     21590     21593     21596     21592     21590     21593     21594
     21592     21590     21593     21595     21592     21590     21593     21596
     21593     21596     21599     21600     21593     21596     21599     21601
     21593     21596     21599     21605     21594     21593     21596     21597
     21594     21593     21596     21598     21594     21593     21596     21599
     21595     21593     21596     21597     21595     21593     21596     21598
     21595     21593     21596     21599     21596     21599     21601     21602
     21596     21599     21601     21603     21596     21599     21601     21604
     21596     21599     21605     21606     21596     21599     21605     21607
     21596     21599     21605     21608     21597     21596     21599     21600
     21597     21596     21599     21601     21597     21596     21599     21605
     21598     21596     21599     21600     21598     21596     21599     21601
     21598     21596     21599     21605     21600     21599     21601     21602
     21600     21599     21601     21603     21600     21599     21601     21604
     21600     21599     21605     21606     21600     21599     21605     21607
     21600     21599     21605     21608     21601     21599     21605     21606
     21601     21599     21605     21607     21601     21599     21605     21608
     21602     21601     21599     21605     21603     21601     21599     21605
     21604     21601     21599     21605     21609     21613     21616     21617
     21609     21613     21616     21647     21609     21655     21652     21647
     21609     21655     21652     21653     21609     21655     21652     21654
     21610     21609     21611     21612     21610     21609     21613     21614
     21610     21609     21613     21615     21610     21609     21613     21616
     21610     21609     21655     21652     21610     21609     21655     21656
     21610     21609     21655     21657     21611     21609     21613     21614
     21611     21609     21613     21615     21611     21609     21613     21616
     21611     21609     21655     21652     21611     21609     21655     21656
     21611     21609     21655     21657     21612     21611     21609     21613
     21612     21611     21609     21655     21613     21609     21655     21652
     21613     21609     21655     21656     21613     21609     21655     21657
     21613     21616     21617     21618     21613     21616     21617     21619
     21613     21616     21647     21645     21613     21616     21647     21648
     21613     21616     21647     21652     21614     21613     21609     21655
     21614     21613     21616     21617     21614     21613     21616     21647
     21615     21613     21609     21655     21615     21613     21616     21617
     21615     21613     21616     21647     21616     21613     21609     21655
     21616     21617     21619     21620     21616     21617     21619     21621
     21616     21617     21619     21622     21616     21647     21645     21622
     21616     21647     21645     21642     21616     21647     21645     21646
     21616     21647     21648     21649     21616     21647     21648     21650
     21616     21647     21648     21651     21616     21647     21652     21653
     21616     21647     21652     21654     21616     21647     21652     21655
     21617     21616     21647     21645     21617     21616     21647     21648
     21617     21616     21647     21652     21617     21619     21622     21623
     21617     21619     21622     21624     21617     21619     21622     21645
     21618     21617     21616     21647     21618     21617     21619     21620
     21618     21617     21619     21621     21618     21617     21619     21622
     21619     21617     21616     21647     21619     21622     21624     21625
     21619     21622     21624     21626     21619     21622     21624     21634
     21619     21622     21645     21642     21619     21622     21645     21646
     21619     21622     21645     21647     21620     21619     21622     21623
     21620     21619     21622     21624     21620     21619     21622     21645
     21621     21619     21622     21623     21621     21619     21622     21624
     21621     21619     21622     21645     21622     21624     21626     21627
     21622     21624     21626     21628     21622     21624     21626     21629
     21622     21624     21634     21632     21622     21624     21634     21635
     21622     21624     21634     21639     21622     21645     21642     21639
     21622     21645     21642     21643     21622     21645     21642     21644
     21622     21645     21647     21648     21622     21645     21647     21652
     21623     21622     21624     21625     21623     21622     21624     21626
     21623     21622     21624     21634     21623     21622     21645     21642
     21623     21622     21645     21646     21623     21622     21645     21647
     21624     21622     21645     21642     21624     21622     21645     21646
     21624     21622     21645     21647     21624     21626     21629     21630
     21624     21626     21629     21631     21624     21626     21629     21632
     21624     21634     21632     21629     21624     21634     21632     21633
     21624     21634     21632     21658     21624     21634     21635     21636
     21624     21634     21635     21637     21624     21634     21635     21638
     21624     21634     21639     21640     21624     21634     21639     21641
     21624     21634     21639     21642     21625     21624     21622     21645
     21625     21624     21626     21627     21625     21624     21626     21628
     21625     21624     21626     21629     21625     21624     21634     21632
     21625     21624     21634     21635     21625     21624     21634     21639
     21626     21624     21622     21645     21626     21624     21634     21632
     21626     21624     21634     21635     21626     21624     21634     21639
     21626     21629     21632     21633     21626     21629     21632     21634
     21626     21629     21632     21658     21627     21626     21624     21634
     21627     21626     21629     21630     21627     21626     21629     21631
     21627     21626     21629     21632     21628     21626     21624     21634
     21628     21626     21629     21630     21628     21626     21629     21631
     21628     21626     21629     21632     21629     21626     21624     21634
     21629     21632     21634     21635     21629     21632     21634     21639
     21629     21632     21658     21659     21629     21632     21658     21660
     21629     21632     21658     21664     21630     21629     21632     21633
     21630     21629     21632     21634     21630     21629     21632     21658
     21631     21629     21632     21633     21631     21629     21632     21634
     21631     21629     21632     21658     21632     21634     21635     21636
     21632     21634     21635     21637     21632     21634     21635     21638
     21632     21634     21639     21640     21632     21634     21639     21641
     21632     21634     21639     21642     21632     21658     21660     21661
     21632     21658     21660     21662     21632     21658     21660     21663
     21632     21658     21664     21665     21632     21658     21664     21666
     21632     21658     21664     21667     21633     21632     21634     21635
     21633     21632     21634     21639     21633     21632     21658     21659
     21633     21632     21658     21660     21633     21632     21658     21664
     21634     21624     21622     21645     21634     21632     21658     21659
     21634     21632     21658     21660     21634     21632     21658     21664
     21634     21639     21642     21643     21634     21639     21642     21644
     21634     21639     21642     21645     21635     21634     21632     21658
     21635     21634     21639     21640     21635     21634     21639     21641
     21635     21634     21639     21642     21636     21635     21634     21639
     21637     21635     21634     21639     21638     21635     21634     21639
     21639     21634     21632     21658     21639     21642     21645     21646
     21639     21642     21645     21647     21640     21639     21642     21643
     21640     21639     21642     21644     21640     21639     21642     21645
     21641     21639     21642     21643     21641     21639     21642     21644
     21641     21639     21642     21645     21642     21645     21647     21648
     21642     21645     21647     21652     21643     21642     21645     21646
     21643     21642     21645     21647     21644     21642     21645     21646
     21644     21642     21645     21647     21645     21647     21648     21649
     21645     21647     21648     21650     21645     21647     21648     21651
     21645     21647     21652     21653     21645     21647     21652     21654
     21645     21647     21652     21655     21646     21645     21647     21648
     21646     21645     21647     21652     21647     21652     21655     21656
     21647     21652     21655     21657     21648     21647     21652     21653
     21648     21647     21652     21654     21648     21647     21652     21655
     21649     21648     21647     21652     21650     21648     21647     21652
     21651     21648     21647     21652     21653     21652     21655     21656
     21653     21652     21655     21657     21654     21652     21655     21656
     21654     21652     21655     21657     21658     21664     21667     21668
     21658     21664     21667     21669     21658     21664     21667     21670
     21659     21658     21660     21661     21659     21658     21660     21662
     21659     21658     21660     21663     21659     21658     21664     21665
     21659     21658     21664     21666     21659     21658     21664     21667
     21660     21658     21664     21665     21660     21658     21664     21666
     21660     21658     21664     21667     21661     21660     21658     21664
     21662     21660     21658     21664     21663     21660     21658     21664
     21664     21667     21670     21671     21664     21667     21670     21672
     21664     21667     21670     21673     21665     21664     21667     21668
     21665     21664     21667     21669     21665     21664     21667     21670
     21666     21664     21667     21668     21666     21664     21667     21669
     21666     21664     21667     21670     21667     21670     21673     21674
     21667     21670     21673     21675     21667     21670     21673     21679
     21668     21667     21670     21671     21668     21667     21670     21672
     21668     21667     21670     21673     21669     21667     21670     21671
     21669     21667     21670     21672     21669     21667     21670     21673
     21670     21673     21675     21676     21670     21673     21675     21677
     21670     21673     21675     21678     21670     21673     21679     21680
     21670     21673     21679     21681     21670     21673     21679     21682
     21671     21670     21673     21674     21671     21670     21673     21675
     21671     21670     21673     21679     21672     21670     21673     21674
     21672     21670     21673     21675     21672     21670     21673     21679
     21674     21673     21675     21676     21674     21673     21675     21677
     21674     21673     21675     21678     21674     21673     21679     21680
     21674     21673     21679     21681     21674     21673     21679     21682
     21675     21673     21679     21680     21675     21673     21679     21681
     21675     21673     21679     21682     21676     21675     21673     21679
     21677     21675     21673     21679     21678     21675     21673     21679
     21683     21687     21690     21691     21683     21687     21690     21721
     21683     21729     21726     21721     21683     21729     21726     21727
     21683     21729     21726     21728     21684     21683     21685     21686
     21684     21683     21687     21688     21684     21683     21687     21689
     21684     21683     21687     21690     21684     21683     21729     21726
     21684     21683     21729     21730     21684     21683     21729     21731
     21685     21683     21687     21688     21685     21683     21687     21689
     21685     21683     21687     21690     21685     21683     21729     21726
     21685     21683     21729     21730     21685     21683     21729     21731
     21686     21685     21683     21687     21686     21685     21683     21729
     21687     21683     21729     21726     21687     21683     21729     21730
     21687     21683     21729     21731     21687     21690     21691     21692
     21687     21690     21691     21693     21687     21690     21721     21719
     21687     21690     21721     21722     21687     21690     21721     21726
     21688     21687     21683     21729     21688     21687     21690     21691
     21688     21687     21690     21721     21689     21687     21683     21729
     21689     21687     21690     21691     21689     21687     21690     21721
     21690     21687     21683     21729     21690     21691     21693     21694
     21690     21691     21693     21695     21690     21691     21693     21696
     21690     21721     21719     21696     21690     21721     21719     21716
     21690     21721     21719     21720     21690     21721     21722     21723
     21690     21721     21722     21724     21690     21721     21722     21725
     21690     21721     21726     21727     21690     21721     21726     21728
     21690     21721     21726     21729     21691     21690     21721     21719
     21691     21690     21721     21722     21691     21690     21721     21726
     21691     21693     21696     21697     21691     21693     21696     21698
     21691     21693     21696     21719     21692     21691     21690     21721
     21692     21691     21693     21694     21692     21691     21693     21695
     21692     21691     21693     21696     21693     21691     21690     21721
     21693     21696     21698     21699     21693     21696     21698     21700
     21693     21696     21698     21708     21693     21696     21719     21716
     21693     21696     21719     21720     21693     21696     21719     21721
     21694     21693     21696     21697     21694     21693     21696     21698
     21694     21693     21696     21719     21695     21693     21696     21697
     21695     21693     21696     21698     21695     21693     21696     21719
     21696     21698     21700     21701     21696     21698     21700     21702
     21696     21698     21700     21703     21696     21698     21708     21706
     21696     21698     21708     21709     21696     21698     21708     21713
     21696     21719     21716     21713     21696     21719     21716     21717
     21696     21719     21716     21718     21696     21719     21721     21722
     21696     21719     21721     21726     21697     21696     21698     21699
     21697     21696     21698     21700     21697     21696     21698     21708
     21697     21696     21719     21716     21697     21696     21719     21720
     21697     21696     21719     21721     21698     21696     21719     21716
     21698     21696     21719     21720     21698     21696     21719     21721
     21698     21700     21703     21704     21698     21700     21703     21705
     21698     21700     21703     21706     21698     21708     21706     21703
     21698     21708     21706     21707     21698     21708     21706     21732
     21698     21708     21709     21710     21698     21708     21709     21711
     21698     21708     21709     21712     21698     21708     21713     21714
     21698     21708     21713     21715     21698     21708     21713     21716
     21699     21698     21696     21719     21699     21698     21700     21701
     21699     21698     21700     21702     21699     21698     21700     21703
     21699     21698     21708     21706     21699     21698     21708     21709
     21699     21698     21708     21713     21700     21698     21696     21719
     21700     21698     21708     21706     21700     21698     21708     21709
     21700     21698     21708     21713     21700     21703     21706     21707
     21700     21703     21706     21708     21700     21703     21706     21732
     21701     21700     21698     21708     21701     21700     21703     21704
     21701     21700     21703     21705     21701     21700     21703     21706
     21702     21700     21698     21708     21702     21700     21703     21704
     21702     21700     21703     21705     21702     21700     21703     21706
     21703     21700     21698     21708     21703     21706     21708     21709
     21703     21706     21708     21713     21703     21706     21732     21733
     21703     21706     21732     21734     21703     21706     21732     21738
     21704     21703     21706     21707     21704     21703     21706     21708
     21704     21703     21706     21732     21705     21703     21706     21707
     21705     21703     21706     21708     21705     21703     21706     21732
     21706     21708     21709     21710     21706     21708     21709     21711
     21706     21708     21709     21712     21706     21708     21713     21714
     21706     21708     21713     21715     21706     21708     21713     21716
     21706     21732     21734     21735     21706     21732     21734     21736
     21706     21732     21734     21737     21706     21732     21738     21739
     21706     21732     21738     21740     21706     21732     21738     21741
     21707     21706     21708     21709     21707     21706     21708     21713
     21707     21706     21732     21733     21707     21706     21732     21734
     21707     21706     21732     21738     21708     21698     21696     21719
     21708     21706     21732     21733     21708     21706     21732     21734
     21708     21706     21732     21738     21708     21713     21716     21717
     21708     21713     21716     21718     21708     21713     21716     21719
     21709     21708     21706     21732     21709     21708     21713     21714
     21709     21708     21713     21715     21709     21708     21713     21716
     21710     21709     21708     21713     21711     21709     21708     21713
     21712     21709     21708     21713     21713     21708     21706     21732
     21713     21716     21719     21720     21713     21716     21719     21721
     21714     21713     21716     21717     21714     21713     21716     21718
     21714     21713     21716     21719     21715     21713     21716     21717
     21715     21713     21716     21718     21715     21713     21716     21719
     21716     21719     21721     21722     21716     21719     21721     21726
     21717     21716     21719     21720     21717     21716     21719     21721
     21718     21716     21719     21720     21718     21716     21719     21721
     21719     21721     21722     21723     21719     21721     21722     21724
     21719     21721     21722     21725     21719     21721     21726     21727
     21719     21721     21726     21728     21719     21721     21726     21729
     21720     21719     21721     21722     21720     21719     21721     21726
     21721     21726     21729     21730     21721     21726     21729     21731
     21722     21721     21726     21727     21722     21721     21726     21728
     21722     21721     21726     21729     21723     21722     21721     21726
     21724     21722     21721     21726     21725     21722     21721     21726
     21727     21726     21729     21730     21727     21726     21729     21731
     21728     21726     21729     21730     21728     21726     21729     21731
     21732     21738     21741     21742     21732     21738     21741     21743
     21732     21738     21741     21744     21733     21732     21734     21735
     21733     21732     21734     21736     21733     21732     21734     21737
     21733     21732     21738     21739     21733     21732     21738     21740
     21733     21732     21738     21741     21734     21732     21738     21739
     21734     21732     21738     21740     21734     21732     21738     21741
     21735     21734     21732     21738     21736     21734     21732     21738
     21737     21734     21732     21738     21738     21741     21744     21745
     21738     21741     21744     21746     21738     21741     21744     21747
     21739     21738     21741     21742     21739     21738     21741     21743
     21739     21738     21741     21744     21740     21738     21741     21742
     21740     21738     21741     21743     21740     21738     21741     21744
     21741     21744     21747     21748     21741     21744     21747     21749
     21741     21744     21747     21753     21742     21741     21744     21745
     21742     21741     21744     21746     21742     21741     21744     21747
     21743     21741     21744     21745     21743     21741     21744     21746
     21743     21741     21744     21747     21744     21747     21749     21750
     21744     21747     21749     21751     21744     21747     21749     21752
     21744     21747     21753     21754     21744     21747     21753     21755
     21744     21747     21753     21756     21745     21744     21747     21748
     21745     21744     21747     21749     21745     21744     21747     21753
     21746     21744     21747     21748     21746     21744     21747     21749
     21746     21744     21747     21753     21748     21747     21749     21750
     21748     21747     21749     21751     21748     21747     21749     21752
     21748     21747     21753     21754     21748     21747     21753     21755
     21748     21747     21753     21756     21749     21747     21753     21754
     21749     21747     21753     21755     21749     21747     21753     21756
     21750     21749     21747     21753     21751     21749     21747     21753
     21752     21749     21747     21753     21757     21761     21764     21765
     21757     21761     21764     21795     21757     21803     21800     21795
     21757     21803     21800     21801     21757     21803     21800     21802
     21758     21757     21759     21760     21758     21757     21761     21762
     21758     21757     21761     21763     21758     21757     21761     21764
     21758     21757     21803     21800     21758     21757     21803     21804
     21758     21757     21803     21805     21759     21757     21761     21762
     21759     21757     21761     21763     21759     21757     21761     21764
     21759     21757     21803     21800     21759     21757     21803     21804
     21759     21757     21803     21805     21760     21759     21757     21761
     21760     21759     21757     21803     21761     21757     21803     21800
     21761     21757     21803     21804     21761     21757     21803     21805
     21761     21764     21765     21766     21761     21764     21765     21767
     21761     21764     21795     21793     21761     21764     21795     21796
     21761     21764     21795     21800     21762     21761     21757     21803
     21762     21761     21764     21765     21762     21761     21764     21795
     21763     21761     21757     21803     21763     21761     21764     21765
     21763     21761     21764     21795     21764     21761     21757     21803
     21764     21765     21767     21768     21764     21765     21767     21769
     21764     21765     21767     21770     21764     21795     21793     21770
     21764     21795     21793     21790     21764     21795     21793     21794
     21764     21795     21796     21797     21764     21795     21796     21798
     21764     21795     21796     21799     21764     21795     21800     21801
     21764     21795     21800     21802     21764     21795     21800     21803
     21765     21764     21795     21793     21765     21764     21795     21796
     21765     21764     21795     21800     21765     21767     21770     21771
     21765     21767     21770     21772     21765     21767     21770     21793
     21766     21765     21764     21795     21766     21765     21767     21768
     21766     21765     21767     21769     21766     21765     21767     21770
     21767     21765     21764     21795     21767     21770     21772     21773
     21767     21770     21772     21774     21767     21770     21772     21782
     21767     21770     21793     21790     21767     21770     21793     21794
     21767     21770     21793     21795     21768     21767     21770     21771
     21768     21767     21770     21772     21768     21767     21770     21793
     21769     21767     21770     21771     21769     21767     21770     21772
     21769     21767     21770     21793     21770     21772     21774     21775
     21770     21772     21774     21776     21770     21772     21774     21777
     21770     21772     21782     21780     21770     21772     21782     21783
     21770     21772     21782     21787     21770     21793     21790     21787
     21770     21793     21790     21791     21770     21793     21790     21792
     21770     21793     21795     21796     21770     21793     21795     21800
     21771     21770     21772     21773     21771     21770     21772     21774
     21771     21770     21772     21782     21771     21770     21793     21790
     21771     21770     21793     21794     21771     21770     21793     21795
     21772     21770     21793     21790     21772     21770     21793     21794
     21772     21770     21793     21795     21772     21774     21777     21778
     21772     21774     21777     21779     21772     21774     21777     21780
     21772     21782     21780     21777     21772     21782     21780     21781
     21772     21782     21780     21806     21772     21782     21783     21784
     21772     21782     21783     21785     21772     21782     21783     21786
     21772     21782     21787     21788     21772     21782     21787     21789
     21772     21782     21787     21790     21773     21772     21770     21793
     21773     21772     21774     21775     21773     21772     21774     21776
     21773     21772     21774     21777     21773     21772     21782     21780
     21773     21772     21782     21783     21773     21772     21782     21787
     21774     21772     21770     21793     21774     21772     21782     21780
     21774     21772     21782     21783     21774     21772     21782     21787
     21774     21777     21780     21781     21774     21777     21780     21782
     21774     21777     21780     21806     21775     21774     21772     21782
     21775     21774     21777     21778     21775     21774     21777     21779
     21775     21774     21777     21780     21776     21774     21772     21782
     21776     21774     21777     21778     21776     21774     21777     21779
     21776     21774     21777     21780     21777     21774     21772     21782
     21777     21780     21782     21783     21777     21780     21782     21787
     21777     21780     21806     21807     21777     21780     21806     21808
     21777     21780     21806     21812     21778     21777     21780     21781
     21778     21777     21780     21782     21778     21777     21780     21806
     21779     21777     21780     21781     21779     21777     21780     21782
     21779     21777     21780     21806     21780     21782     21783     21784
     21780     21782     21783     21785     21780     21782     21783     21786
     21780     21782     21787     21788     21780     21782     21787     21789
     21780     21782     21787     21790     21780     21806     21808     21809
     21780     21806     21808     21810     21780     21806     21808     21811
     21780     21806     21812     21813     21780     21806     21812     21814
     21780     21806     21812     21815     21781     21780     21782     21783
     21781     21780     21782     21787     21781     21780     21806     21807
     21781     21780     21806     21808     21781     21780     21806     21812
     21782     21772     21770     21793     21782     21780     21806     21807
     21782     21780     21806     21808     21782     21780     21806     21812
     21782     21787     21790     21791     21782     21787     21790     21792
     21782     21787     21790     21793     21783     21782     21780     21806
     21783     21782     21787     21788     21783     21782     21787     21789
     21783     21782     21787     21790     21784     21783     21782     21787
     21785     21783     21782     21787     21786     21783     21782     21787
     21787     21782     21780     21806     21787     21790     21793     21794
     21787     21790     21793     21795     21788     21787     21790     21791
     21788     21787     21790     21792     21788     21787     21790     21793
     21789     21787     21790     21791     21789     21787     21790     21792
     21789     21787     21790     21793     21790     21793     21795     21796
     21790     21793     21795     21800     21791     21790     21793     21794
     21791     21790     21793     21795     21792     21790     21793     21794
     21792     21790     21793     21795     21793     21795     21796     21797
     21793     21795     21796     21798     21793     21795     21796     21799
     21793     21795     21800     21801     21793     21795     21800     21802
     21793     21795     21800     21803     21794     21793     21795     21796
     21794     21793     21795     21800     21795     21800     21803     21804
     21795     21800     21803     21805     21796     21795     21800     21801
     21796     21795     21800     21802     21796     21795     21800     21803
     21797     21796     21795     21800     21798     21796     21795     21800
     21799     21796     21795     21800     21801     21800     21803     21804
     21801     21800     21803     21805     21802     21800     21803     21804
     21802     21800     21803     21805     21806     21812     21815     21816
     21806     21812     21815     21817     21806     21812     21815     21818
     21807     21806     21808     21809     21807     21806     21808     21810
     21807     21806     21808     21811     21807     21806     21812     21813
     21807     21806     21812     21814     21807     21806     21812     21815
     21808     21806     21812     21813     21808     21806     21812     21814
     21808     21806     21812     21815     21809     21808     21806     21812
     21810     21808     21806     21812     21811     21808     21806     21812
     21812     21815     21818     21819     21812     21815     21818     21820
     21812     21815     21818     21821     21813     21812     21815     21816
     21813     21812     21815     21817     21813     21812     21815     21818
     21814     21812     21815     21816     21814     21812     21815     21817
     21814     21812     21815     21818     21815     21818     21821     21822
     21815     21818     21821     21823     21815     21818     21821     21827
     21816     21815     21818     21819     21816     21815     21818     21820
     21816     21815     21818     21821     21817     21815     21818     21819
     21817     21815     21818     21820     21817     21815     21818     21821
     21818     21821     21823     21824     21818     21821     21823     21825
     21818     21821     21823     21826     21818     21821     21827     21828
     21818     21821     21827     21829     21818     21821     21827     21830
     21819     21818     21821     21822     21819     21818     21821     21823
     21819     21818     21821     21827     21820     21818     21821     21822
     21820     21818     21821     21823     21820     21818     21821     21827
     21822     21821     21823     21824     21822     21821     21823     21825
     21822     21821     21823     21826     21822     21821     21827     21828
     21822     21821     21827     21829     21822     21821     21827     21830
     21823     21821     21827     21828     21823     21821     21827     21829
     21823     21821     21827     21830     21824     21823     21821     21827
     21825     21823     21821     21827     21826     21823     21821     21827
     21831     21835     21838     21839     21831     21835     21838     21869
     21831     21877     21874     21869     21831     21877     21874     21875
     21831     21877     21874     21876     21832     21831     21833     21834
     21832     21831     21835     21836     21832     21831     21835     21837
     21832     21831     21835     21838     21832     21831     21877     21874
     21832     21831     21877     21878     21832     21831     21877     21879
     21833     21831     21835     21836     21833     21831     21835     21837
     21833     21831     21835     21838     21833     21831     21877     21874
     21833     21831     21877     21878     21833     21831     21877     21879
     21834     21833     21831     21835     21834     21833     21831     21877
     21835     21831     21877     21874     21835     21831     21877     21878
     21835     21831     21877     21879     21835     21838     21839     21840
     21835     21838     21839     21841     21835     21838     21869     21867
     21835     21838     21869     21870     21835     21838     21869     21874
     21836     21835     21831     21877     21836     21835     21838     21839
     21836     21835     21838     21869     21837     21835     21831     21877
     21837     21835     21838     21839     21837     21835     21838     21869
     21838     21835     21831     21877     21838     21839     21841     21842
     21838     21839     21841     21843     21838     21839     21841     21844
     21838     21869     21867     21844     21838     21869     21867     21864
     21838     21869     21867     21868     21838     21869     21870     21871
     21838     21869     21870     21872     21838     21869     21870     21873
     21838     21869     21874     21875     21838     21869     21874     21876
     21838     21869     21874     21877     21839     21838     21869     21867
     21839     21838     21869     21870     21839     21838     21869     21874
     21839     21841     21844     21845     21839     21841     21844     21846
     21839     21841     21844     21867     21840     21839     21838     21869
     21840     21839     21841     21842     21840     21839     21841     21843
     21840     21839     21841     21844     21841     21839     21838     21869
     21841     21844     21846     21847     21841     21844     21846     21848
     21841     21844     21846     21856     21841     21844     21867     21864
     21841     21844     21867     21868     21841     21844     21867     21869
     21842     21841     21844     21845     21842     21841     21844     21846
     21842     21841     21844     21867     21843     21841     21844     21845
     21843     21841     21844     21846     21843     21841     21844     21867
     21844     21846     21848     21849     21844     21846     21848     21850
     21844     21846     21848     21851     21844     21846     21856     21854
     21844     21846     21856     21857     21844     21846     21856     21861
     21844     21867     21864     21861     21844     21867     21864     21865
     21844     21867     21864     21866     21844     21867     21869     21870
     21844     21867     21869     21874     21845     21844     21846     21847
     21845     21844     21846     21848     21845     21844     21846     21856
     21845     21844     21867     21864     21845     21844     21867     21868
     21845     21844     21867     21869     21846     21844     21867     21864
     21846     21844     21867     21868     21846     21844     21867     21869
     21846     21848     21851     21852     21846     21848     21851     21853
     21846     21848     21851     21854     21846     21856     21854     21851
     21846     21856     21854     21855     21846     21856     21854     21880
     21846     21856     21857     21858     21846     21856     21857     21859
     21846     21856     21857     21860     21846     21856     21861     21862
     21846     21856     21861     21863     21846     21856     21861     21864
     21847     21846     21844     21867     21847     21846     21848     21849
     21847     21846     21848     21850     21847     21846     21848     21851
     21847     21846     21856     21854     21847     21846     21856     21857
     21847     21846     21856     21861     21848     21846     21844     21867
     21848     21846     21856     21854     21848     21846     21856     21857
     21848     21846     21856     21861     21848     21851     21854     21855
     21848     21851     21854     21856     21848     21851     21854     21880
     21849     21848     21846     21856     21849     21848     21851     21852
     21849     21848     21851     21853     21849     21848     21851     21854
     21850     21848     21846     21856     21850     21848     21851     21852
     21850     21848     21851     21853     21850     21848     21851     21854
     21851     21848     21846     21856     21851     21854     21856     21857
     21851     21854     21856     21861     21851     21854     21880     21881
     21851     21854     21880     21882     21851     21854     21880     21886
     21852     21851     21854     21855     21852     21851     21854     21856
     21852     21851     21854     21880     21853     21851     21854     21855
     21853     21851     21854     21856     21853     21851     21854     21880
     21854     21856     21857     21858     21854     21856     21857     21859
     21854     21856     21857     21860     21854     21856     21861     21862
     21854     21856     21861     21863     21854     21856     21861     21864
     21854     21880     21882     21883     21854     21880     21882     21884
     21854     21880     21882     21885     21854     21880     21886     21887
     21854     21880     21886     21888     21854     21880     21886     21889
     21855     21854     21856     21857     21855     21854     21856     21861
     21855     21854     21880     21881     21855     21854     21880     21882
     21855     21854     21880     21886     21856     21846     21844     21867
     21856     21854     21880     21881     21856     21854     21880     21882
     21856     21854     21880     21886     21856     21861     21864     21865
     21856     21861     21864     21866     21856     21861     21864     21867
     21857     21856     21854     21880     21857     21856     21861     21862
     21857     21856     21861     21863     21857     21856     21861     21864
     21858     21857     21856     21861     21859     21857     21856     21861
     21860     21857     21856     21861     21861     21856     21854     21880
     21861     21864     21867     21868     21861     21864     21867     21869
     21862     21861     21864     21865     21862     21861     21864     21866
     21862     21861     21864     21867     21863     21861     21864     21865
     21863     21861     21864     21866     21863     21861     21864     21867
     21864     21867     21869     21870     21864     21867     21869     21874
     21865     21864     21867     21868     21865     21864     21867     21869
     21866     21864     21867     21868     21866     21864     21867     21869
     21867     21869     21870     21871     21867     21869     21870     21872
     21867     21869     21870     21873     21867     21869     21874     21875
     21867     21869     21874     21876     21867     21869     21874     21877
     21868     21867     21869     21870     21868     21867     21869     21874
     21869     21874     21877     21878     21869     21874     21877     21879
     21870     21869     21874     21875     21870     21869     21874     21876
     21870     21869     21874     21877     21871     21870     21869     21874
     21872     21870     21869     21874     21873     21870     21869     21874
     21875     21874     21877     21878     21875     21874     21877     21879
     21876     21874     21877     21878     21876     21874     21877     21879
     21880     21886     21889     21890     21880     21886     21889     21891
     21880     21886     21889     21892     21881     21880     21882     21883
     21881     21880     21882     21884     21881     21880     21882     21885
     21881     21880     21886     21887     21881     21880     21886     21888
     21881     21880     21886     21889     21882     21880     21886     21887
     21882     21880     21886     21888     21882     21880     21886     21889
     21883     21882     21880     21886     21884     21882     21880     21886
     21885     21882     21880     21886     21886     21889     21892     21893
     21886     21889     21892     21894     21886     21889     21892     21895
     21887     21886     21889     21890     21887     21886     21889     21891
     21887     21886     21889     21892     21888     21886     21889     21890
     21888     21886     21889     21891     21888     21886     21889     21892
     21889     21892     21895     21896     21889     21892     21895     21897
     21889     21892     21895     21901     21890     21889     21892     21893
     21890     21889     21892     21894     21890     21889     21892     21895
     21891     21889     21892     21893     21891     21889     21892     21894
     21891     21889     21892     21895     21892     21895     21897     21898
     21892     21895     21897     21899     21892     21895     21897     21900
     21892     21895     21901     21902     21892     21895     21901     21903
     21892     21895     21901     21904     21893     21892     21895     21896
     21893     21892     21895     21897     21893     21892     21895     21901
     21894     21892     21895     21896     21894     21892     21895     21897
     21894     21892     21895     21901     21896     21895     21897     21898
     21896     21895     21897     21899     21896     21895     21897     21900
     21896     21895     21901     21902     21896     21895     21901     21903
     21896     21895     21901     21904     21897     21895     21901     21902
     21897     21895     21901     21903     21897     21895     21901     21904
     21898     21897     21895     21901     21899     21897     21895     21901
     21900     21897     21895     21901     21905     21909     21912     21913
     21905     21909     21912     21943     21905     21951     21948     21943
     21905     21951     21948     21949     21905     21951     21948     21950
     21906     21905     21907     21908     21906     21905     21909     21910
     21906     21905     21909     21911     21906     21905     21909     21912
     21906     21905     21951     21948     21906     21905     21951     21952
     21906     21905     21951     21953     21907     21905     21909     21910
     21907     21905     21909     21911     21907     21905     21909     21912
     21907     21905     21951     21948     21907     21905     21951     21952
     21907     21905     21951     21953     21908     21907     21905     21909
     21908     21907     21905     21951     21909     21905     21951     21948
     21909     21905     21951     21952     21909     21905     21951     21953
     21909     21912     21913     21914     21909     21912     21913     21915
     21909     21912     21943     21941     21909     21912     21943     21944
     21909     21912     21943     21948     21910     21909     21905     21951
     21910     21909     21912     21913     21910     21909     21912     21943
     21911     21909     21905     21951     21911     21909     21912     21913
     21911     21909     21912     21943     21912     21909     21905     21951
     21912     21913     21915     21916     21912     21913     21915     21917
     21912     21913     21915     21918     21912     21943     21941     21918
     21912     21943     21941     21938     21912     21943     21941     21942
     21912     21943     21944     21945     21912     21943     21944     21946
     21912     21943     21944     21947     21912     21943     21948     21949
     21912     21943     21948     21950     21912     21943     21948     21951
     21913     21912     21943     21941     21913     21912     21943     21944
     21913     21912     21943     21948     21913     21915     21918     21919
     21913     21915     21918     21920     21913     21915     21918     21941
     21914     21913     21912     21943     21914     21913     21915     21916
     21914     21913     21915     21917     21914     21913     21915     21918
     21915     21913     21912     21943     21915     21918     21920     21921
     21915     21918     21920     21922     21915     21918     21920     21930
     21915     21918     21941     21938     21915     21918     21941     21942
     21915     21918     21941     21943     21916     21915     21918     21919
     21916     21915     21918     21920     21916     21915     21918     21941
     21917     21915     21918     21919     21917     21915     21918     21920
     21917     21915     21918     21941     21918     21920     21922     21923
     21918     21920     21922     21924     21918     21920     21922     21925
     21918     21920     21930     21928     21918     21920     21930     21931
     21918     21920     21930     21935     21918     21941     21938     21935
     21918     21941     21938     21939     21918     21941     21938     21940
     21918     21941     21943     21944     21918     21941     21943     21948
     21919     21918     21920     21921     21919     21918     21920     21922
     21919     21918     21920     21930     21919     21918     21941     21938
     21919     21918     21941     21942     21919     21918     21941     21943
     21920     21918     21941     21938     21920     21918     21941     21942
     21920     21918     21941     21943     21920     21922     21925     21926
     21920     21922     21925     21927     21920     21922     21925     21928
     21920     21930     21928     21925     21920     21930     21928     21929
     21920     21930     21928     21954     21920     21930     21931     21932
     21920     21930     21931     21933     21920     21930     21931     21934
     21920     21930     21935     21936     21920     21930     21935     21937
     21920     21930     21935     21938     21921     21920     21918     21941
     21921     21920     21922     21923     21921     21920     21922     21924
     21921     21920     21922     21925     21921     21920     21930     21928
     21921     21920     21930     21931     21921     21920     21930     21935
     21922     21920     21918     21941     21922     21920     21930     21928
     21922     21920     21930     21931     21922     21920     21930     21935
     21922     21925     21928     21929     21922     21925     21928     21930
     21922     21925     21928     21954     21923     21922     21920     21930
     21923     21922     21925     21926     21923     21922     21925     21927
     21923     21922     21925     21928     21924     21922     21920     21930
     21924     21922     21925     21926     21924     21922     21925     21927
     21924     21922     21925     21928     21925     21922     21920     21930
     21925     21928     21930     21931     21925     21928     21930     21935
     21925     21928     21954     21955     21925     21928     21954     21956
     21925     21928     21954     21960     21926     21925     21928     21929
     21926     21925     21928     21930     21926     21925     21928     21954
     21927     21925     21928     21929     21927     21925     21928     21930
     21927     21925     21928     21954     21928     21930     21931     21932
     21928     21930     21931     21933     21928     21930     21931     21934
     21928     21930     21935     21936     21928     21930     21935     21937
     21928     21930     21935     21938     21928     21954     21956     21957
     21928     21954     21956     21958     21928     21954     21956     21959
     21928     21954     21960     21961     21928     21954     21960     21962
     21928     21954     21960     21963     21929     21928     21930     21931
     21929     21928     21930     21935     21929     21928     21954     21955
     21929     21928     21954     21956     21929     21928     21954     21960
     21930     21920     21918     21941     21930     21928     21954     21955
     21930     21928     21954     21956     21930     21928     21954     21960
     21930     21935     21938     21939     21930     21935     21938     21940
     21930     21935     21938     21941     21931     21930     21928     21954
     21931     21930     21935     21936     21931     21930     21935     21937
     21931     21930     21935     21938     21932     21931     21930     21935
     21933     21931     21930     21935     21934     21931     21930     21935
     21935     21930     21928     21954     21935     21938     21941     21942
     21935     21938     21941     21943     21936     21935     21938     21939
     21936     21935     21938     21940     21936     21935     21938     21941
     21937     21935     21938     21939     21937     21935     21938     21940
     21937     21935     21938     21941     21938     21941     21943     21944
     21938     21941     21943     21948     21939     21938     21941     21942
     21939     21938     21941     21943     21940     21938     21941     21942
     21940     21938     21941     21943     21941     21943     21944     21945
     21941     21943     21944     21946     21941     21943     21944     21947
     21941     21943     21948     21949     21941     21943     21948     21950
     21941     21943     21948     21951     21942     21941     21943     21944
     21942     21941     21943     21948     21943     21948     21951     21952
     21943     21948     21951     21953     21944     21943     21948     21949
     21944     21943     21948     21950     21944     21943     21948     21951
     21945     21944     21943     21948     21946     21944     21943     21948
     21947     21944     21943     21948     21949     21948     21951     21952
     21949     21948     21951     21953     21950     21948     21951     21952
     21950     21948     21951     21953     21954     21960     21963     21964
     21954     21960     21963     21965     21954     21960     21963     21966
     21955     21954     21956     21957     21955     21954     21956     21958
     21955     21954     21956     21959     21955     21954     21960     21961
     21955     21954     21960     21962     21955     21954     21960     21963
     21956     21954     21960     21961     21956     21954     21960     21962
     21956     21954     21960     21963     21957     21956     21954     21960
     21958     21956     21954     21960     21959     21956     21954     21960
     21960     21963     21966     21967     21960     21963     21966     21968
     21960     21963     21966     21969     21961     21960     21963     21964
     21961     21960     21963     21965     21961     21960     21963     21966
     21962     21960     21963     21964     21962     21960     21963     21965
     21962     21960     21963     21966     21963     21966     21969     21970
     21963     21966     21969     21971     21963     21966     21969     21975
     21964     21963     21966     21967     21964     21963     21966     21968
     21964     21963     21966     21969     21965     21963     21966     21967
     21965     21963     21966     21968     21965     21963     21966     21969
     21966     21969     21971     21972     21966     21969     21971     21973
     21966     21969     21971     21974     21966     21969     21975     21976
     21966     21969     21975     21977     21966     21969     21975     21978
     21967     21966     21969     21970     21967     21966     21969     21971
     21967     21966     21969     21975     21968     21966     21969     21970
     21968     21966     21969     21971     21968     21966     21969     21975
     21970     21969     21971     21972     21970     21969     21971     21973
     21970     21969     21971     21974     21970     21969     21975     21976
     21970     21969     21975     21977     21970     21969     21975     21978
     21971     21969     21975     21976     21971     21969     21975     21977
     21971     21969     21975     21978     21972     21971     21969     21975
     21973     21971     21969     21975     21974     21971     21969     21975
     21979     21983     21986     21987     21979     21983     21986     22017
     21979     22025     22022     22017     21979     22025     22022     22023
     21979     22025     22022     22024     21980     21979     21981     21982
     21980     21979     21983     21984     21980     21979     21983     21985
     21980     21979     21983     21986     21980     21979     22025     22022
     21980     21979     22025     22026     21980     21979     22025     22027
     21981     21979     21983     21984     21981     21979     21983     21985
     21981     21979     21983     21986     21981     21979     22025     22022
     21981     21979     22025     22026     21981     21979     22025     22027
     21982     21981     21979     21983     21982     21981     21979     22025
     21983     21979     22025     22022     21983     21979     22025     22026
     21983     21979     22025     22027     21983     21986     21987     21988
     21983     21986     21987     21989     21983     21986     22017     22015
     21983     21986     22017     22018     21983     21986     22017     22022
     21984     21983     21979     22025     21984     21983     21986     21987
     21984     21983     21986     22017     21985     21983     21979     22025
     21985     21983     21986     21987     21985     21983     21986     22017
     21986     21983     21979     22025     21986     21987     21989     21990
     21986     21987     21989     21991     21986     21987     21989     21992
     21986     22017     22015     21992     21986     22017     22015     22012
     21986     22017     22015     22016     21986     22017     22018     22019
     21986     22017     22018     22020     21986     22017     22018     22021
     21986     22017     22022     22023     21986     22017     22022     22024
     21986     22017     22022     22025     21987     21986     22017     22015
     21987     21986     22017     22018     21987     21986     22017     22022
     21987     21989     21992     21993     21987     21989     21992     21994
     21987     21989     21992     22015     21988     21987     21986     22017
     21988     21987     21989     21990     21988     21987     21989     21991
     21988     21987     21989     21992     21989     21987     21986     22017
     21989     21992     21994     21995     21989     21992     21994     21996
     21989     21992     21994     22004     21989     21992     22015     22012
     21989     21992     22015     22016     21989     21992     22015     22017
     21990     21989     21992     21993     21990     21989     21992     21994
     21990     21989     21992     22015     21991     21989     21992     21993
     21991     21989     21992     21994     21991     21989     21992     22015
     21992     21994     21996     21997     21992     21994     21996     21998
     21992     21994     21996     21999     21992     21994     22004     22002
     21992     21994     22004     22005     21992     21994     22004     22009
     21992     22015     22012     22009     21992     22015     22012     22013
     21992     22015     22012     22014     21992     22015     22017     22018
     21992     22015     22017     22022     21993     21992     21994     21995
     21993     21992     21994     21996     21993     21992     21994     22004
     21993     21992     22015     22012     21993     21992     22015     22016
     21993     21992     22015     22017     21994     21992     22015     22012
     21994     21992     22015     22016     21994     21992     22015     22017
     21994     21996     21999     22000     21994     21996     21999     22001
     21994     21996     21999     22002     21994     22004     22002     21999
     21994     22004     22002     22003     21994     22004     22002     22028
     21994     22004     22005     22006     21994     22004     22005     22007
     21994     22004     22005     22008     21994     22004     22009     22010
     21994     22004     22009     22011     21994     22004     22009     22012
     21995     21994     21992     22015     21995     21994     21996     21997
     21995     21994     21996     21998     21995     21994     21996     21999
     21995     21994     22004     22002     21995     21994     22004     22005
     21995     21994     22004     22009     21996     21994     21992     22015
     21996     21994     22004     22002     21996     21994     22004     22005
     21996     21994     22004     22009     21996     21999     22002     22003
     21996     21999     22002     22004     21996     21999     22002     22028
     21997     21996     21994     22004     21997     21996     21999     22000
     21997     21996     21999     22001     21997     21996     21999     22002
     21998     21996     21994     22004     21998     21996     21999     22000
     21998     21996     21999     22001     21998     21996     21999     22002
     21999     21996     21994     22004     21999     22002     22004     22005
     21999     22002     22004     22009     21999     22002     22028     22029
     21999     22002     22028     22030     21999     22002     22028     22034
     22000     21999     22002     22003     22000     21999     22002     22004
     22000     21999     22002     22028     22001     21999     22002     22003
     22001     21999     22002     22004     22001     21999     22002     22028
     22002     22004     22005     22006     22002     22004     22005     22007
     22002     22004     22005     22008     22002     22004     22009     22010
     22002     22004     22009     22011     22002     22004     22009     22012
     22002     22028     22030     22031     22002     22028     22030     22032
     22002     22028     22030     22033     22002     22028     22034     22035
     22002     22028     22034     22036     22002     22028     22034     22037
     22003     22002     22004     22005     22003     22002     22004     22009
     22003     22002     22028     22029     22003     22002     22028     22030
     22003     22002     22028     22034     22004     21994     21992     22015
     22004     22002     22028     22029     22004     22002     22028     22030
     22004     22002     22028     22034     22004     22009     22012     22013
     22004     22009     22012     22014     22004     22009     22012     22015
     22005     22004     22002     22028     22005     22004     22009     22010
     22005     22004     22009     22011     22005     22004     22009     22012
     22006     22005     22004     22009     22007     22005     22004     22009
     22008     22005     22004     22009     22009     22004     22002     22028
     22009     22012     22015     22016     22009     22012     22015     22017
     22010     22009     22012     22013     22010     22009     22012     22014
     22010     22009     22012     22015     22011     22009     22012     22013
     22011     22009     22012     22014     22011     22009     22012     22015
     22012     22015     22017     22018     22012     22015     22017     22022
     22013     22012     22015     22016     22013     22012     22015     22017
     22014     22012     22015     22016     22014     22012     22015     22017
     22015     22017     22018     22019     22015     22017     22018     22020
     22015     22017     22018     22021     22015     22017     22022     22023
     22015     22017     22022     22024     22015     22017     22022     22025
     22016     22015     22017     22018     22016     22015     22017     22022
     22017     22022     22025     22026     22017     22022     22025     22027
     22018     22017     22022     22023     22018     22017     22022     22024
     22018     22017     22022     22025     22019     22018     22017     22022
     22020     22018     22017     22022     22021     22018     22017     22022
     22023     22022     22025     22026     22023     22022     22025     22027
     22024     22022     22025     22026     22024     22022     22025     22027
     22028     22034     22037     22038     22028     22034     22037     22039
     22028     22034     22037     22040     22029     22028     22030     22031
     22029     22028     22030     22032     22029     22028     22030     22033
     22029     22028     22034     22035     22029     22028     22034     22036
     22029     22028     22034     22037     22030     22028     22034     22035
     22030     22028     22034     22036     22030     22028     22034     22037
     22031     22030     22028     22034     22032     22030     22028     22034
     22033     22030     22028     22034     22034     22037     22040     22041
     22034     22037     22040     22042     22034     22037     22040     22043
     22035     22034     22037     22038     22035     22034     22037     22039
     22035     22034     22037     22040     22036     22034     22037     22038
     22036     22034     22037     22039     22036     22034     22037     22040
     22037     22040     22043     22044     22037     22040     22043     22045
     22037     22040     22043     22049     22038     22037     22040     22041
     22038     22037     22040     22042     22038     22037     22040     22043
     22039     22037     22040     22041     22039     22037     22040     22042
     22039     22037     22040     22043     22040     22043     22045     22046
     22040     22043     22045     22047     22040     22043     22045     22048
     22040     22043     22049     22050     22040     22043     22049     22051
     22040     22043     22049     22052     22041     22040     22043     22044
     22041     22040     22043     22045     22041     22040     22043     22049
     22042     22040     22043     22044     22042     22040     22043     22045
     22042     22040     22043     22049     22044     22043     22045     22046
     22044     22043     22045     22047     22044     22043     22045     22048
     22044     22043     22049     22050     22044     22043     22049     22051
     22044     22043     22049     22052     22045     22043     22049     22050
     22045     22043     22049     22051     22045     22043     22049     22052
     22046     22045     22043     22049     22047     22045     22043     22049
     22048     22045     22043     22049     22053     22057     22060     22061
     22053     22057     22060     22091     22053     22099     22096     22091
     22053     22099     22096     22097     22053     22099     22096     22098
     22054     22053     22055     22056     22054     22053     22057     22058
     22054     22053     22057     22059     22054     22053     22057     22060
     22054     22053     22099     22096     22054     22053     22099     22100
     22054     22053     22099     22101     22055     22053     22057     22058
     22055     22053     22057     22059     22055     22053     22057     22060
     22055     22053     22099     22096     22055     22053     22099     22100
     22055     22053     22099     22101     22056     22055     22053     22057
     22056     22055     22053     22099     22057     22053     22099     22096
     22057     22053     22099     22100     22057     22053     22099     22101
     22057     22060     22061     22062     22057     22060     22061     22063
     22057     22060     22091     22089     22057     22060     22091     22092
     22057     22060     22091     22096     22058     22057     22053     22099
     22058     22057     22060     22061     22058     22057     22060     22091
     22059     22057     22053     22099     22059     22057     22060     22061
     22059     22057     22060     22091     22060     22057     22053     22099
     22060     22061     22063     22064     22060     22061     22063     22065
     22060     22061     22063     22066     22060     22091     22089     22066
     22060     22091     22089     22086     22060     22091     22089     22090
     22060     22091     22092     22093     22060     22091     22092     22094
     22060     22091     22092     22095     22060     22091     22096     22097
     22060     22091     22096     22098     22060     22091     22096     22099
     22061     22060     22091     22089     22061     22060     22091     22092
     22061     22060     22091     22096     22061     22063     22066     22067
     22061     22063     22066     22068     22061     22063     22066     22089
     22062     22061     22060     22091     22062     22061     22063     22064
     22062     22061     22063     22065     22062     22061     22063     22066
     22063     22061     22060     22091     22063     22066     22068     22069
     22063     22066     22068     22070     22063     22066     22068     22078
     22063     22066     22089     22086     22063     22066     22089     22090
     22063     22066     22089     22091     22064     22063     22066     22067
     22064     22063     22066     22068     22064     22063     22066     22089
     22065     22063     22066     22067     22065     22063     22066     22068
     22065     22063     22066     22089     22066     22068     22070     22071
     22066     22068     22070     22072     22066     22068     22070     22073
     22066     22068     22078     22076     22066     22068     22078     22079
     22066     22068     22078     22083     22066     22089     22086     22083
     22066     22089     22086     22087     22066     22089     22086     22088
     22066     22089     22091     22092     22066     22089     22091     22096
     22067     22066     22068     22069     22067     22066     22068     22070
     22067     22066     22068     22078     22067     22066     22089     22086
     22067     22066     22089     22090     22067     22066     22089     22091
     22068     22066     22089     22086     22068     22066     22089     22090
     22068     22066     22089     22091     22068     22070     22073     22074
     22068     22070     22073     22075     22068     22070     22073     22076
     22068     22078     22076     22073     22068     22078     22076     22077
     22068     22078     22076     22102     22068     22078     22079     22080
     22068     22078     22079     22081     22068     22078     22079     22082
     22068     22078     22083     22084     22068     22078     22083     22085
     22068     22078     22083     22086     22069     22068     22066     22089
     22069     22068     22070     22071     22069     22068     22070     22072
     22069     22068     22070     22073     22069     22068     22078     22076
     22069     22068     22078     22079     22069     22068     22078     22083
     22070     22068     22066     22089     22070     22068     22078     22076
     22070     22068     22078     22079     22070     22068     22078     22083
     22070     22073     22076     22077     22070     22073     22076     22078
     22070     22073     22076     22102     22071     22070     22068     22078
     22071     22070     22073     22074     22071     22070     22073     22075
     22071     22070     22073     22076     22072     22070     22068     22078
     22072     22070     22073     22074     22072     22070     22073     22075
     22072     22070     22073     22076     22073     22070     22068     22078
     22073     22076     22078     22079     22073     22076     22078     22083
     22073     22076     22102     22103     22073     22076     22102     22104
     22073     22076     22102     22108     22074     22073     22076     22077
     22074     22073     22076     22078     22074     22073     22076     22102
     22075     22073     22076     22077     22075     22073     22076     22078
     22075     22073     22076     22102     22076     22078     22079     22080
     22076     22078     22079     22081     22076     22078     22079     22082
     22076     22078     22083     22084     22076     22078     22083     22085
     22076     22078     22083     22086     22076     22102     22104     22105
     22076     22102     22104     22106     22076     22102     22104     22107
     22076     22102     22108     22109     22076     22102     22108     22110
     22076     22102     22108     22111     22077     22076     22078     22079
     22077     22076     22078     22083     22077     22076     22102     22103
     22077     22076     22102     22104     22077     22076     22102     22108
     22078     22068     22066     22089     22078     22076     22102     22103
     22078     22076     22102     22104     22078     22076     22102     22108
     22078     22083     22086     22087     22078     22083     22086     22088
     22078     22083     22086     22089     22079     22078     22076     22102
     22079     22078     22083     22084     22079     22078     22083     22085
     22079     22078     22083     22086     22080     22079     22078     22083
     22081     22079     22078     22083     22082     22079     22078     22083
     22083     22078     22076     22102     22083     22086     22089     22090
     22083     22086     22089     22091     22084     22083     22086     22087
     22084     22083     22086     22088     22084     22083     22086     22089
     22085     22083     22086     22087     22085     22083     22086     22088
     22085     22083     22086     22089     22086     22089     22091     22092
     22086     22089     22091     22096     22087     22086     22089     22090
     22087     22086     22089     22091     22088     22086     22089     22090
     22088     22086     22089     22091     22089     22091     22092     22093
     22089     22091     22092     22094     22089     22091     22092     22095
     22089     22091     22096     22097     22089     22091     22096     22098
     22089     22091     22096     22099     22090     22089     22091     22092
     22090     22089     22091     22096     22091     22096     22099     22100
     22091     22096     22099     22101     22092     22091     22096     22097
     22092     22091     22096     22098     22092     22091     22096     22099
     22093     22092     22091     22096     22094     22092     22091     22096
     22095     22092     22091     22096     22097     22096     22099     22100
     22097     22096     22099     22101     22098     22096     22099     22100
     22098     22096     22099     22101     22102     22108     22111     22112
     22102     22108     22111     22113     22102     22108     22111     22114
     22103     22102     22104     22105     22103     22102     22104     22106
     22103     22102     22104     22107     22103     22102     22108     22109
     22103     22102     22108     22110     22103     22102     22108     22111
     22104     22102     22108     22109     22104     22102     22108     22110
     22104     22102     22108     22111     22105     22104     22102     22108
     22106     22104     22102     22108     22107     22104     22102     22108
     22108     22111     22114     22115     22108     22111     22114     22116
     22108     22111     22114     22117     22109     22108     22111     22112
     22109     22108     22111     22113     22109     22108     22111     22114
     22110     22108     22111     22112     22110     22108     22111     22113
     22110     22108     22111     22114     22111     22114     22117     22118
     22111     22114     22117     22119     22111     22114     22117     22123
     22112     22111     22114     22115     22112     22111     22114     22116
     22112     22111     22114     22117     22113     22111     22114     22115
     22113     22111     22114     22116     22113     22111     22114     22117
     22114     22117     22119     22120     22114     22117     22119     22121
     22114     22117     22119     22122     22114     22117     22123     22124
     22114     22117     22123     22125     22114     22117     22123     22126
     22115     22114     22117     22118     22115     22114     22117     22119
     22115     22114     22117     22123     22116     22114     22117     22118
     22116     22114     22117     22119     22116     22114     22117     22123
     22118     22117     22119     22120     22118     22117     22119     22121
     22118     22117     22119     22122     22118     22117     22123     22124
     22118     22117     22123     22125     22118     22117     22123     22126
     22119     22117     22123     22124     22119     22117     22123     22125
     22119     22117     22123     22126     22120     22119     22117     22123
     22121     22119     22117     22123     22122     22119     22117     22123
     22127     22131     22134     22135     22127     22131     22134     22165
     22127     22173     22170     22165     22127     22173     22170     22171
     22127     22173     22170     22172     22128     22127     22129     22130
     22128     22127     22131     22132     22128     22127     22131     22133
     22128     22127     22131     22134     22128     22127     22173     22170
     22128     22127     22173     22174     22128     22127     22173     22175
     22129     22127     22131     22132     22129     22127     22131     22133
     22129     22127     22131     22134     22129     22127     22173     22170
     22129     22127     22173     22174     22129     22127     22173     22175
     22130     22129     22127     22131     22130     22129     22127     22173
     22131     22127     22173     22170     22131     22127     22173     22174
     22131     22127     22173     22175     22131     22134     22135     22136
     22131     22134     22135     22137     22131     22134     22165     22163
     22131     22134     22165     22166     22131     22134     22165     22170
     22132     22131     22127     22173     22132     22131     22134     22135
     22132     22131     22134     22165     22133     22131     22127     22173
     22133     22131     22134     22135     22133     22131     22134     22165
     22134     22131     22127     22173     22134     22135     22137     22138
     22134     22135     22137     22139     22134     22135     22137     22140
     22134     22165     22163     22140     22134     22165     22163     22160
     22134     22165     22163     22164     22134     22165     22166     22167
     22134     22165     22166     22168     22134     22165     22166     22169
     22134     22165     22170     22171     22134     22165     22170     22172
     22134     22165     22170     22173     22135     22134     22165     22163
     22135     22134     22165     22166     22135     22134     22165     22170
     22135     22137     22140     22141     22135     22137     22140     22142
     22135     22137     22140     22163     22136     22135     22134     22165
     22136     22135     22137     22138     22136     22135     22137     22139
     22136     22135     22137     22140     22137     22135     22134     22165
     22137     22140     22142     22143     22137     22140     22142     22144
     22137     22140     22142     22152     22137     22140     22163     22160
     22137     22140     22163     22164     22137     22140     22163     22165
     22138     22137     22140     22141     22138     22137     22140     22142
     22138     22137     22140     22163     22139     22137     22140     22141
     22139     22137     22140     22142     22139     22137     22140     22163
     22140     22142     22144     22145     22140     22142     22144     22146
     22140     22142     22144     22147     22140     22142     22152     22150
     22140     22142     22152     22153     22140     22142     22152     22157
     22140     22163     22160     22157     22140     22163     22160     22161
     22140     22163     22160     22162     22140     22163     22165     22166
     22140     22163     22165     22170     22141     22140     22142     22143
     22141     22140     22142     22144     22141     22140     22142     22152
     22141     22140     22163     22160     22141     22140     22163     22164
     22141     22140     22163     22165     22142     22140     22163     22160
     22142     22140     22163     22164     22142     22140     22163     22165
     22142     22144     22147     22148     22142     22144     22147     22149
     22142     22144     22147     22150     22142     22152     22150     22147
     22142     22152     22150     22151     22142     22152     22150     22176
     22142     22152     22153     22154     22142     22152     22153     22155
     22142     22152     22153     22156     22142     22152     22157     22158
     22142     22152     22157     22159     22142     22152     22157     22160
     22143     22142     22140     22163     22143     22142     22144     22145
     22143     22142     22144     22146     22143     22142     22144     22147
     22143     22142     22152     22150     22143     22142     22152     22153
     22143     22142     22152     22157     22144     22142     22140     22163
     22144     22142     22152     22150     22144     22142     22152     22153
     22144     22142     22152     22157     22144     22147     22150     22151
     22144     22147     22150     22152     22144     22147     22150     22176
     22145     22144     22142     22152     22145     22144     22147     22148
     22145     22144     22147     22149     22145     22144     22147     22150
     22146     22144     22142     22152     22146     22144     22147     22148
     22146     22144     22147     22149     22146     22144     22147     22150
     22147     22144     22142     22152     22147     22150     22152     22153
     22147     22150     22152     22157     22147     22150     22176     22177
     22147     22150     22176     22178     22147     22150     22176     22182
     22148     22147     22150     22151     22148     22147     22150     22152
     22148     22147     22150     22176     22149     22147     22150     22151
     22149     22147     22150     22152     22149     22147     22150     22176
     22150     22152     22153     22154     22150     22152     22153     22155
     22150     22152     22153     22156     22150     22152     22157     22158
     22150     22152     22157     22159     22150     22152     22157     22160
     22150     22176     22178     22179     22150     22176     22178     22180
     22150     22176     22178     22181     22150     22176     22182     22183
     22150     22176     22182     22184     22150     22176     22182     22185
     22151     22150     22152     22153     22151     22150     22152     22157
     22151     22150     22176     22177     22151     22150     22176     22178
     22151     22150     22176     22182     22152     22142     22140     22163
     22152     22150     22176     22177     22152     22150     22176     22178
     22152     22150     22176     22182     22152     22157     22160     22161
     22152     22157     22160     22162     22152     22157     22160     22163
     22153     22152     22150     22176     22153     22152     22157     22158
     22153     22152     22157     22159     22153     22152     22157     22160
     22154     22153     22152     22157     22155     22153     22152     22157
     22156     22153     22152     22157     22157     22152     22150     22176
     22157     22160     22163     22164     22157     22160     22163     22165
     22158     22157     22160     22161     22158     22157     22160     22162
     22158     22157     22160     22163     22159     22157     22160     22161
     22159     22157     22160     22162     22159     22157     22160     22163
     22160     22163     22165     22166     22160     22163     22165     22170
     22161     22160     22163     22164     22161     22160     22163     22165
     22162     22160     22163     22164     22162     22160     22163     22165
     22163     22165     22166     22167     22163     22165     22166     22168
     22163     22165     22166     22169     22163     22165     22170     22171
     22163     22165     22170     22172     22163     22165     22170     22173
     22164     22163     22165     22166     22164     22163     22165     22170
     22165     22170     22173     22174     22165     22170     22173     22175
     22166     22165     22170     22171     22166     22165     22170     22172
     22166     22165     22170     22173     22167     22166     22165     22170
     22168     22166     22165     22170     22169     22166     22165     22170
     22171     22170     22173     22174     22171     22170     22173     22175
     22172     22170     22173     22174     22172     22170     22173     22175
     22176     22182     22185     22186     22176     22182     22185     22187
     22176     22182     22185     22188     22177     22176     22178     22179
     22177     22176     22178     22180     22177     22176     22178     22181
     22177     22176     22182     22183     22177     22176     22182     22184
     22177     22176     22182     22185     22178     22176     22182     22183
     22178     22176     22182     22184     22178     22176     22182     22185
     22179     22178     22176     22182     22180     22178     22176     22182
     22181     22178     22176     22182     22182     22185     22188     22189
     22182     22185     22188     22190     22182     22185     22188     22191
     22183     22182     22185     22186     22183     22182     22185     22187
     22183     22182     22185     22188     22184     22182     22185     22186
     22184     22182     22185     22187     22184     22182     22185     22188
     22185     22188     22191     22192     22185     22188     22191     22193
     22185     22188     22191     22197     22186     22185     22188     22189
     22186     22185     22188     22190     22186     22185     22188     22191
     22187     22185     22188     22189     22187     22185     22188     22190
     22187     22185     22188     22191     22188     22191     22193     22194
     22188     22191     22193     22195     22188     22191     22193     22196
     22188     22191     22197     22198     22188     22191     22197     22199
     22188     22191     22197     22200     22189     22188     22191     22192
     22189     22188     22191     22193     22189     22188     22191     22197
     22190     22188     22191     22192     22190     22188     22191     22193
     22190     22188     22191     22197     22192     22191     22193     22194
     22192     22191     22193     22195     22192     22191     22193     22196
     22192     22191     22197     22198     22192     22191     22197     22199
     22192     22191     22197     22200     22193     22191     22197     22198
     22193     22191     22197     22199     22193     22191     22197     22200
     22194     22193     22191     22197     22195     22193     22191     22197
     22196     22193     22191     22197     22201     22205     22208     22209
     22201     22205     22208     22239     22201     22247     22244     22239
     22201     22247     22244     22245     22201     22247     22244     22246
     22202     22201     22203     22204     22202     22201     22205     22206
     22202     22201     22205     22207     22202     22201     22205     22208
     22202     22201     22247     22244     22202     22201     22247     22248
     22202     22201     22247     22249     22203     22201     22205     22206
     22203     22201     22205     22207     22203     22201     22205     22208
     22203     22201     22247     22244     22203     22201     22247     22248
     22203     22201     22247     22249     22204     22203     22201     22205
     22204     22203     22201     22247     22205     22201     22247     22244
     22205     22201     22247     22248     22205     22201     22247     22249
     22205     22208     22209     22210     22205     22208     22209     22211
     22205     22208     22239     22237     22205     22208     22239     22240
     22205     22208     22239     22244     22206     22205     22201     22247
     22206     22205     22208     22209     22206     22205     22208     22239
     22207     22205     22201     22247     22207     22205     22208     22209
     22207     22205     22208     22239     22208     22205     22201     22247
     22208     22209     22211     22212     22208     22209     22211     22213
     22208     22209     22211     22214     22208     22239     22237     22214
     22208     22239     22237     22234     22208     22239     22237     22238
     22208     22239     22240     22241     22208     22239     22240     22242
     22208     22239     22240     22243     22208     22239     22244     22245
     22208     22239     22244     22246     22208     22239     22244     22247
     22209     22208     22239     22237     22209     22208     22239     22240
     22209     22208     22239     22244     22209     22211     22214     22215
     22209     22211     22214     22216     22209     22211     22214     22237
     22210     22209     22208     22239     22210     22209     22211     22212
     22210     22209     22211     22213     22210     22209     22211     22214
     22211     22209     22208     22239     22211     22214     22216     22217
     22211     22214     22216     22218     22211     22214     22216     22226
     22211     22214     22237     22234     22211     22214     22237     22238
     22211     22214     22237     22239     22212     22211     22214     22215
     22212     22211     22214     22216     22212     22211     22214     22237
     22213     22211     22214     22215     22213     22211     22214     22216
     22213     22211     22214     22237     22214     22216     22218     22219
     22214     22216     22218     22220     22214     22216     22218     22221
     22214     22216     22226     22224     22214     22216     22226     22227
     22214     22216     22226     22231     22214     22237     22234     22231
     22214     22237     22234     22235     22214     22237     22234     22236
     22214     22237     22239     22240     22214     22237     22239     22244
     22215     22214     22216     22217     22215     22214     22216     22218
     22215     22214     22216     22226     22215     22214     22237     22234
     22215     22214     22237     22238     22215     22214     22237     22239
     22216     22214     22237     22234     22216     22214     22237     22238
     22216     22214     22237     22239     22216     22218     22221     22222
     22216     22218     22221     22223     22216     22218     22221     22224
     22216     22226     22224     22221     22216     22226     22224     22225
     22216     22226     22224     22250     22216     22226     22227     22228
     22216     22226     22227     22229     22216     22226     22227     22230
     22216     22226     22231     22232     22216     22226     22231     22233
     22216     22226     22231     22234     22217     22216     22214     22237
     22217     22216     22218     22219     22217     22216     22218     22220
     22217     22216     22218     22221     22217     22216     22226     22224
     22217     22216     22226     22227     22217     22216     22226     22231
     22218     22216     22214     22237     22218     22216     22226     22224
     22218     22216     22226     22227     22218     22216     22226     22231
     22218     22221     22224     22225     22218     22221     22224     22226
     22218     22221     22224     22250     22219     22218     22216     22226
     22219     22218     22221     22222     22219     22218     22221     22223
     22219     22218     22221     22224     22220     22218     22216     22226
     22220     22218     22221     22222     22220     22218     22221     22223
     22220     22218     22221     22224     22221     22218     22216     22226
     22221     22224     22226     22227     22221     22224     22226     22231
     22221     22224     22250     22251     22221     22224     22250     22252
     22221     22224     22250     22256     22222     22221     22224     22225
     22222     22221     22224     22226     22222     22221     22224     22250
     22223     22221     22224     22225     22223     22221     22224     22226
     22223     22221     22224     22250     22224     22226     22227     22228
     22224     22226     22227     22229     22224     22226     22227     22230
     22224     22226     22231     22232     22224     22226     22231     22233
     22224     22226     22231     22234     22224     22250     22252     22253
     22224     22250     22252     22254     22224     22250     22252     22255
     22224     22250     22256     22257     22224     22250     22256     22258
     22224     22250     22256     22259     22225     22224     22226     22227
     22225     22224     22226     22231     22225     22224     22250     22251
     22225     22224     22250     22252     22225     22224     22250     22256
     22226     22216     22214     22237     22226     22224     22250     22251
     22226     22224     22250     22252     22226     22224     22250     22256
     22226     22231     22234     22235     22226     22231     22234     22236
     22226     22231     22234     22237     22227     22226     22224     22250
     22227     22226     22231     22232     22227     22226     22231     22233
     22227     22226     22231     22234     22228     22227     22226     22231
     22229     22227     22226     22231     22230     22227     22226     22231
     22231     22226     22224     22250     22231     22234     22237     22238
     22231     22234     22237     22239     22232     22231     22234     22235
     22232     22231     22234     22236     22232     22231     22234     22237
     22233     22231     22234     22235     22233     22231     22234     22236
     22233     22231     22234     22237     22234     22237     22239     22240
     22234     22237     22239     22244     22235     22234     22237     22238
     22235     22234     22237     22239     22236     22234     22237     22238
     22236     22234     22237     22239     22237     22239     22240     22241
     22237     22239     22240     22242     22237     22239     22240     22243
     22237     22239     22244     22245     22237     22239     22244     22246
     22237     22239     22244     22247     22238     22237     22239     22240
     22238     22237     22239     22244     22239     22244     22247     22248
     22239     22244     22247     22249     22240     22239     22244     22245
     22240     22239     22244     22246     22240     22239     22244     22247
     22241     22240     22239     22244     22242     22240     22239     22244
     22243     22240     22239     22244     22245     22244     22247     22248
     22245     22244     22247     22249     22246     22244     22247     22248
     22246     22244     22247     22249     22250     22256     22259     22260
     22250     22256     22259     22261     22250     22256     22259     22262
     22251     22250     22252     22253     22251     22250     22252     22254
     22251     22250     22252     22255     22251     22250     22256     22257
     22251     22250     22256     22258     22251     22250     22256     22259
     22252     22250     22256     22257     22252     22250     22256     22258
     22252     22250     22256     22259     22253     22252     22250     22256
     22254     22252     22250     22256     22255     22252     22250     22256
     22256     22259     22262     22263     22256     22259     22262     22264
     22256     22259     22262     22265     22257     22256     22259     22260
     22257     22256     22259     22261     22257     22256     22259     22262
     22258     22256     22259     22260     22258     22256     22259     22261
     22258     22256     22259     22262     22259     22262     22265     22266
     22259     22262     22265     22267     22259     22262     22265     22271
     22260     22259     22262     22263     22260     22259     22262     22264
     22260     22259     22262     22265     22261     22259     22262     22263
     22261     22259     22262     22264     22261     22259     22262     22265
     22262     22265     22267     22268     22262     22265     22267     22269
     22262     22265     22267     22270     22262     22265     22271     22272
     22262     22265     22271     22273     22262     22265     22271     22274
     22263     22262     22265     22266     22263     22262     22265     22267
     22263     22262     22265     22271     22264     22262     22265     22266
     22264     22262     22265     22267     22264     22262     22265     22271
     22266     22265     22267     22268     22266     22265     22267     22269
     22266     22265     22267     22270     22266     22265     22271     22272
     22266     22265     22271     22273     22266     22265     22271     22274
     22267     22265     22271     22272     22267     22265     22271     22273
     22267     22265     22271     22274     22268     22267     22265     22271
     22269     22267     22265     22271     22270     22267     22265     22271
     22275     22279     22282     22283     22275     22279     22282     22313
     22275     22321     22318     22313     22275     22321     22318     22319
     22275     22321     22318     22320     22276     22275     22277     22278
     22276     22275     22279     22280     22276     22275     22279     22281
     22276     22275     22279     22282     22276     22275     22321     22318
     22276     22275     22321     22322     22276     22275     22321     22323
     22277     22275     22279     22280     22277     22275     22279     22281
     22277     22275     22279     22282     22277     22275     22321     22318
     22277     22275     22321     22322     22277     22275     22321     22323
     22278     22277     22275     22279     22278     22277     22275     22321
     22279     22275     22321     22318     22279     22275     22321     22322
     22279     22275     22321     22323     22279     22282     22283     22284
     22279     22282     22283     22285     22279     22282     22313     22311
     22279     22282     22313     22314     22279     22282     22313     22318
     22280     22279     22275     22321     22280     22279     22282     22283
     22280     22279     22282     22313     22281     22279     22275     22321
     22281     22279     22282     22283     22281     22279     22282     22313
     22282     22279     22275     22321     22282     22283     22285     22286
     22282     22283     22285     22287     22282     22283     22285     22288
     22282     22313     22311     22288     22282     22313     22311     22308
     22282     22313     22311     22312     22282     22313     22314     22315
     22282     22313     22314     22316     22282     22313     22314     22317
     22282     22313     22318     22319     22282     22313     22318     22320
     22282     22313     22318     22321     22283     22282     22313     22311
     22283     22282     22313     22314     22283     22282     22313     22318
     22283     22285     22288     22289     22283     22285     22288     22290
     22283     22285     22288     22311     22284     22283     22282     22313
     22284     22283     22285     22286     22284     22283     22285     22287
     22284     22283     22285     22288     22285     22283     22282     22313
     22285     22288     22290     22291     22285     22288     22290     22292
     22285     22288     22290     22300     22285     22288     22311     22308
     22285     22288     22311     22312     22285     22288     22311     22313
     22286     22285     22288     22289     22286     22285     22288     22290
     22286     22285     22288     22311     22287     22285     22288     22289
     22287     22285     22288     22290     22287     22285     22288     22311
     22288     22290     22292     22293     22288     22290     22292     22294
     22288     22290     22292     22295     22288     22290     22300     22298
     22288     22290     22300     22301     22288     22290     22300     22305
     22288     22311     22308     22305     22288     22311     22308     22309
     22288     22311     22308     22310     22288     22311     22313     22314
     22288     22311     22313     22318     22289     22288     22290     22291
     22289     22288     22290     22292     22289     22288     22290     22300
     22289     22288     22311     22308     22289     22288     22311     22312
     22289     22288     22311     22313     22290     22288     22311     22308
     22290     22288     22311     22312     22290     22288     22311     22313
     22290     22292     22295     22296     22290     22292     22295     22297
     22290     22292     22295     22298     22290     22300     22298     22295
     22290     22300     22298     22299     22290     22300     22298     22324
     22290     22300     22301     22302     22290     22300     22301     22303
     22290     22300     22301     22304     22290     22300     22305     22306
     22290     22300     22305     22307     22290     22300     22305     22308
     22291     22290     22288     22311     22291     22290     22292     22293
     22291     22290     22292     22294     22291     22290     22292     22295
     22291     22290     22300     22298     22291     22290     22300     22301
     22291     22290     22300     22305     22292     22290     22288     22311
     22292     22290     22300     22298     22292     22290     22300     22301
     22292     22290     22300     22305     22292     22295     22298     22299
     22292     22295     22298     22300     22292     22295     22298     22324
     22293     22292     22290     22300     22293     22292     22295     22296
     22293     22292     22295     22297     22293     22292     22295     22298
     22294     22292     22290     22300     22294     22292     22295     22296
     22294     22292     22295     22297     22294     22292     22295     22298
     22295     22292     22290     22300     22295     22298     22300     22301
     22295     22298     22300     22305     22295     22298     22324     22325
     22295     22298     22324     22326     22295     22298     22324     22330
     22296     22295     22298     22299     22296     22295     22298     22300
     22296     22295     22298     22324     22297     22295     22298     22299
     22297     22295     22298     22300     22297     22295     22298     22324
     22298     22300     22301     22302     22298     22300     22301     22303
     22298     22300     22301     22304     22298     22300     22305     22306
     22298     22300     22305     22307     22298     22300     22305     22308
     22298     22324     22326     22327     22298     22324     22326     22328
     22298     22324     22326     22329     22298     22324     22330     22331
     22298     22324     22330     22332     22298     22324     22330     22333
     22299     22298     22300     22301     22299     22298     22300     22305
     22299     22298     22324     22325     22299     22298     22324     22326
     22299     22298     22324     22330     22300     22290     22288     22311
     22300     22298     22324     22325     22300     22298     22324     22326
     22300     22298     22324     22330     22300     22305     22308     22309
     22300     22305     22308     22310     22300     22305     22308     22311
     22301     22300     22298     22324     22301     22300     22305     22306
     22301     22300     22305     22307     22301     22300     22305     22308
     22302     22301     22300     22305     22303     22301     22300     22305
     22304     22301     22300     22305     22305     22300     22298     22324
     22305     22308     22311     22312     22305     22308     22311     22313
     22306     22305     22308     22309     22306     22305     22308     22310
     22306     22305     22308     22311     22307     22305     22308     22309
     22307     22305     22308     22310     22307     22305     22308     22311
     22308     22311     22313     22314     22308     22311     22313     22318
     22309     22308     22311     22312     22309     22308     22311     22313
     22310     22308     22311     22312     22310     22308     22311     22313
     22311     22313     22314     22315     22311     22313     22314     22316
     22311     22313     22314     22317     22311     22313     22318     22319
     22311     22313     22318     22320     22311     22313     22318     22321
     22312     22311     22313     22314     22312     22311     22313     22318
     22313     22318     22321     22322     22313     22318     22321     22323
     22314     22313     22318     22319     22314     22313     22318     22320
     22314     22313     22318     22321     22315     22314     22313     22318
     22316     22314     22313     22318     22317     22314     22313     22318
     22319     22318     22321     22322     22319     22318     22321     22323
     22320     22318     22321     22322     22320     22318     22321     22323
     22324     22330     22333     22334     22324     22330     22333     22335
     22324     22330     22333     22336     22325     22324     22326     22327
     22325     22324     22326     22328     22325     22324     22326     22329
     22325     22324     22330     22331     22325     22324     22330     22332
     22325     22324     22330     22333     22326     22324     22330     22331
     22326     22324     22330     22332     22326     22324     22330     22333
     22327     22326     22324     22330     22328     22326     22324     22330
     22329     22326     22324     22330     22330     22333     22336     22337
     22330     22333     22336     22338     22330     22333     22336     22339
     22331     22330     22333     22334     22331     22330     22333     22335
     22331     22330     22333     22336     22332     22330     22333     22334
     22332     22330     22333     22335     22332     22330     22333     22336
     22333     22336     22339     22340     22333     22336     22339     22341
     22333     22336     22339     22345     22334     22333     22336     22337
     22334     22333     22336     22338     22334     22333     22336     22339
     22335     22333     22336     22337     22335     22333     22336     22338
     22335     22333     22336     22339     22336     22339     22341     22342
     22336     22339     22341     22343     22336     22339     22341     22344
     22336     22339     22345     22346     22336     22339     22345     22347
     22336     22339     22345     22348     22337     22336     22339     22340
     22337     22336     22339     22341     22337     22336     22339     22345
     22338     22336     22339     22340     22338     22336     22339     22341
     22338     22336     22339     22345     22340     22339     22341     22342
     22340     22339     22341     22343     22340     22339     22341     22344
     22340     22339     22345     22346     22340     22339     22345     22347
     22340     22339     22345     22348     22341     22339     22345     22346
     22341     22339     22345     22347     22341     22339     22345     22348
     22342     22341     22339     22345     22343     22341     22339     22345
     22344     22341     22339     22345     22349     22353     22356     22357
     22349     22353     22356     22387     22349     22395     22392     22387
     22349     22395     22392     22393     22349     22395     22392     22394
     22350     22349     22351     22352     22350     22349     22353     22354
     22350     22349     22353     22355     22350     22349     22353     22356
     22350     22349     22395     22392     22350     22349     22395     22396
     22350     22349     22395     22397     22351     22349     22353     22354
     22351     22349     22353     22355     22351     22349     22353     22356
     22351     22349     22395     22392     22351     22349     22395     22396
     22351     22349     22395     22397     22352     22351     22349     22353
     22352     22351     22349     22395     22353     22349     22395     22392
     22353     22349     22395     22396     22353     22349     22395     22397
     22353     22356     22357     22358     22353     22356     22357     22359
     22353     22356     22387     22385     22353     22356     22387     22388
     22353     22356     22387     22392     22354     22353     22349     22395
     22354     22353     22356     22357     22354     22353     22356     22387
     22355     22353     22349     22395     22355     22353     22356     22357
     22355     22353     22356     22387     22356     22353     22349     22395
     22356     22357     22359     22360     22356     22357     22359     22361
     22356     22357     22359     22362     22356     22387     22385     22362
     22356     22387     22385     22382     22356     22387     22385     22386
     22356     22387     22388     22389     22356     22387     22388     22390
     22356     22387     22388     22391     22356     22387     22392     22393
     22356     22387     22392     22394     22356     22387     22392     22395
     22357     22356     22387     22385     22357     22356     22387     22388
     22357     22356     22387     22392     22357     22359     22362     22363
     22357     22359     22362     22364     22357     22359     22362     22385
     22358     22357     22356     22387     22358     22357     22359     22360
     22358     22357     22359     22361     22358     22357     22359     22362
     22359     22357     22356     22387     22359     22362     22364     22365
     22359     22362     22364     22366     22359     22362     22364     22374
     22359     22362     22385     22382     22359     22362     22385     22386
     22359     22362     22385     22387     22360     22359     22362     22363
     22360     22359     22362     22364     22360     22359     22362     22385
     22361     22359     22362     22363     22361     22359     22362     22364
     22361     22359     22362     22385     22362     22364     22366     22367
     22362     22364     22366     22368     22362     22364     22366     22369
     22362     22364     22374     22372     22362     22364     22374     22375
     22362     22364     22374     22379     22362     22385     22382     22379
     22362     22385     22382     22383     22362     22385     22382     22384
     22362     22385     22387     22388     22362     22385     22387     22392
     22363     22362     22364     22365     22363     22362     22364     22366
     22363     22362     22364     22374     22363     22362     22385     22382
     22363     22362     22385     22386     22363     22362     22385     22387
     22364     22362     22385     22382     22364     22362     22385     22386
     22364     22362     22385     22387     22364     22366     22369     22370
     22364     22366     22369     22371     22364     22366     22369     22372
     22364     22374     22372     22369     22364     22374     22372     22373
     22364     22374     22372     22398     22364     22374     22375     22376
     22364     22374     22375     22377     22364     22374     22375     22378
     22364     22374     22379     22380     22364     22374     22379     22381
     22364     22374     22379     22382     22365     22364     22362     22385
     22365     22364     22366     22367     22365     22364     22366     22368
     22365     22364     22366     22369     22365     22364     22374     22372
     22365     22364     22374     22375     22365     22364     22374     22379
     22366     22364     22362     22385     22366     22364     22374     22372
     22366     22364     22374     22375     22366     22364     22374     22379
     22366     22369     22372     22373     22366     22369     22372     22374
     22366     22369     22372     22398     22367     22366     22364     22374
     22367     22366     22369     22370     22367     22366     22369     22371
     22367     22366     22369     22372     22368     22366     22364     22374
     22368     22366     22369     22370     22368     22366     22369     22371
     22368     22366     22369     22372     22369     22366     22364     22374
     22369     22372     22374     22375     22369     22372     22374     22379
     22369     22372     22398     22399     22369     22372     22398     22400
     22369     22372     22398     22404     22370     22369     22372     22373
     22370     22369     22372     22374     22370     22369     22372     22398
     22371     22369     22372     22373     22371     22369     22372     22374
     22371     22369     22372     22398     22372     22374     22375     22376
     22372     22374     22375     22377     22372     22374     22375     22378
     22372     22374     22379     22380     22372     22374     22379     22381
     22372     22374     22379     22382     22372     22398     22400     22401
     22372     22398     22400     22402     22372     22398     22400     22403
     22372     22398     22404     22405     22372     22398     22404     22406
     22372     22398     22404     22407     22373     22372     22374     22375
     22373     22372     22374     22379     22373     22372     22398     22399
     22373     22372     22398     22400     22373     22372     22398     22404
     22374     22364     22362     22385     22374     22372     22398     22399
     22374     22372     22398     22400     22374     22372     22398     22404
     22374     22379     22382     22383     22374     22379     22382     22384
     22374     22379     22382     22385     22375     22374     22372     22398
     22375     22374     22379     22380     22375     22374     22379     22381
     22375     22374     22379     22382     22376     22375     22374     22379
     22377     22375     22374     22379     22378     22375     22374     22379
     22379     22374     22372     22398     22379     22382     22385     22386
     22379     22382     22385     22387     22380     22379     22382     22383
     22380     22379     22382     22384     22380     22379     22382     22385
     22381     22379     22382     22383     22381     22379     22382     22384
     22381     22379     22382     22385     22382     22385     22387     22388
     22382     22385     22387     22392     22383     22382     22385     22386
     22383     22382     22385     22387     22384     22382     22385     22386
     22384     22382     22385     22387     22385     22387     22388     22389
     22385     22387     22388     22390     22385     22387     22388     22391
     22385     22387     22392     22393     22385     22387     22392     22394
     22385     22387     22392     22395     22386     22385     22387     22388
     22386     22385     22387     22392     22387     22392     22395     22396
     22387     22392     22395     22397     22388     22387     22392     22393
     22388     22387     22392     22394     22388     22387     22392     22395
     22389     22388     22387     22392     22390     22388     22387     22392
     22391     22388     22387     22392     22393     22392     22395     22396
     22393     22392     22395     22397     22394     22392     22395     22396
     22394     22392     22395     22397     22398     22404     22407     22408
     22398     22404     22407     22409     22398     22404     22407     22410
     22399     22398     22400     22401     22399     22398     22400     22402
     22399     22398     22400     22403     22399     22398     22404     22405
     22399     22398     22404     22406     22399     22398     22404     22407
     22400     22398     22404     22405     22400     22398     22404     22406
     22400     22398     22404     22407     22401     22400     22398     22404
     22402     22400     22398     22404     22403     22400     22398     22404
     22404     22407     22410     22411     22404     22407     22410     22412
     22404     22407     22410     22413     22405     22404     22407     22408
     22405     22404     22407     22409     22405     22404     22407     22410
     22406     22404     22407     22408     22406     22404     22407     22409
     22406     22404     22407     22410     22407     22410     22413     22414
     22407     22410     22413     22415     22407     22410     22413     22419
     22408     22407     22410     22411     22408     22407     22410     22412
     22408     22407     22410     22413     22409     22407     22410     22411
     22409     22407     22410     22412     22409     22407     22410     22413
     22410     22413     22415     22416     22410     22413     22415     22417
     22410     22413     22415     22418     22410     22413     22419     22420
     22410     22413     22419     22421     22410     22413     22419     22422
     22411     22410     22413     22414     22411     22410     22413     22415
     22411     22410     22413     22419     22412     22410     22413     22414
     22412     22410     22413     22415     22412     22410     22413     22419
     22414     22413     22415     22416     22414     22413     22415     22417
     22414     22413     22415     22418     22414     22413     22419     22420
     22414     22413     22419     22421     22414     22413     22419     22422
     22415     22413     22419     22420     22415     22413     22419     22421
     22415     22413     22419     22422     22416     22415     22413     22419
     22417     22415     22413     22419     22418     22415     22413     22419
     22423     22427     22430     22431     22423     22427     22430     22461
     22423     22469     22466     22461     22423     22469     22466     22467
     22423     22469     22466     22468     22424     22423     22425     22426
     22424     22423     22427     22428     22424     22423     22427     22429
     22424     22423     22427     22430     22424     22423     22469     22466
     22424     22423     22469     22470     22424     22423     22469     22471
     22425     22423     22427     22428     22425     22423     22427     22429
     22425     22423     22427     22430     22425     22423     22469     22466
     22425     22423     22469     22470     22425     22423     22469     22471
     22426     22425     22423     22427     22426     22425     22423     22469
     22427     22423     22469     22466     22427     22423     22469     22470
     22427     22423     22469     22471     22427     22430     22431     22432
     22427     22430     22431     22433     22427     22430     22461     22459
     22427     22430     22461     22462     22427     22430     22461     22466
     22428     22427     22423     22469     22428     22427     22430     22431
     22428     22427     22430     22461     22429     22427     22423     22469
     22429     22427     22430     22431     22429     22427     22430     22461
     22430     22427     22423     22469     22430     22431     22433     22434
     22430     22431     22433     22435     22430     22431     22433     22436
     22430     22461     22459     22436     22430     22461     22459     22456
     22430     22461     22459     22460     22430     22461     22462     22463
     22430     22461     22462     22464     22430     22461     22462     22465
     22430     22461     22466     22467     22430     22461     22466     22468
     22430     22461     22466     22469     22431     22430     22461     22459
     22431     22430     22461     22462     22431     22430     22461     22466
     22431     22433     22436     22437     22431     22433     22436     22438
     22431     22433     22436     22459     22432     22431     22430     22461
     22432     22431     22433     22434     22432     22431     22433     22435
     22432     22431     22433     22436     22433     22431     22430     22461
     22433     22436     22438     22439     22433     22436     22438     22440
     22433     22436     22438     22448     22433     22436     22459     22456
     22433     22436     22459     22460     22433     22436     22459     22461
     22434     22433     22436     22437     22434     22433     22436     22438
     22434     22433     22436     22459     22435     22433     22436     22437
     22435     22433     22436     22438     22435     22433     22436     22459
     22436     22438     22440     22441     22436     22438     22440     22442
     22436     22438     22440     22443     22436     22438     22448     22446
     22436     22438     22448     22449     22436     22438     22448     22453
     22436     22459     22456     22453     22436     22459     22456     22457
     22436     22459     22456     22458     22436     22459     22461     22462
     22436     22459     22461     22466     22437     22436     22438     22439
     22437     22436     22438     22440     22437     22436     22438     22448
     22437     22436     22459     22456     22437     22436     22459     22460
     22437     22436     22459     22461     22438     22436     22459     22456
     22438     22436     22459     22460     22438     22436     22459     22461
     22438     22440     22443     22444     22438     22440     22443     22445
     22438     22440     22443     22446     22438     22448     22446     22443
     22438     22448     22446     22447     22438     22448     22446     22472
     22438     22448     22449     22450     22438     22448     22449     22451
     22438     22448     22449     22452     22438     22448     22453     22454
     22438     22448     22453     22455     22438     22448     22453     22456
     22439     22438     22436     22459     22439     22438     22440     22441
     22439     22438     22440     22442     22439     22438     22440     22443
     22439     22438     22448     22446     22439     22438     22448     22449
     22439     22438     22448     22453     22440     22438     22436     22459
     22440     22438     22448     22446     22440     22438     22448     22449
     22440     22438     22448     22453     22440     22443     22446     22447
     22440     22443     22446     22448     22440     22443     22446     22472
     22441     22440     22438     22448     22441     22440     22443     22444
     22441     22440     22443     22445     22441     22440     22443     22446
     22442     22440     22438     22448     22442     22440     22443     22444
     22442     22440     22443     22445     22442     22440     22443     22446
     22443     22440     22438     22448     22443     22446     22448     22449
     22443     22446     22448     22453     22443     22446     22472     22473
     22443     22446     22472     22474     22443     22446     22472     22478
     22444     22443     22446     22447     22444     22443     22446     22448
     22444     22443     22446     22472     22445     22443     22446     22447
     22445     22443     22446     22448     22445     22443     22446     22472
     22446     22448     22449     22450     22446     22448     22449     22451
     22446     22448     22449     22452     22446     22448     22453     22454
     22446     22448     22453     22455     22446     22448     22453     22456
     22446     22472     22474     22475     22446     22472     22474     22476
     22446     22472     22474     22477     22446     22472     22478     22479
     22446     22472     22478     22480     22446     22472     22478     22481
     22447     22446     22448     22449     22447     22446     22448     22453
     22447     22446     22472     22473     22447     22446     22472     22474
     22447     22446     22472     22478     22448     22438     22436     22459
     22448     22446     22472     22473     22448     22446     22472     22474
     22448     22446     22472     22478     22448     22453     22456     22457
     22448     22453     22456     22458     22448     22453     22456     22459
     22449     22448     22446     22472     22449     22448     22453     22454
     22449     22448     22453     22455     22449     22448     22453     22456
     22450     22449     22448     22453     22451     22449     22448     22453
     22452     22449     22448     22453     22453     22448     22446     22472
     22453     22456     22459     22460     22453     22456     22459     22461
     22454     22453     22456     22457     22454     22453     22456     22458
     22454     22453     22456     22459     22455     22453     22456     22457
     22455     22453     22456     22458     22455     22453     22456     22459
     22456     22459     22461     22462     22456     22459     22461     22466
     22457     22456     22459     22460     22457     22456     22459     22461
     22458     22456     22459     22460     22458     22456     22459     22461
     22459     22461     22462     22463     22459     22461     22462     22464
     22459     22461     22462     22465     22459     22461     22466     22467
     22459     22461     22466     22468     22459     22461     22466     22469
     22460     22459     22461     22462     22460     22459     22461     22466
     22461     22466     22469     22470     22461     22466     22469     22471
     22462     22461     22466     22467     22462     22461     22466     22468
     22462     22461     22466     22469     22463     22462     22461     22466
     22464     22462     22461     22466     22465     22462     22461     22466
     22467     22466     22469     22470     22467     22466     22469     22471
     22468     22466     22469     22470     22468     22466     22469     22471
     22472     22478     22481     22482     22472     22478     22481     22483
     22472     22478     22481     22484     22473     22472     22474     22475
     22473     22472     22474     22476     22473     22472     22474     22477
     22473     22472     22478     22479     22473     22472     22478     22480
     22473     22472     22478     22481     22474     22472     22478     22479
     22474     22472     22478     22480     22474     22472     22478     22481
     22475     22474     22472     22478     22476     22474     22472     22478
     22477     22474     22472     22478     22478     22481     22484     22485
     22478     22481     22484     22486     22478     22481     22484     22487
     22479     22478     22481     22482     22479     22478     22481     22483
     22479     22478     22481     22484     22480     22478     22481     22482
     22480     22478     22481     22483     22480     22478     22481     22484
     22481     22484     22487     22488     22481     22484     22487     22489
     22481     22484     22487     22493     22482     22481     22484     22485
     22482     22481     22484     22486     22482     22481     22484     22487
     22483     22481     22484     22485     22483     22481     22484     22486
     22483     22481     22484     22487     22484     22487     22489     22490
     22484     22487     22489     22491     22484     22487     22489     22492
     22484     22487     22493     22494     22484     22487     22493     22495
     22484     22487     22493     22496     22485     22484     22487     22488
     22485     22484     22487     22489     22485     22484     22487     22493
     22486     22484     22487     22488     22486     22484     22487     22489
     22486     22484     22487     22493     22488     22487     22489     22490
     22488     22487     22489     22491     22488     22487     22489     22492
     22488     22487     22493     22494     22488     22487     22493     22495
     22488     22487     22493     22496     22489     22487     22493     22494
     22489     22487     22493     22495     22489     22487     22493     22496
     22490     22489     22487     22493     22491     22489     22487     22493
     22492     22489     22487     22493     22497     22501     22504     22505
     22497     22501     22504     22535     22497     22543     22540     22535
     22497     22543     22540     22541     22497     22543     22540     22542
     22498     22497     22499     22500     22498     22497     22501     22502
     22498     22497     22501     22503     22498     22497     22501     22504
     22498     22497     22543     22540     22498     22497     22543     22544
     22498     22497     22543     22545     22499     22497     22501     22502
     22499     22497     22501     22503     22499     22497     22501     22504
     22499     22497     22543     22540     22499     22497     22543     22544
     22499     22497     22543     22545     22500     22499     22497     22501
     22500     22499     22497     22543     22501     22497     22543     22540
     22501     22497     22543     22544     22501     22497     22543     22545
     22501     22504     22505     22506     22501     22504     22505     22507
     22501     22504     22535     22533     22501     22504     22535     22536
     22501     22504     22535     22540     22502     22501     22497     22543
     22502     22501     22504     22505     22502     22501     22504     22535
     22503     22501     22497     22543     22503     22501     22504     22505
     22503     22501     22504     22535     22504     22501     22497     22543
     22504     22505     22507     22508     22504     22505     22507     22509
     22504     22505     22507     22510     22504     22535     22533     22510
     22504     22535     22533     22530     22504     22535     22533     22534
     22504     22535     22536     22537     22504     22535     22536     22538
     22504     22535     22536     22539     22504     22535     22540     22541
     22504     22535     22540     22542     22504     22535     22540     22543
     22505     22504     22535     22533     22505     22504     22535     22536
     22505     22504     22535     22540     22505     22507     22510     22511
     22505     22507     22510     22512     22505     22507     22510     22533
     22506     22505     22504     22535     22506     22505     22507     22508
     22506     22505     22507     22509     22506     22505     22507     22510
     22507     22505     22504     22535     22507     22510     22512     22513
     22507     22510     22512     22514     22507     22510     22512     22522
     22507     22510     22533     22530     22507     22510     22533     22534
     22507     22510     22533     22535     22508     22507     22510     22511
     22508     22507     22510     22512     22508     22507     22510     22533
     22509     22507     22510     22511     22509     22507     22510     22512
     22509     22507     22510     22533     22510     22512     22514     22515
     22510     22512     22514     22516     22510     22512     22514     22517
     22510     22512     22522     22520     22510     22512     22522     22523
     22510     22512     22522     22527     22510     22533     22530     22527
     22510     22533     22530     22531     22510     22533     22530     22532
     22510     22533     22535     22536     22510     22533     22535     22540
     22511     22510     22512     22513     22511     22510     22512     22514
     22511     22510     22512     22522     22511     22510     22533     22530
     22511     22510     22533     22534     22511     22510     22533     22535
     22512     22510     22533     22530     22512     22510     22533     22534
     22512     22510     22533     22535     22512     22514     22517     22518
     22512     22514     22517     22519     22512     22514     22517     22520
     22512     22522     22520     22517     22512     22522     22520     22521
     22512     22522     22520     22546     22512     22522     22523     22524
     22512     22522     22523     22525     22512     22522     22523     22526
     22512     22522     22527     22528     22512     22522     22527     22529
     22512     22522     22527     22530     22513     22512     22510     22533
     22513     22512     22514     22515     22513     22512     22514     22516
     22513     22512     22514     22517     22513     22512     22522     22520
     22513     22512     22522     22523     22513     22512     22522     22527
     22514     22512     22510     22533     22514     22512     22522     22520
     22514     22512     22522     22523     22514     22512     22522     22527
     22514     22517     22520     22521     22514     22517     22520     22522
     22514     22517     22520     22546     22515     22514     22512     22522
     22515     22514     22517     22518     22515     22514     22517     22519
     22515     22514     22517     22520     22516     22514     22512     22522
     22516     22514     22517     22518     22516     22514     22517     22519
     22516     22514     22517     22520     22517     22514     22512     22522
     22517     22520     22522     22523     22517     22520     22522     22527
     22517     22520     22546     22547     22517     22520     22546     22548
     22517     22520     22546     22552     22518     22517     22520     22521
     22518     22517     22520     22522     22518     22517     22520     22546
     22519     22517     22520     22521     22519     22517     22520     22522
     22519     22517     22520     22546     22520     22522     22523     22524
     22520     22522     22523     22525     22520     22522     22523     22526
     22520     22522     22527     22528     22520     22522     22527     22529
     22520     22522     22527     22530     22520     22546     22548     22549
     22520     22546     22548     22550     22520     22546     22548     22551
     22520     22546     22552     22553     22520     22546     22552     22554
     22520     22546     22552     22555     22521     22520     22522     22523
     22521     22520     22522     22527     22521     22520     22546     22547
     22521     22520     22546     22548     22521     22520     22546     22552
     22522     22512     22510     22533     22522     22520     22546     22547
     22522     22520     22546     22548     22522     22520     22546     22552
     22522     22527     22530     22531     22522     22527     22530     22532
     22522     22527     22530     22533     22523     22522     22520     22546
     22523     22522     22527     22528     22523     22522     22527     22529
     22523     22522     22527     22530     22524     22523     22522     22527
     22525     22523     22522     22527     22526     22523     22522     22527
     22527     22522     22520     22546     22527     22530     22533     22534
     22527     22530     22533     22535     22528     22527     22530     22531
     22528     22527     22530     22532     22528     22527     22530     22533
     22529     22527     22530     22531     22529     22527     22530     22532
     22529     22527     22530     22533     22530     22533     22535     22536
     22530     22533     22535     22540     22531     22530     22533     22534
     22531     22530     22533     22535     22532     22530     22533     22534
     22532     22530     22533     22535     22533     22535     22536     22537
     22533     22535     22536     22538     22533     22535     22536     22539
     22533     22535     22540     22541     22533     22535     22540     22542
     22533     22535     22540     22543     22534     22533     22535     22536
     22534     22533     22535     22540     22535     22540     22543     22544
     22535     22540     22543     22545     22536     22535     22540     22541
     22536     22535     22540     22542     22536     22535     22540     22543
     22537     22536     22535     22540     22538     22536     22535     22540
     22539     22536     22535     22540     22541     22540     22543     22544
     22541     22540     22543     22545     22542     22540     22543     22544
     22542     22540     22543     22545     22546     22552     22555     22556
     22546     22552     22555     22557     22546     22552     22555     22558
     22547     22546     22548     22549     22547     22546     22548     22550
     22547     22546     22548     22551     22547     22546     22552     22553
     22547     22546     22552     22554     22547     22546     22552     22555
     22548     22546     22552     22553     22548     22546     22552     22554
     22548     22546     22552     22555     22549     22548     22546     22552
     22550     22548     22546     22552     22551     22548     22546     22552
     22552     22555     22558     22559     22552     22555     22558     22560
     22552     22555     22558     22561     22553     22552     22555     22556
     22553     22552     22555     22557     22553     22552     22555     22558
     22554     22552     22555     22556     22554     22552     22555     22557
     22554     22552     22555     22558     22555     22558     22561     22562
     22555     22558     22561     22563     22555     22558     22561     22567
     22556     22555     22558     22559     22556     22555     22558     22560
     22556     22555     22558     22561     22557     22555     22558     22559
     22557     22555     22558     22560     22557     22555     22558     22561
     22558     22561     22563     22564     22558     22561     22563     22565
     22558     22561     22563     22566     22558     22561     22567     22568
     22558     22561     22567     22569     22558     22561     22567     22570
     22559     22558     22561     22562     22559     22558     22561     22563
     22559     22558     22561     22567     22560     22558     22561     22562
     22560     22558     22561     22563     22560     22558     22561     22567
     22562     22561     22563     22564     22562     22561     22563     22565
     22562     22561     22563     22566     22562     22561     22567     22568
     22562     22561     22567     22569     22562     22561     22567     22570
     22563     22561     22567     22568     22563     22561     22567     22569
     22563     22561     22567     22570     22564     22563     22561     22567
     22565     22563     22561     22567     22566     22563     22561     22567
     22571     22575     22578     22579     22571     22575     22578     22609
     22571     22617     22614     22609     22571     22617     22614     22615
     22571     22617     22614     22616     22572     22571     22573     22574
     22572     22571     22575     22576     22572     22571     22575     22577
     22572     22571     22575     22578     22572     22571     22617     22614
     22572     22571     22617     22618     22572     22571     22617     22619
     22573     22571     22575     22576     22573     22571     22575     22577
     22573     22571     22575     22578     22573     22571     22617     22614
     22573     22571     22617     22618     22573     22571     22617     22619
     22574     22573     22571     22575     22574     22573     22571     22617
     22575     22571     22617     22614     22575     22571     22617     22618
     22575     22571     22617     22619     22575     22578     22579     22580
     22575     22578     22579     22581     22575     22578     22609     22607
     22575     22578     22609     22610     22575     22578     22609     22614
     22576     22575     22571     22617     22576     22575     22578     22579
     22576     22575     22578     22609     22577     22575     22571     22617
     22577     22575     22578     22579     22577     22575     22578     22609
     22578     22575     22571     22617     22578     22579     22581     22582
     22578     22579     22581     22583     22578     22579     22581     22584
     22578     22609     22607     22584     22578     22609     22607     22604
     22578     22609     22607     22608     22578     22609     22610     22611
     22578     22609     22610     22612     22578     22609     22610     22613
     22578     22609     22614     22615     22578     22609     22614     22616
     22578     22609     22614     22617     22579     22578     22609     22607
     22579     22578     22609     22610     22579     22578     22609     22614
     22579     22581     22584     22585     22579     22581     22584     22586
     22579     22581     22584     22607     22580     22579     22578     22609
     22580     22579     22581     22582     22580     22579     22581     22583
     22580     22579     22581     22584     22581     22579     22578     22609
     22581     22584     22586     22587     22581     22584     22586     22588
     22581     22584     22586     22596     22581     22584     22607     22604
     22581     22584     22607     22608     22581     22584     22607     22609
     22582     22581     22584     22585     22582     22581     22584     22586
     22582     22581     22584     22607     22583     22581     22584     22585
     22583     22581     22584     22586     22583     22581     22584     22607
     22584     22586     22588     22589     22584     22586     22588     22590
     22584     22586     22588     22591     22584     22586     22596     22594
     22584     22586     22596     22597     22584     22586     22596     22601
     22584     22607     22604     22601     22584     22607     22604     22605
     22584     22607     22604     22606     22584     22607     22609     22610
     22584     22607     22609     22614     22585     22584     22586     22587
     22585     22584     22586     22588     22585     22584     22586     22596
     22585     22584     22607     22604     22585     22584     22607     22608
     22585     22584     22607     22609     22586     22584     22607     22604
     22586     22584     22607     22608     22586     22584     22607     22609
     22586     22588     22591     22592     22586     22588     22591     22593
     22586     22588     22591     22594     22586     22596     22594     22591
     22586     22596     22594     22595     22586     22596     22594     22620
     22586     22596     22597     22598     22586     22596     22597     22599
     22586     22596     22597     22600     22586     22596     22601     22602
     22586     22596     22601     22603     22586     22596     22601     22604
     22587     22586     22584     22607     22587     22586     22588     22589
     22587     22586     22588     22590     22587     22586     22588     22591
     22587     22586     22596     22594     22587     22586     22596     22597
     22587     22586     22596     22601     22588     22586     22584     22607
     22588     22586     22596     22594     22588     22586     22596     22597
     22588     22586     22596     22601     22588     22591     22594     22595
     22588     22591     22594     22596     22588     22591     22594     22620
     22589     22588     22586     22596     22589     22588     22591     22592
     22589     22588     22591     22593     22589     22588     22591     22594
     22590     22588     22586     22596     22590     22588     22591     22592
     22590     22588     22591     22593     22590     22588     22591     22594
     22591     22588     22586     22596     22591     22594     22596     22597
     22591     22594     22596     22601     22591     22594     22620     22621
     22591     22594     22620     22622     22591     22594     22620     22626
     22592     22591     22594     22595     22592     22591     22594     22596
     22592     22591     22594     22620     22593     22591     22594     22595
     22593     22591     22594     22596     22593     22591     22594     22620
     22594     22596     22597     22598     22594     22596     22597     22599
     22594     22596     22597     22600     22594     22596     22601     22602
     22594     22596     22601     22603     22594     22596     22601     22604
     22594     22620     22622     22623     22594     22620     22622     22624
     22594     22620     22622     22625     22594     22620     22626     22627
     22594     22620     22626     22628     22594     22620     22626     22629
     22595     22594     22596     22597     22595     22594     22596     22601
     22595     22594     22620     22621     22595     22594     22620     22622
     22595     22594     22620     22626     22596     22586     22584     22607
     22596     22594     22620     22621     22596     22594     22620     22622
     22596     22594     22620     22626     22596     22601     22604     22605
     22596     22601     22604     22606     22596     22601     22604     22607
     22597     22596     22594     22620     22597     22596     22601     22602
     22597     22596     22601     22603     22597     22596     22601     22604
     22598     22597     22596     22601     22599     22597     22596     22601
     22600     22597     22596     22601     22601     22596     22594     22620
     22601     22604     22607     22608     22601     22604     22607     22609
     22602     22601     22604     22605     22602     22601     22604     22606
     22602     22601     22604     22607     22603     22601     22604     22605
     22603     22601     22604     22606     22603     22601     22604     22607
     22604     22607     22609     22610     22604     22607     22609     22614
     22605     22604     22607     22608     22605     22604     22607     22609
     22606     22604     22607     22608     22606     22604     22607     22609
     22607     22609     22610     22611     22607     22609     22610     22612
     22607     22609     22610     22613     22607     22609     22614     22615
     22607     22609     22614     22616     22607     22609     22614     22617
     22608     22607     22609     22610     22608     22607     22609     22614
     22609     22614     22617     22618     22609     22614     22617     22619
     22610     22609     22614     22615     22610     22609     22614     22616
     22610     22609     22614     22617     22611     22610     22609     22614
     22612     22610     22609     22614     22613     22610     22609     22614
     22615     22614     22617     22618     22615     22614     22617     22619
     22616     22614     22617     22618     22616     22614     22617     22619
     22620     22626     22629     22630     22620     22626     22629     22631
     22620     22626     22629     22632     22621     22620     22622     22623
     22621     22620     22622     22624     22621     22620     22622     22625
     22621     22620     22626     22627     22621     22620     22626     22628
     22621     22620     22626     22629     22622     22620     22626     22627
     22622     22620     22626     22628     22622     22620     22626     22629
     22623     22622     22620     22626     22624     22622     22620     22626
     22625     22622     22620     22626     22626     22629     22632     22633
     22626     22629     22632     22634     22626     22629     22632     22635
     22627     22626     22629     22630     22627     22626     22629     22631
     22627     22626     22629     22632     22628     22626     22629     22630
     22628     22626     22629     22631     22628     22626     22629     22632
     22629     22632     22635     22636     22629     22632     22635     22637
     22629     22632     22635     22641     22630     22629     22632     22633
     22630     22629     22632     22634     22630     22629     22632     22635
     22631     22629     22632     22633     22631     22629     22632     22634
     22631     22629     22632     22635     22632     22635     22637     22638
     22632     22635     22637     22639     22632     22635     22637     22640
     22632     22635     22641     22642     22632     22635     22641     22643
     22632     22635     22641     22644     22633     22632     22635     22636
     22633     22632     22635     22637     22633     22632     22635     22641
     22634     22632     22635     22636     22634     22632     22635     22637
     22634     22632     22635     22641     22636     22635     22637     22638
     22636     22635     22637     22639     22636     22635     22637     22640
     22636     22635     22641     22642     22636     22635     22641     22643
     22636     22635     22641     22644     22637     22635     22641     22642
     22637     22635     22641     22643     22637     22635     22641     22644
     22638     22637     22635     22641     22639     22637     22635     22641
     22640     22637     22635     22641     22645     22649     22652     22653
     22645     22649     22652     22683     22645     22691     22688     22683
     22645     22691     22688     22689     22645     22691     22688     22690
     22646     22645     22647     22648     22646     22645     22649     22650
     22646     22645     22649     22651     22646     22645     22649     22652
     22646     22645     22691     22688     22646     22645     22691     22692
     22646     22645     22691     22693     22647     22645     22649     22650
     22647     22645     22649     22651     22647     22645     22649     22652
     22647     22645     22691     22688     22647     22645     22691     22692
     22647     22645     22691     22693     22648     22647     22645     22649
     22648     22647     22645     22691     22649     22645     22691     22688
     22649     22645     22691     22692     22649     22645     22691     22693
     22649     22652     22653     22654     22649     22652     22653     22655
     22649     22652     22683     22681     22649     22652     22683     22684
     22649     22652     22683     22688     22650     22649     22645     22691
     22650     22649     22652     22653     22650     22649     22652     22683
     22651     22649     22645     22691     22651     22649     22652     22653
     22651     22649     22652     22683     22652     22649     22645     22691
     22652     22653     22655     22656     22652     22653     22655     22657
     22652     22653     22655     22658     22652     22683     22681     22658
     22652     22683     22681     22678     22652     22683     22681     22682
     22652     22683     22684     22685     22652     22683     22684     22686
     22652     22683     22684     22687     22652     22683     22688     22689
     22652     22683     22688     22690     22652     22683     22688     22691
     22653     22652     22683     22681     22653     22652     22683     22684
     22653     22652     22683     22688     22653     22655     22658     22659
     22653     22655     22658     22660     22653     22655     22658     22681
     22654     22653     22652     22683     22654     22653     22655     22656
     22654     22653     22655     22657     22654     22653     22655     22658
     22655     22653     22652     22683     22655     22658     22660     22661
     22655     22658     22660     22662     22655     22658     22660     22670
     22655     22658     22681     22678     22655     22658     22681     22682
     22655     22658     22681     22683     22656     22655     22658     22659
     22656     22655     22658     22660     22656     22655     22658     22681
     22657     22655     22658     22659     22657     22655     22658     22660
     22657     22655     22658     22681     22658     22660     22662     22663
     22658     22660     22662     22664     22658     22660     22662     22665
     22658     22660     22670     22668     22658     22660     22670     22671
     22658     22660     22670     22675     22658     22681     22678     22675
     22658     22681     22678     22679     22658     22681     22678     22680
     22658     22681     22683     22684     22658     22681     22683     22688
     22659     22658     22660     22661     22659     22658     22660     22662
     22659     22658     22660     22670     22659     22658     22681     22678
     22659     22658     22681     22682     22659     22658     22681     22683
     22660     22658     22681     22678     22660     22658     22681     22682
     22660     22658     22681     22683     22660     22662     22665     22666
     22660     22662     22665     22667     22660     22662     22665     22668
     22660     22670     22668     22665     22660     22670     22668     22669
     22660     22670     22668     22694     22660     22670     22671     22672
     22660     22670     22671     22673     22660     22670     22671     22674
     22660     22670     22675     22676     22660     22670     22675     22677
     22660     22670     22675     22678     22661     22660     22658     22681
     22661     22660     22662     22663     22661     22660     22662     22664
     22661     22660     22662     22665     22661     22660     22670     22668
     22661     22660     22670     22671     22661     22660     22670     22675
     22662     22660     22658     22681     22662     22660     22670     22668
     22662     22660     22670     22671     22662     22660     22670     22675
     22662     22665     22668     22669     22662     22665     22668     22670
     22662     22665     22668     22694     22663     22662     22660     22670
     22663     22662     22665     22666     22663     22662     22665     22667
     22663     22662     22665     22668     22664     22662     22660     22670
     22664     22662     22665     22666     22664     22662     22665     22667
     22664     22662     22665     22668     22665     22662     22660     22670
     22665     22668     22670     22671     22665     22668     22670     22675
     22665     22668     22694     22695     22665     22668     22694     22696
     22665     22668     22694     22700     22666     22665     22668     22669
     22666     22665     22668     22670     22666     22665     22668     22694
     22667     22665     22668     22669     22667     22665     22668     22670
     22667     22665     22668     22694     22668     22670     22671     22672
     22668     22670     22671     22673     22668     22670     22671     22674
     22668     22670     22675     22676     22668     22670     22675     22677
     22668     22670     22675     22678     22668     22694     22696     22697
     22668     22694     22696     22698     22668     22694     22696     22699
     22668     22694     22700     22701     22668     22694     22700     22702
     22668     22694     22700     22703     22669     22668     22670     22671
     22669     22668     22670     22675     22669     22668     22694     22695
     22669     22668     22694     22696     22669     22668     22694     22700
     22670     22660     22658     22681     22670     22668     22694     22695
     22670     22668     22694     22696     22670     22668     22694     22700
     22670     22675     22678     22679     22670     22675     22678     22680
     22670     22675     22678     22681     22671     22670     22668     22694
     22671     22670     22675     22676     22671     22670     22675     22677
     22671     22670     22675     22678     22672     22671     22670     22675
     22673     22671     22670     22675     22674     22671     22670     22675
     22675     22670     22668     22694     22675     22678     22681     22682
     22675     22678     22681     22683     22676     22675     22678     22679
     22676     22675     22678     22680     22676     22675     22678     22681
     22677     22675     22678     22679     22677     22675     22678     22680
     22677     22675     22678     22681     22678     22681     22683     22684
     22678     22681     22683     22688     22679     22678     22681     22682
     22679     22678     22681     22683     22680     22678     22681     22682
     22680     22678     22681     22683     22681     22683     22684     22685
     22681     22683     22684     22686     22681     22683     22684     22687
     22681     22683     22688     22689     22681     22683     22688     22690
     22681     22683     22688     22691     22682     22681     22683     22684
     22682     22681     22683     22688     22683     22688     22691     22692
     22683     22688     22691     22693     22684     22683     22688     22689
     22684     22683     22688     22690     22684     22683     22688     22691
     22685     22684     22683     22688     22686     22684     22683     22688
     22687     22684     22683     22688     22689     22688     22691     22692
     22689     22688     22691     22693     22690     22688     22691     22692
     22690     22688     22691     22693     22694     22700     22703     22704
     22694     22700     22703     22705     22694     22700     22703     22706
     22695     22694     22696     22697     22695     22694     22696     22698
     22695     22694     22696     22699     22695     22694     22700     22701
     22695     22694     22700     22702     22695     22694     22700     22703
     22696     22694     22700     22701     22696     22694     22700     22702
     22696     22694     22700     22703     22697     22696     22694     22700
     22698     22696     22694     22700     22699     22696     22694     22700
     22700     22703     22706     22707     22700     22703     22706     22708
     22700     22703     22706     22709     22701     22700     22703     22704
     22701     22700     22703     22705     22701     22700     22703     22706
     22702     22700     22703     22704     22702     22700     22703     22705
     22702     22700     22703     22706     22703     22706     22709     22710
     22703     22706     22709     22711     22703     22706     22709     22715
     22704     22703     22706     22707     22704     22703     22706     22708
     22704     22703     22706     22709     22705     22703     22706     22707
     22705     22703     22706     22708     22705     22703     22706     22709
     22706     22709     22711     22712     22706     22709     22711     22713
     22706     22709     22711     22714     22706     22709     22715     22716
     22706     22709     22715     22717     22706     22709     22715     22718
     22707     22706     22709     22710     22707     22706     22709     22711
     22707     22706     22709     22715     22708     22706     22709     22710
     22708     22706     22709     22711     22708     22706     22709     22715
     22710     22709     22711     22712     22710     22709     22711     22713
     22710     22709     22711     22714     22710     22709     22715     22716
     22710     22709     22715     22717     22710     22709     22715     22718
     22711     22709     22715     22716     22711     22709     22715     22717
     22711     22709     22715     22718     22712     22711     22709     22715
     22713     22711     22709     22715     22714     22711     22709     22715
     22719     22723     22726     22727     22719     22723     22726     22757
     22719     22765     22762     22757     22719     22765     22762     22763
     22719     22765     22762     22764     22720     22719     22721     22722
     22720     22719     22723     22724     22720     22719     22723     22725
     22720     22719     22723     22726     22720     22719     22765     22762
     22720     22719     22765     22766     22720     22719     22765     22767
     22721     22719     22723     22724     22721     22719     22723     22725
     22721     22719     22723     22726     22721     22719     22765     22762
     22721     22719     22765     22766     22721     22719     22765     22767
     22722     22721     22719     22723     22722     22721     22719     22765
     22723     22719     22765     22762     22723     22719     22765     22766
     22723     22719     22765     22767     22723     22726     22727     22728
     22723     22726     22727     22729     22723     22726     22757     22755
     22723     22726     22757     22758     22723     22726     22757     22762
     22724     22723     22719     22765     22724     22723     22726     22727
     22724     22723     22726     22757     22725     22723     22719     22765
     22725     22723     22726     22727     22725     22723     22726     22757
     22726     22723     22719     22765     22726     22727     22729     22730
     22726     22727     22729     22731     22726     22727     22729     22732
     22726     22757     22755     22732     22726     22757     22755     22752
     22726     22757     22755     22756     22726     22757     22758     22759
     22726     22757     22758     22760     22726     22757     22758     22761
     22726     22757     22762     22763     22726     22757     22762     22764
     22726     22757     22762     22765     22727     22726     22757     22755
     22727     22726     22757     22758     22727     22726     22757     22762
     22727     22729     22732     22733     22727     22729     22732     22734
     22727     22729     22732     22755     22728     22727     22726     22757
     22728     22727     22729     22730     22728     22727     22729     22731
     22728     22727     22729     22732     22729     22727     22726     22757
     22729     22732     22734     22735     22729     22732     22734     22736
     22729     22732     22734     22744     22729     22732     22755     22752
     22729     22732     22755     22756     22729     22732     22755     22757
     22730     22729     22732     22733     22730     22729     22732     22734
     22730     22729     22732     22755     22731     22729     22732     22733
     22731     22729     22732     22734     22731     22729     22732     22755
     22732     22734     22736     22737     22732     22734     22736     22738
     22732     22734     22736     22739     22732     22734     22744     22742
     22732     22734     22744     22745     22732     22734     22744     22749
     22732     22755     22752     22749     22732     22755     22752     22753
     22732     22755     22752     22754     22732     22755     22757     22758
     22732     22755     22757     22762     22733     22732     22734     22735
     22733     22732     22734     22736     22733     22732     22734     22744
     22733     22732     22755     22752     22733     22732     22755     22756
     22733     22732     22755     22757     22734     22732     22755     22752
     22734     22732     22755     22756     22734     22732     22755     22757
     22734     22736     22739     22740     22734     22736     22739     22741
     22734     22736     22739     22742     22734     22744     22742     22739
     22734     22744     22742     22743     22734     22744     22742     22768
     22734     22744     22745     22746     22734     22744     22745     22747
     22734     22744     22745     22748     22734     22744     22749     22750
     22734     22744     22749     22751     22734     22744     22749     22752
     22735     22734     22732     22755     22735     22734     22736     22737
     22735     22734     22736     22738     22735     22734     22736     22739
     22735     22734     22744     22742     22735     22734     22744     22745
     22735     22734     22744     22749     22736     22734     22732     22755
     22736     22734     22744     22742     22736     22734     22744     22745
     22736     22734     22744     22749     22736     22739     22742     22743
     22736     22739     22742     22744     22736     22739     22742     22768
     22737     22736     22734     22744     22737     22736     22739     22740
     22737     22736     22739     22741     22737     22736     22739     22742
     22738     22736     22734     22744     22738     22736     22739     22740
     22738     22736     22739     22741     22738     22736     22739     22742
     22739     22736     22734     22744     22739     22742     22744     22745
     22739     22742     22744     22749     22739     22742     22768     22769
     22739     22742     22768     22770     22739     22742     22768     22774
     22740     22739     22742     22743     22740     22739     22742     22744
     22740     22739     22742     22768     22741     22739     22742     22743
     22741     22739     22742     22744     22741     22739     22742     22768
     22742     22744     22745     22746     22742     22744     22745     22747
     22742     22744     22745     22748     22742     22744     22749     22750
     22742     22744     22749     22751     22742     22744     22749     22752
     22742     22768     22770     22771     22742     22768     22770     22772
     22742     22768     22770     22773     22742     22768     22774     22775
     22742     22768     22774     22776     22742     22768     22774     22777
     22743     22742     22744     22745     22743     22742     22744     22749
     22743     22742     22768     22769     22743     22742     22768     22770
     22743     22742     22768     22774     22744     22734     22732     22755
     22744     22742     22768     22769     22744     22742     22768     22770
     22744     22742     22768     22774     22744     22749     22752     22753
     22744     22749     22752     22754     22744     22749     22752     22755
     22745     22744     22742     22768     22745     22744     22749     22750
     22745     22744     22749     22751     22745     22744     22749     22752
     22746     22745     22744     22749     22747     22745     22744     22749
     22748     22745     22744     22749     22749     22744     22742     22768
     22749     22752     22755     22756     22749     22752     22755     22757
     22750     22749     22752     22753     22750     22749     22752     22754
     22750     22749     22752     22755     22751     22749     22752     22753
     22751     22749     22752     22754     22751     22749     22752     22755
     22752     22755     22757     22758     22752     22755     22757     22762
     22753     22752     22755     22756     22753     22752     22755     22757
     22754     22752     22755     22756     22754     22752     22755     22757
     22755     22757     22758     22759     22755     22757     22758     22760
     22755     22757     22758     22761     22755     22757     22762     22763
     22755     22757     22762     22764     22755     22757     22762     22765
     22756     22755     22757     22758     22756     22755     22757     22762
     22757     22762     22765     22766     22757     22762     22765     22767
     22758     22757     22762     22763     22758     22757     22762     22764
     22758     22757     22762     22765     22759     22758     22757     22762
     22760     22758     22757     22762     22761     22758     22757     22762
     22763     22762     22765     22766     22763     22762     22765     22767
     22764     22762     22765     22766     22764     22762     22765     22767
     22768     22774     22777     22778     22768     22774     22777     22779
     22768     22774     22777     22780     22769     22768     22770     22771
     22769     22768     22770     22772     22769     22768     22770     22773
     22769     22768     22774     22775     22769     22768     22774     22776
     22769     22768     22774     22777     22770     22768     22774     22775
     22770     22768     22774     22776     22770     22768     22774     22777
     22771     22770     22768     22774     22772     22770     22768     22774
     22773     22770     22768     22774     22774     22777     22780     22781
     22774     22777     22780     22782     22774     22777     22780     22783
     22775     22774     22777     22778     22775     22774     22777     22779
     22775     22774     22777     22780     22776     22774     22777     22778
     22776     22774     22777     22779     22776     22774     22777     22780
     22777     22780     22783     22784     22777     22780     22783     22785
     22777     22780     22783     22789     22778     22777     22780     22781
     22778     22777     22780     22782     22778     22777     22780     22783
     22779     22777     22780     22781     22779     22777     22780     22782
     22779     22777     22780     22783     22780     22783     22785     22786
     22780     22783     22785     22787     22780     22783     22785     22788
     22780     22783     22789     22790     22780     22783     22789     22791
     22780     22783     22789     22792     22781     22780     22783     22784
     22781     22780     22783     22785     22781     22780     22783     22789
     22782     22780     22783     22784     22782     22780     22783     22785
     22782     22780     22783     22789     22784     22783     22785     22786
     22784     22783     22785     22787     22784     22783     22785     22788
     22784     22783     22789     22790     22784     22783     22789     22791
     22784     22783     22789     22792     22785     22783     22789     22790
     22785     22783     22789     22791     22785     22783     22789     22792
     22786     22785     22783     22789     22787     22785     22783     22789
     22788     22785     22783     22789     22793     22797     22800     22801
     22793     22797     22800     22831     22793     22839     22836     22831
     22793     22839     22836     22837     22793     22839     22836     22838
     22794     22793     22795     22796     22794     22793     22797     22798
     22794     22793     22797     22799     22794     22793     22797     22800
     22794     22793     22839     22836     22794     22793     22839     22840
     22794     22793     22839     22841     22795     22793     22797     22798
     22795     22793     22797     22799     22795     22793     22797     22800
     22795     22793     22839     22836     22795     22793     22839     22840
     22795     22793     22839     22841     22796     22795     22793     22797
     22796     22795     22793     22839     22797     22793     22839     22836
     22797     22793     22839     22840     22797     22793     22839     22841
     22797     22800     22801     22802     22797     22800     22801     22803
     22797     22800     22831     22829     22797     22800     22831     22832
     22797     22800     22831     22836     22798     22797     22793     22839
     22798     22797     22800     22801     22798     22797     22800     22831
     22799     22797     22793     22839     22799     22797     22800     22801
     22799     22797     22800     22831     22800     22797     22793     22839
     22800     22801     22803     22804     22800     22801     22803     22805
     22800     22801     22803     22806     22800     22831     22829     22806
     22800     22831     22829     22826     22800     22831     22829     22830
     22800     22831     22832     22833     22800     22831     22832     22834
     22800     22831     22832     22835     22800     22831     22836     22837
     22800     22831     22836     22838     22800     22831     22836     22839
     22801     22800     22831     22829     22801     22800     22831     22832
     22801     22800     22831     22836     22801     22803     22806     22807
     22801     22803     22806     22808     22801     22803     22806     22829
     22802     22801     22800     22831     22802     22801     22803     22804
     22802     22801     22803     22805     22802     22801     22803     22806
     22803     22801     22800     22831     22803     22806     22808     22809
     22803     22806     22808     22810     22803     22806     22808     22818
     22803     22806     22829     22826     22803     22806     22829     22830
     22803     22806     22829     22831     22804     22803     22806     22807
     22804     22803     22806     22808     22804     22803     22806     22829
     22805     22803     22806     22807     22805     22803     22806     22808
     22805     22803     22806     22829     22806     22808     22810     22811
     22806     22808     22810     22812     22806     22808     22810     22813
     22806     22808     22818     22816     22806     22808     22818     22819
     22806     22808     22818     22823     22806     22829     22826     22823
     22806     22829     22826     22827     22806     22829     22826     22828
     22806     22829     22831     22832     22806     22829     22831     22836
     22807     22806     22808     22809     22807     22806     22808     22810
     22807     22806     22808     22818     22807     22806     22829     22826
     22807     22806     22829     22830     22807     22806     22829     22831
     22808     22806     22829     22826     22808     22806     22829     22830
     22808     22806     22829     22831     22808     22810     22813     22814
     22808     22810     22813     22815     22808     22810     22813     22816
     22808     22818     22816     22813     22808     22818     22816     22817
     22808     22818     22816     22842     22808     22818     22819     22820
     22808     22818     22819     22821     22808     22818     22819     22822
     22808     22818     22823     22824     22808     22818     22823     22825
     22808     22818     22823     22826     22809     22808     22806     22829
     22809     22808     22810     22811     22809     22808     22810     22812
     22809     22808     22810     22813     22809     22808     22818     22816
     22809     22808     22818     22819     22809     22808     22818     22823
     22810     22808     22806     22829     22810     22808     22818     22816
     22810     22808     22818     22819     22810     22808     22818     22823
     22810     22813     22816     22817     22810     22813     22816     22818
     22810     22813     22816     22842     22811     22810     22808     22818
     22811     22810     22813     22814     22811     22810     22813     22815
     22811     22810     22813     22816     22812     22810     22808     22818
     22812     22810     22813     22814     22812     22810     22813     22815
     22812     22810     22813     22816     22813     22810     22808     22818
     22813     22816     22818     22819     22813     22816     22818     22823
     22813     22816     22842     22843     22813     22816     22842     22844
     22813     22816     22842     22848     22814     22813     22816     22817
     22814     22813     22816     22818     22814     22813     22816     22842
     22815     22813     22816     22817     22815     22813     22816     22818
     22815     22813     22816     22842     22816     22818     22819     22820
     22816     22818     22819     22821     22816     22818     22819     22822
     22816     22818     22823     22824     22816     22818     22823     22825
     22816     22818     22823     22826     22816     22842     22844     22845
     22816     22842     22844     22846     22816     22842     22844     22847
     22816     22842     22848     22849     22816     22842     22848     22850
     22816     22842     22848     22851     22817     22816     22818     22819
     22817     22816     22818     22823     22817     22816     22842     22843
     22817     22816     22842     22844     22817     22816     22842     22848
     22818     22808     22806     22829     22818     22816     22842     22843
     22818     22816     22842     22844     22818     22816     22842     22848
     22818     22823     22826     22827     22818     22823     22826     22828
     22818     22823     22826     22829     22819     22818     22816     22842
     22819     22818     22823     22824     22819     22818     22823     22825
     22819     22818     22823     22826     22820     22819     22818     22823
     22821     22819     22818     22823     22822     22819     22818     22823
     22823     22818     22816     22842     22823     22826     22829     22830
     22823     22826     22829     22831     22824     22823     22826     22827
     22824     22823     22826     22828     22824     22823     22826     22829
     22825     22823     22826     22827     22825     22823     22826     22828
     22825     22823     22826     22829     22826     22829     22831     22832
     22826     22829     22831     22836     22827     22826     22829     22830
     22827     22826     22829     22831     22828     22826     22829     22830
     22828     22826     22829     22831     22829     22831     22832     22833
     22829     22831     22832     22834     22829     22831     22832     22835
     22829     22831     22836     22837     22829     22831     22836     22838
     22829     22831     22836     22839     22830     22829     22831     22832
     22830     22829     22831     22836     22831     22836     22839     22840
     22831     22836     22839     22841     22832     22831     22836     22837
     22832     22831     22836     22838     22832     22831     22836     22839
     22833     22832     22831     22836     22834     22832     22831     22836
     22835     22832     22831     22836     22837     22836     22839     22840
     22837     22836     22839     22841     22838     22836     22839     22840
     22838     22836     22839     22841     22842     22848     22851     22852
     22842     22848     22851     22853     22842     22848     22851     22854
     22843     22842     22844     22845     22843     22842     22844     22846
     22843     22842     22844     22847     22843     22842     22848     22849
     22843     22842     22848     22850     22843     22842     22848     22851
     22844     22842     22848     22849     22844     22842     22848     22850
     22844     22842     22848     22851     22845     22844     22842     22848
     22846     22844     22842     22848     22847     22844     22842     22848
     22848     22851     22854     22855     22848     22851     22854     22856
     22848     22851     22854     22857     22849     22848     22851     22852
     22849     22848     22851     22853     22849     22848     22851     22854
     22850     22848     22851     22852     22850     22848     22851     22853
     22850     22848     22851     22854     22851     22854     22857     22858
     22851     22854     22857     22859     22851     22854     22857     22863
     22852     22851     22854     22855     22852     22851     22854     22856
     22852     22851     22854     22857     22853     22851     22854     22855
     22853     22851     22854     22856     22853     22851     22854     22857
     22854     22857     22859     22860     22854     22857     22859     22861
     22854     22857     22859     22862     22854     22857     22863     22864
     22854     22857     22863     22865     22854     22857     22863     22866
     22855     22854     22857     22858     22855     22854     22857     22859
     22855     22854     22857     22863     22856     22854     22857     22858
     22856     22854     22857     22859     22856     22854     22857     22863
     22858     22857     22859     22860     22858     22857     22859     22861
     22858     22857     22859     22862     22858     22857     22863     22864
     22858     22857     22863     22865     22858     22857     22863     22866
     22859     22857     22863     22864     22859     22857     22863     22865
     22859     22857     22863     22866     22860     22859     22857     22863
     22861     22859     22857     22863     22862     22859     22857     22863
     22867     22871     22874     22875     22867     22871     22874     22905
     22867     22913     22910     22905     22867     22913     22910     22911
     22867     22913     22910     22912     22868     22867     22869     22870
     22868     22867     22871     22872     22868     22867     22871     22873
     22868     22867     22871     22874     22868     22867     22913     22910
     22868     22867     22913     22914     22868     22867     22913     22915
     22869     22867     22871     22872     22869     22867     22871     22873
     22869     22867     22871     22874     22869     22867     22913     22910
     22869     22867     22913     22914     22869     22867     22913     22915
     22870     22869     22867     22871     22870     22869     22867     22913
     22871     22867     22913     22910     22871     22867     22913     22914
     22871     22867     22913     22915     22871     22874     22875     22876
     22871     22874     22875     22877     22871     22874     22905     22903
     22871     22874     22905     22906     22871     22874     22905     22910
     22872     22871     22867     22913     22872     22871     22874     22875
     22872     22871     22874     22905     22873     22871     22867     22913
     22873     22871     22874     22875     22873     22871     22874     22905
     22874     22871     22867     22913     22874     22875     22877     22878
     22874     22875     22877     22879     22874     22875     22877     22880
     22874     22905     22903     22880     22874     22905     22903     22900
     22874     22905     22903     22904     22874     22905     22906     22907
     22874     22905     22906     22908     22874     22905     22906     22909
     22874     22905     22910     22911     22874     22905     22910     22912
     22874     22905     22910     22913     22875     22874     22905     22903
     22875     22874     22905     22906     22875     22874     22905     22910
     22875     22877     22880     22881     22875     22877     22880     22882
     22875     22877     22880     22903     22876     22875     22874     22905
     22876     22875     22877     22878     22876     22875     22877     22879
     22876     22875     22877     22880     22877     22875     22874     22905
     22877     22880     22882     22883     22877     22880     22882     22884
     22877     22880     22882     22892     22877     22880     22903     22900
     22877     22880     22903     22904     22877     22880     22903     22905
     22878     22877     22880     22881     22878     22877     22880     22882
     22878     22877     22880     22903     22879     22877     22880     22881
     22879     22877     22880     22882     22879     22877     22880     22903
     22880     22882     22884     22885     22880     22882     22884     22886
     22880     22882     22884     22887     22880     22882     22892     22890
     22880     22882     22892     22893     22880     22882     22892     22897
     22880     22903     22900     22897     22880     22903     22900     22901
     22880     22903     22900     22902     22880     22903     22905     22906
     22880     22903     22905     22910     22881     22880     22882     22883
     22881     22880     22882     22884     22881     22880     22882     22892
     22881     22880     22903     22900     22881     22880     22903     22904
     22881     22880     22903     22905     22882     22880     22903     22900
     22882     22880     22903     22904     22882     22880     22903     22905
     22882     22884     22887     22888     22882     22884     22887     22889
     22882     22884     22887     22890     22882     22892     22890     22887
     22882     22892     22890     22891     22882     22892     22890     22916
     22882     22892     22893     22894     22882     22892     22893     22895
     22882     22892     22893     22896     22882     22892     22897     22898
     22882     22892     22897     22899     22882     22892     22897     22900
     22883     22882     22880     22903     22883     22882     22884     22885
     22883     22882     22884     22886     22883     22882     22884     22887
     22883     22882     22892     22890     22883     22882     22892     22893
     22883     22882     22892     22897     22884     22882     22880     22903
     22884     22882     22892     22890     22884     22882     22892     22893
     22884     22882     22892     22897     22884     22887     22890     22891
     22884     22887     22890     22892     22884     22887     22890     22916
     22885     22884     22882     22892     22885     22884     22887     22888
     22885     22884     22887     22889     22885     22884     22887     22890
     22886     22884     22882     22892     22886     22884     22887     22888
     22886     22884     22887     22889     22886     22884     22887     22890
     22887     22884     22882     22892     22887     22890     22892     22893
     22887     22890     22892     22897     22887     22890     22916     22917
     22887     22890     22916     22918     22887     22890     22916     22922
     22888     22887     22890     22891     22888     22887     22890     22892
     22888     22887     22890     22916     22889     22887     22890     22891
     22889     22887     22890     22892     22889     22887     22890     22916
     22890     22892     22893     22894     22890     22892     22893     22895
     22890     22892     22893     22896     22890     22892     22897     22898
     22890     22892     22897     22899     22890     22892     22897     22900
     22890     22916     22918     22919     22890     22916     22918     22920
     22890     22916     22918     22921     22890     22916     22922     22923
     22890     22916     22922     22924     22890     22916     22922     22925
     22891     22890     22892     22893     22891     22890     22892     22897
     22891     22890     22916     22917     22891     22890     22916     22918
     22891     22890     22916     22922     22892     22882     22880     22903
     22892     22890     22916     22917     22892     22890     22916     22918
     22892     22890     22916     22922     22892     22897     22900     22901
     22892     22897     22900     22902     22892     22897     22900     22903
     22893     22892     22890     22916     22893     22892     22897     22898
     22893     22892     22897     22899     22893     22892     22897     22900
     22894     22893     22892     22897     22895     22893     22892     22897
     22896     22893     22892     22897     22897     22892     22890     22916
     22897     22900     22903     22904     22897     22900     22903     22905
     22898     22897     22900     22901     22898     22897     22900     22902
     22898     22897     22900     22903     22899     22897     22900     22901
     22899     22897     22900     22902     22899     22897     22900     22903
     22900     22903     22905     22906     22900     22903     22905     22910
     22901     22900     22903     22904     22901     22900     22903     22905
     22902     22900     22903     22904     22902     22900     22903     22905
     22903     22905     22906     22907     22903     22905     22906     22908
     22903     22905     22906     22909     22903     22905     22910     22911
     22903     22905     22910     22912     22903     22905     22910     22913
     22904     22903     22905     22906     22904     22903     22905     22910
     22905     22910     22913     22914     22905     22910     22913     22915
     22906     22905     22910     22911     22906     22905     22910     22912
     22906     22905     22910     22913     22907     22906     22905     22910
     22908     22906     22905     22910     22909     22906     22905     22910
     22911     22910     22913     22914     22911     22910     22913     22915
     22912     22910     22913     22914     22912     22910     22913     22915
     22916     22922     22925     22926     22916     22922     22925     22927
     22916     22922     22925     22928     22917     22916     22918     22919
     22917     22916     22918     22920     22917     22916     22918     22921
     22917     22916     22922     22923     22917     22916     22922     22924
     22917     22916     22922     22925     22918     22916     22922     22923
     22918     22916     22922     22924     22918     22916     22922     22925
     22919     22918     22916     22922     22920     22918     22916     22922
     22921     22918     22916     22922     22922     22925     22928     22929
     22922     22925     22928     22930     22922     22925     22928     22931
     22923     22922     22925     22926     22923     22922     22925     22927
     22923     22922     22925     22928     22924     22922     22925     22926
     22924     22922     22925     22927     22924     22922     22925     22928
     22925     22928     22931     22932     22925     22928     22931     22933
     22925     22928     22931     22937     22926     22925     22928     22929
     22926     22925     22928     22930     22926     22925     22928     22931
     22927     22925     22928     22929     22927     22925     22928     22930
     22927     22925     22928     22931     22928     22931     22933     22934
     22928     22931     22933     22935     22928     22931     22933     22936
     22928     22931     22937     22938     22928     22931     22937     22939
     22928     22931     22937     22940     22929     22928     22931     22932
     22929     22928     22931     22933     22929     22928     22931     22937
     22930     22928     22931     22932     22930     22928     22931     22933
     22930     22928     22931     22937     22932     22931     22933     22934
     22932     22931     22933     22935     22932     22931     22933     22936
     22932     22931     22937     22938     22932     22931     22937     22939
     22932     22931     22937     22940     22933     22931     22937     22938
     22933     22931     22937     22939     22933     22931     22937     22940
     22934     22933     22931     22937     22935     22933     22931     22937
     22936     22933     22931     22937     22941     22945     22948     22949
     22941     22945     22948     22979     22941     22987     22984     22979
     22941     22987     22984     22985     22941     22987     22984     22986
     22942     22941     22943     22944     22942     22941     22945     22946
     22942     22941     22945     22947     22942     22941     22945     22948
     22942     22941     22987     22984     22942     22941     22987     22988
     22942     22941     22987     22989     22943     22941     22945     22946
     22943     22941     22945     22947     22943     22941     22945     22948
     22943     22941     22987     22984     22943     22941     22987     22988
     22943     22941     22987     22989     22944     22943     22941     22945
     22944     22943     22941     22987     22945     22941     22987     22984
     22945     22941     22987     22988     22945     22941     22987     22989
     22945     22948     22949     22950     22945     22948     22949     22951
     22945     22948     22979     22977     22945     22948     22979     22980
     22945     22948     22979     22984     22946     22945     22941     22987
     22946     22945     22948     22949     22946     22945     22948     22979
     22947     22945     22941     22987     22947     22945     22948     22949
     22947     22945     22948     22979     22948     22945     22941     22987
     22948     22949     22951     22952     22948     22949     22951     22953
     22948     22949     22951     22954     22948     22979     22977     22954
     22948     22979     22977     22974     22948     22979     22977     22978
     22948     22979     22980     22981     22948     22979     22980     22982
     22948     22979     22980     22983     22948     22979     22984     22985
     22948     22979     22984     22986     22948     22979     22984     22987
     22949     22948     22979     22977     22949     22948     22979     22980
     22949     22948     22979     22984     22949     22951     22954     22955
     22949     22951     22954     22956     22949     22951     22954     22977
     22950     22949     22948     22979     22950     22949     22951     22952
     22950     22949     22951     22953     22950     22949     22951     22954
     22951     22949     22948     22979     22951     22954     22956     22957
     22951     22954     22956     22958     22951     22954     22956     22966
     22951     22954     22977     22974     22951     22954     22977     22978
     22951     22954     22977     22979     22952     22951     22954     22955
     22952     22951     22954     22956     22952     22951     22954     22977
     22953     22951     22954     22955     22953     22951     22954     22956
     22953     22951     22954     22977     22954     22956     22958     22959
     22954     22956     22958     22960     22954     22956     22958     22961
     22954     22956     22966     22964     22954     22956     22966     22967
     22954     22956     22966     22971     22954     22977     22974     22971
     22954     22977     22974     22975     22954     22977     22974     22976
     22954     22977     22979     22980     22954     22977     22979     22984
     22955     22954     22956     22957     22955     22954     22956     22958
     22955     22954     22956     22966     22955     22954     22977     22974
     22955     22954     22977     22978     22955     22954     22977     22979
     22956     22954     22977     22974     22956     22954     22977     22978
     22956     22954     22977     22979     22956     22958     22961     22962
     22956     22958     22961     22963     22956     22958     22961     22964
     22956     22966     22964     22961     22956     22966     22964     22965
     22956     22966     22964     22990     22956     22966     22967     22968
     22956     22966     22967     22969     22956     22966     22967     22970
     22956     22966     22971     22972     22956     22966     22971     22973
     22956     22966     22971     22974     22957     22956     22954     22977
     22957     22956     22958     22959     22957     22956     22958     22960
     22957     22956     22958     22961     22957     22956     22966     22964
     22957     22956     22966     22967     22957     22956     22966     22971
     22958     22956     22954     22977     22958     22956     22966     22964
     22958     22956     22966     22967     22958     22956     22966     22971
     22958     22961     22964     22965     22958     22961     22964     22966
     22958     22961     22964     22990     22959     22958     22956     22966
     22959     22958     22961     22962     22959     22958     22961     22963
     22959     22958     22961     22964     22960     22958     22956     22966
     22960     22958     22961     22962     22960     22958     22961     22963
     22960     22958     22961     22964     22961     22958     22956     22966
     22961     22964     22966     22967     22961     22964     22966     22971
     22961     22964     22990     22991     22961     22964     22990     22992
     22961     22964     22990     22996     22962     22961     22964     22965
     22962     22961     22964     22966     22962     22961     22964     22990
     22963     22961     22964     22965     22963     22961     22964     22966
     22963     22961     22964     22990     22964     22966     22967     22968
     22964     22966     22967     22969     22964     22966     22967     22970
     22964     22966     22971     22972     22964     22966     22971     22973
     22964     22966     22971     22974     22964     22990     22992     22993
     22964     22990     22992     22994     22964     22990     22992     22995
     22964     22990     22996     22997     22964     22990     22996     22998
     22964     22990     22996     22999     22965     22964     22966     22967
     22965     22964     22966     22971     22965     22964     22990     22991
     22965     22964     22990     22992     22965     22964     22990     22996
     22966     22956     22954     22977     22966     22964     22990     22991
     22966     22964     22990     22992     22966     22964     22990     22996
     22966     22971     22974     22975     22966     22971     22974     22976
     22966     22971     22974     22977     22967     22966     22964     22990
     22967     22966     22971     22972     22967     22966     22971     22973
     22967     22966     22971     22974     22968     22967     22966     22971
     22969     22967     22966     22971     22970     22967     22966     22971
     22971     22966     22964     22990     22971     22974     22977     22978
     22971     22974     22977     22979     22972     22971     22974     22975
     22972     22971     22974     22976     22972     22971     22974     22977
     22973     22971     22974     22975     22973     22971     22974     22976
     22973     22971     22974     22977     22974     22977     22979     22980
     22974     22977     22979     22984     22975     22974     22977     22978
     22975     22974     22977     22979     22976     22974     22977     22978
     22976     22974     22977     22979     22977     22979     22980     22981
     22977     22979     22980     22982     22977     22979     22980     22983
     22977     22979     22984     22985     22977     22979     22984     22986
     22977     22979     22984     22987     22978     22977     22979     22980
     22978     22977     22979     22984     22979     22984     22987     22988
     22979     22984     22987     22989     22980     22979     22984     22985
     22980     22979     22984     22986     22980     22979     22984     22987
     22981     22980     22979     22984     22982     22980     22979     22984
     22983     22980     22979     22984     22985     22984     22987     22988
     22985     22984     22987     22989     22986     22984     22987     22988
     22986     22984     22987     22989     22990     22996     22999     23000
     22990     22996     22999     23001     22990     22996     22999     23002
     22991     22990     22992     22993     22991     22990     22992     22994
     22991     22990     22992     22995     22991     22990     22996     22997
     22991     22990     22996     22998     22991     22990     22996     22999
     22992     22990     22996     22997     22992     22990     22996     22998
     22992     22990     22996     22999     22993     22992     22990     22996
     22994     22992     22990     22996     22995     22992     22990     22996
     22996     22999     23002     23003     22996     22999     23002     23004
     22996     22999     23002     23005     22997     22996     22999     23000
     22997     22996     22999     23001     22997     22996     22999     23002
     22998     22996     22999     23000     22998     22996     22999     23001
     22998     22996     22999     23002     22999     23002     23005     23006
     22999     23002     23005     23007     22999     23002     23005     23011
     23000     22999     23002     23003     23000     22999     23002     23004
     23000     22999     23002     23005     23001     22999     23002     23003
     23001     22999     23002     23004     23001     22999     23002     23005
     23002     23005     23007     23008     23002     23005     23007     23009
     23002     23005     23007     23010     23002     23005     23011     23012
     23002     23005     23011     23013     23002     23005     23011     23014
     23003     23002     23005     23006     23003     23002     23005     23007
     23003     23002     23005     23011     23004     23002     23005     23006
     23004     23002     23005     23007     23004     23002     23005     23011
     23006     23005     23007     23008     23006     23005     23007     23009
     23006     23005     23007     23010     23006     23005     23011     23012
     23006     23005     23011     23013     23006     23005     23011     23014
     23007     23005     23011     23012     23007     23005     23011     23013
     23007     23005     23011     23014     23008     23007     23005     23011
     23009     23007     23005     23011     23010     23007     23005     23011
     23015     23019     23022     23023     23015     23019     23022     23053
     23015     23061     23058     23053     23015     23061     23058     23059
     23015     23061     23058     23060     23016     23015     23017     23018
     23016     23015     23019     23020     23016     23015     23019     23021
     23016     23015     23019     23022     23016     23015     23061     23058
     23016     23015     23061     23062     23016     23015     23061     23063
     23017     23015     23019     23020     23017     23015     23019     23021
     23017     23015     23019     23022     23017     23015     23061     23058
     23017     23015     23061     23062     23017     23015     23061     23063
     23018     23017     23015     23019     23018     23017     23015     23061
     23019     23015     23061     23058     23019     23015     23061     23062
     23019     23015     23061     23063     23019     23022     23023     23024
     23019     23022     23023     23025     23019     23022     23053     23051
     23019     23022     23053     23054     23019     23022     23053     23058
     23020     23019     23015     23061     23020     23019     23022     23023
     23020     23019     23022     23053     23021     23019     23015     23061
     23021     23019     23022     23023     23021     23019     23022     23053
     23022     23019     23015     23061     23022     23023     23025     23026
     23022     23023     23025     23027     23022     23023     23025     23028
     23022     23053     23051     23028     23022     23053     23051     23048
     23022     23053     23051     23052     23022     23053     23054     23055
     23022     23053     23054     23056     23022     23053     23054     23057
     23022     23053     23058     23059     23022     23053     23058     23060
     23022     23053     23058     23061     23023     23022     23053     23051
     23023     23022     23053     23054     23023     23022     23053     23058
     23023     23025     23028     23029     23023     23025     23028     23030
     23023     23025     23028     23051     23024     23023     23022     23053
     23024     23023     23025     23026     23024     23023     23025     23027
     23024     23023     23025     23028     23025     23023     23022     23053
     23025     23028     23030     23031     23025     23028     23030     23032
     23025     23028     23030     23040     23025     23028     23051     23048
     23025     23028     23051     23052     23025     23028     23051     23053
     23026     23025     23028     23029     23026     23025     23028     23030
     23026     23025     23028     23051     23027     23025     23028     23029
     23027     23025     23028     23030     23027     23025     23028     23051
     23028     23030     23032     23033     23028     23030     23032     23034
     23028     23030     23032     23035     23028     23030     23040     23038
     23028     23030     23040     23041     23028     23030     23040     23045
     23028     23051     23048     23045     23028     23051     23048     23049
     23028     23051     23048     23050     23028     23051     23053     23054
     23028     23051     23053     23058     23029     23028     23030     23031
     23029     23028     23030     23032     23029     23028     23030     23040
     23029     23028     23051     23048     23029     23028     23051     23052
     23029     23028     23051     23053     23030     23028     23051     23048
     23030     23028     23051     23052     23030     23028     23051     23053
     23030     23032     23035     23036     23030     23032     23035     23037
     23030     23032     23035     23038     23030     23040     23038     23035
     23030     23040     23038     23039     23030     23040     23038     23064
     23030     23040     23041     23042     23030     23040     23041     23043
     23030     23040     23041     23044     23030     23040     23045     23046
     23030     23040     23045     23047     23030     23040     23045     23048
     23031     23030     23028     23051     23031     23030     23032     23033
     23031     23030     23032     23034     23031     23030     23032     23035
     23031     23030     23040     23038     23031     23030     23040     23041
     23031     23030     23040     23045     23032     23030     23028     23051
     23032     23030     23040     23038     23032     23030     23040     23041
     23032     23030     23040     23045     23032     23035     23038     23039
     23032     23035     23038     23040     23032     23035     23038     23064
     23033     23032     23030     23040     23033     23032     23035     23036
     23033     23032     23035     23037     23033     23032     23035     23038
     23034     23032     23030     23040     23034     23032     23035     23036
     23034     23032     23035     23037     23034     23032     23035     23038
     23035     23032     23030     23040     23035     23038     23040     23041
     23035     23038     23040     23045     23035     23038     23064     23065
     23035     23038     23064     23066     23035     23038     23064     23070
     23036     23035     23038     23039     23036     23035     23038     23040
     23036     23035     23038     23064     23037     23035     23038     23039
     23037     23035     23038     23040     23037     23035     23038     23064
     23038     23040     23041     23042     23038     23040     23041     23043
     23038     23040     23041     23044     23038     23040     23045     23046
     23038     23040     23045     23047     23038     23040     23045     23048
     23038     23064     23066     23067     23038     23064     23066     23068
     23038     23064     23066     23069     23038     23064     23070     23071
     23038     23064     23070     23072     23038     23064     23070     23073
     23039     23038     23040     23041     23039     23038     23040     23045
     23039     23038     23064     23065     23039     23038     23064     23066
     23039     23038     23064     23070     23040     23030     23028     23051
     23040     23038     23064     23065     23040     23038     23064     23066
     23040     23038     23064     23070     23040     23045     23048     23049
     23040     23045     23048     23050     23040     23045     23048     23051
     23041     23040     23038     23064     23041     23040     23045     23046
     23041     23040     23045     23047     23041     23040     23045     23048
     23042     23041     23040     23045     23043     23041     23040     23045
     23044     23041     23040     23045     23045     23040     23038     23064
     23045     23048     23051     23052     23045     23048     23051     23053
     23046     23045     23048     23049     23046     23045     23048     23050
     23046     23045     23048     23051     23047     23045     23048     23049
     23047     23045     23048     23050     23047     23045     23048     23051
     23048     23051     23053     23054     23048     23051     23053     23058
     23049     23048     23051     23052     23049     23048     23051     23053
     23050     23048     23051     23052     23050     23048     23051     23053
     23051     23053     23054     23055     23051     23053     23054     23056
     23051     23053     23054     23057     23051     23053     23058     23059
     23051     23053     23058     23060     23051     23053     23058     23061
     23052     23051     23053     23054     23052     23051     23053     23058
     23053     23058     23061     23062     23053     23058     23061     23063
     23054     23053     23058     23059     23054     23053     23058     23060
     23054     23053     23058     23061     23055     23054     23053     23058
     23056     23054     23053     23058     23057     23054     23053     23058
     23059     23058     23061     23062     23059     23058     23061     23063
     23060     23058     23061     23062     23060     23058     23061     23063
     23064     23070     23073     23074     23064     23070     23073     23075
     23064     23070     23073     23076     23065     23064     23066     23067
     23065     23064     23066     23068     23065     23064     23066     23069
     23065     23064     23070     23071     23065     23064     23070     23072
     23065     23064     23070     23073     23066     23064     23070     23071
     23066     23064     23070     23072     23066     23064     23070     23073
     23067     23066     23064     23070     23068     23066     23064     23070
     23069     23066     23064     23070     23070     23073     23076     23077
     23070     23073     23076     23078     23070     23073     23076     23079
     23071     23070     23073     23074     23071     23070     23073     23075
     23071     23070     23073     23076     23072     23070     23073     23074
     23072     23070     23073     23075     23072     23070     23073     23076
     23073     23076     23079     23080     23073     23076     23079     23081
     23073     23076     23079     23085     23074     23073     23076     23077
     23074     23073     23076     23078     23074     23073     23076     23079
     23075     23073     23076     23077     23075     23073     23076     23078
     23075     23073     23076     23079     23076     23079     23081     23082
     23076     23079     23081     23083     23076     23079     23081     23084
     23076     23079     23085     23086     23076     23079     23085     23087
     23076     23079     23085     23088     23077     23076     23079     23080
     23077     23076     23079     23081     23077     23076     23079     23085
     23078     23076     23079     23080     23078     23076     23079     23081
     23078     23076     23079     23085     23080     23079     23081     23082
     23080     23079     23081     23083     23080     23079     23081     23084
     23080     23079     23085     23086     23080     23079     23085     23087
     23080     23079     23085     23088     23081     23079     23085     23086
     23081     23079     23085     23087     23081     23079     23085     23088
     23082     23081     23079     23085     23083     23081     23079     23085
     23084     23081     23079     23085     23089     23093     23096     23097
     23089     23093     23096     23127     23089     23135     23132     23127
     23089     23135     23132     23133     23089     23135     23132     23134
     23090     23089     23091     23092     23090     23089     23093     23094
     23090     23089     23093     23095     23090     23089     23093     23096
     23090     23089     23135     23132     23090     23089     23135     23136
     23090     23089     23135     23137     23091     23089     23093     23094
     23091     23089     23093     23095     23091     23089     23093     23096
     23091     23089     23135     23132     23091     23089     23135     23136
     23091     23089     23135     23137     23092     23091     23089     23093
     23092     23091     23089     23135     23093     23089     23135     23132
     23093     23089     23135     23136     23093     23089     23135     23137
     23093     23096     23097     23098     23093     23096     23097     23099
     23093     23096     23127     23125     23093     23096     23127     23128
     23093     23096     23127     23132     23094     23093     23089     23135
     23094     23093     23096     23097     23094     23093     23096     23127
     23095     23093     23089     23135     23095     23093     23096     23097
     23095     23093     23096     23127     23096     23093     23089     23135
     23096     23097     23099     23100     23096     23097     23099     23101
     23096     23097     23099     23102     23096     23127     23125     23102
     23096     23127     23125     23122     23096     23127     23125     23126
     23096     23127     23128     23129     23096     23127     23128     23130
     23096     23127     23128     23131     23096     23127     23132     23133
     23096     23127     23132     23134     23096     23127     23132     23135
     23097     23096     23127     23125     23097     23096     23127     23128
     23097     23096     23127     23132     23097     23099     23102     23103
     23097     23099     23102     23104     23097     23099     23102     23125
     23098     23097     23096     23127     23098     23097     23099     23100
     23098     23097     23099     23101     23098     23097     23099     23102
     23099     23097     23096     23127     23099     23102     23104     23105
     23099     23102     23104     23106     23099     23102     23104     23114
     23099     23102     23125     23122     23099     23102     23125     23126
     23099     23102     23125     23127     23100     23099     23102     23103
     23100     23099     23102     23104     23100     23099     23102     23125
     23101     23099     23102     23103     23101     23099     23102     23104
     23101     23099     23102     23125     23102     23104     23106     23107
     23102     23104     23106     23108     23102     23104     23106     23109
     23102     23104     23114     23112     23102     23104     23114     23115
     23102     23104     23114     23119     23102     23125     23122     23119
     23102     23125     23122     23123     23102     23125     23122     23124
     23102     23125     23127     23128     23102     23125     23127     23132
     23103     23102     23104     23105     23103     23102     23104     23106
     23103     23102     23104     23114     23103     23102     23125     23122
     23103     23102     23125     23126     23103     23102     23125     23127
     23104     23102     23125     23122     23104     23102     23125     23126
     23104     23102     23125     23127     23104     23106     23109     23110
     23104     23106     23109     23111     23104     23106     23109     23112
     23104     23114     23112     23109     23104     23114     23112     23113
     23104     23114     23112     23138     23104     23114     23115     23116
     23104     23114     23115     23117     23104     23114     23115     23118
     23104     23114     23119     23120     23104     23114     23119     23121
     23104     23114     23119     23122     23105     23104     23102     23125
     23105     23104     23106     23107     23105     23104     23106     23108
     23105     23104     23106     23109     23105     23104     23114     23112
     23105     23104     23114     23115     23105     23104     23114     23119
     23106     23104     23102     23125     23106     23104     23114     23112
     23106     23104     23114     23115     23106     23104     23114     23119
     23106     23109     23112     23113     23106     23109     23112     23114
     23106     23109     23112     23138     23107     23106     23104     23114
     23107     23106     23109     23110     23107     23106     23109     23111
     23107     23106     23109     23112     23108     23106     23104     23114
     23108     23106     23109     23110     23108     23106     23109     23111
     23108     23106     23109     23112     23109     23106     23104     23114
     23109     23112     23114     23115     23109     23112     23114     23119
     23109     23112     23138     23139     23109     23112     23138     23140
     23109     23112     23138     23144     23110     23109     23112     23113
     23110     23109     23112     23114     23110     23109     23112     23138
     23111     23109     23112     23113     23111     23109     23112     23114
     23111     23109     23112     23138     23112     23114     23115     23116
     23112     23114     23115     23117     23112     23114     23115     23118
     23112     23114     23119     23120     23112     23114     23119     23121
     23112     23114     23119     23122     23112     23138     23140     23141
     23112     23138     23140     23142     23112     23138     23140     23143
     23112     23138     23144     23145     23112     23138     23144     23146
     23112     23138     23144     23147     23113     23112     23114     23115
     23113     23112     23114     23119     23113     23112     23138     23139
     23113     23112     23138     23140     23113     23112     23138     23144
     23114     23104     23102     23125     23114     23112     23138     23139
     23114     23112     23138     23140     23114     23112     23138     23144
     23114     23119     23122     23123     23114     23119     23122     23124
     23114     23119     23122     23125     23115     23114     23112     23138
     23115     23114     23119     23120     23115     23114     23119     23121
     23115     23114     23119     23122     23116     23115     23114     23119
     23117     23115     23114     23119     23118     23115     23114     23119
     23119     23114     23112     23138     23119     23122     23125     23126
     23119     23122     23125     23127     23120     23119     23122     23123
     23120     23119     23122     23124     23120     23119     23122     23125
     23121     23119     23122     23123     23121     23119     23122     23124
     23121     23119     23122     23125     23122     23125     23127     23128
     23122     23125     23127     23132     23123     23122     23125     23126
     23123     23122     23125     23127     23124     23122     23125     23126
     23124     23122     23125     23127     23125     23127     23128     23129
     23125     23127     23128     23130     23125     23127     23128     23131
     23125     23127     23132     23133     23125     23127     23132     23134
     23125     23127     23132     23135     23126     23125     23127     23128
     23126     23125     23127     23132     23127     23132     23135     23136
     23127     23132     23135     23137     23128     23127     23132     23133
     23128     23127     23132     23134     23128     23127     23132     23135
     23129     23128     23127     23132     23130     23128     23127     23132
     23131     23128     23127     23132     23133     23132     23135     23136
     23133     23132     23135     23137     23134     23132     23135     23136
     23134     23132     23135     23137     23138     23144     23147     23148
     23138     23144     23147     23149     23138     23144     23147     23150
     23139     23138     23140     23141     23139     23138     23140     23142
     23139     23138     23140     23143     23139     23138     23144     23145
     23139     23138     23144     23146     23139     23138     23144     23147
     23140     23138     23144     23145     23140     23138     23144     23146
     23140     23138     23144     23147     23141     23140     23138     23144
     23142     23140     23138     23144     23143     23140     23138     23144
     23144     23147     23150     23151     23144     23147     23150     23152
     23144     23147     23150     23153     23145     23144     23147     23148
     23145     23144     23147     23149     23145     23144     23147     23150
     23146     23144     23147     23148     23146     23144     23147     23149
     23146     23144     23147     23150     23147     23150     23153     23154
     23147     23150     23153     23155     23147     23150     23153     23159
     23148     23147     23150     23151     23148     23147     23150     23152
     23148     23147     23150     23153     23149     23147     23150     23151
     23149     23147     23150     23152     23149     23147     23150     23153
     23150     23153     23155     23156     23150     23153     23155     23157
     23150     23153     23155     23158     23150     23153     23159     23160
     23150     23153     23159     23161     23150     23153     23159     23162
     23151     23150     23153     23154     23151     23150     23153     23155
     23151     23150     23153     23159     23152     23150     23153     23154
     23152     23150     23153     23155     23152     23150     23153     23159
     23154     23153     23155     23156     23154     23153     23155     23157
     23154     23153     23155     23158     23154     23153     23159     23160
     23154     23153     23159     23161     23154     23153     23159     23162
     23155     23153     23159     23160     23155     23153     23159     23161
     23155     23153     23159     23162     23156     23155     23153     23159
     23157     23155     23153     23159     23158     23155     23153     23159
     23163     23164     23179     23180     23163     23164     23179     23181
     23163     23164     23179     23185     23164     23163     23167     23168
     23164     23163     23167     23169     23164     23163     23167     23170
     23164     23163     23171     23172     23164     23163     23171     23173
     23164     23163     23171     23174     23164     23163     23175     23176
     23164     23163     23175     23177     23164     23163     23175     23178
     23164     23179     23185     23182     23165     23164     23163     23167
     23165     23164     23163     23171     23165     23164     23163     23175
     23165     23164     23179     23180     23165     23164     23179     23181
     23165     23164     23179     23185     23166     23164     23163     23167
     23166     23164     23163     23171     23166     23164     23163     23175
     23166     23164     23179     23180     23166     23164     23179     23181
     23166     23164     23179     23185     23167     23163     23164     23179
     23167     23163     23171     23172     23167     23163     23171     23173
     23167     23163     23171     23174     23167     23163     23175     23176
     23167     23163     23175     23177     23167     23163     23175     23178
     23168     23167     23163     23171     23168     23167     23163     23175
     23169     23167     23163     23171     23169     23167     23163     23175
     23170     23167     23163     23171     23170     23167     23163     23175
     23171     23163     23164     23179     23171     23163     23175     23176
     23171     23163     23175     23177     23171     23163     23175     23178
     23172     23171     23163     23175     23173     23171     23163     23175
     23174     23171     23163     23175     23175     23163     23164     23179
     23179     23185     23182     23183     23179     23185     23182     23184
     23179     23185     23182     23186     23180     23179     23185     23182
     23181     23179     23185     23182     23182     23186     23187     23188
     23182     23186     23187     23189     23182     23186     23187     23190
     23183     23182     23186     23187     23184     23182     23186     23187
     23185     23182     23186     23187     23186     23187     23190     23191
     23186     23187     23190     23192     23186     23187     23190     23198
     23187     23190     23192     23193     23187     23190     23198     23199
     23187     23190     23198     23200     23187     23190     23198     23201
     23188     23187     23190     23191     23188     23187     23190     23192
     23188     23187     23190     23198     23189     23187     23190     23191
     23189     23187     23190     23192     23189     23187     23190     23198
     23190     23192     23193     23194     23190     23192     23193     23195
     23190     23198     23201     23202     23191     23190     23192     23193
     23191     23190     23198     23199     23191     23190     23198     23200
     23191     23190     23198     23201     23192     23190     23198     23199
     23192     23190     23198     23200     23192     23190     23198     23201
     23192     23193     23195     23196     23192     23193     23195     23197
     23192     23193     23195     23207     23193     23192     23190     23198
     23193     23195     23207     23208     23193     23195     23207     23209
     23193     23195     23207     23210     23194     23193     23195     23196
     23194     23193     23195     23197     23194     23193     23195     23207
     23195     23207     23210     23211     23195     23207     23210     23212
     23195     23207     23210     23213     23196     23195     23207     23208
     23196     23195     23207     23209     23196     23195     23207     23210
     23197     23195     23207     23208     23197     23195     23207     23209
     23197     23195     23207     23210     23198     23201     23202     23203
     23198     23201     23202     23204     23199     23198     23201     23202
     23200     23198     23201     23202     23201     23202     23204     23205
     23201     23202     23204     23206     23201     23202     23204     23254
     23202     23204     23254     23255     23202     23204     23254     23256
     23202     23204     23254     23257     23203     23202     23204     23205
     23203     23202     23204     23206     23203     23202     23204     23254
     23204     23254     23257     23258     23204     23254     23257     23259
     23204     23254     23257     23260     23205     23204     23254     23255
     23205     23204     23254     23256     23205     23204     23254     23257
     23206     23204     23254     23255     23206     23204     23254     23256
     23206     23204     23254     23257     23207     23210     23213     23214
     23207     23210     23213     23215     23207     23210     23213     23216
     23208     23207     23210     23211     23208     23207     23210     23212
     23208     23207     23210     23213     23209     23207     23210     23211
     23209     23207     23210     23212     23209     23207     23210     23213
     23210     23213     23216     23217     23210     23213     23216     23218
     23210     23213     23216     23219     23211     23210     23213     23214
     23211     23210     23213     23215     23211     23210     23213     23216
     23212     23210     23213     23214     23212     23210     23213     23215
     23212     23210     23213     23216     23213     23216     23219     23220
     23213     23216     23219     23221     23213     23216     23219     23222
     23214     23213     23216     23217     23214     23213     23216     23218
     23214     23213     23216     23219     23215     23213     23216     23217
     23215     23213     23216     23218     23215     23213     23216     23219
     23216     23219     23222     23223     23216     23219     23222     23224
     23216     23219     23222     23225     23217     23216     23219     23220
     23217     23216     23219     23221     23217     23216     23219     23222
     23218     23216     23219     23220     23218     23216     23219     23221
     23218     23216     23219     23222     23219     23222     23225     23226
     23219     23222     23225     23227     23220     23219     23222     23223
     23220     23219     23222     23224     23220     23219     23222     23225
     23221     23219     23222     23223     23221     23219     23222     23224
     23221     23219     23222     23225     23222     23225     23227     23228
     23222     23225     23227     23229     23223     23222     23225     23226
     23223     23222     23225     23227     23224     23222     23225     23226
     23224     23222     23225     23227     23225     23227     23229     23230
     23225     23227     23229     23231     23225     23227     23229     23232
     23226     23225     23227     23228     23226     23225     23227     23229
     23227     23229     23232     23233     23227     23229     23232     23234
     23227     23229     23232     23235     23228     23227     23229     23230
     23228     23227     23229     23231     23228     23227     23229     23232
     23229     23232     23235     23236     23229     23232     23235     23237
     23229     23232     23235     23238     23230     23229     23232     23233
     23230     23229     23232     23234     23230     23229     23232     23235
     23231     23229     23232     23233     23231     23229     23232     23234
     23231     23229     23232     23235     23232     23235     23238     23239
     23232     23235     23238     23240     23232     23235     23238     23241
     23233     23232     23235     23236     23233     23232     23235     23237
     23233     23232     23235     23238     23234     23232     23235     23236
     23234     23232     23235     23237     23234     23232     23235     23238
     23235     23238     23241     23242     23235     23238     23241     23243
     23235     23238     23241     23244     23236     23235     23238     23239
     23236     23235     23238     23240     23236     23235     23238     23241
     23237     23235     23238     23239     23237     23235     23238     23240
     23237     23235     23238     23241     23238     23241     23244     23245
     23238     23241     23244     23246     23238     23241     23244     23247
     23239     23238     23241     23242     23239     23238     23241     23243
     23239     23238     23241     23244     23240     23238     23241     23242
     23240     23238     23241     23243     23240     23238     23241     23244
     23241     23244     23247     23248     23241     23244     23247     23249
     23241     23244     23247     23250     23242     23241     23244     23245
     23242     23241     23244     23246     23242     23241     23244     23247
     23243     23241     23244     23245     23243     23241     23244     23246
     23243     23241     23244     23247     23244     23247     23250     23251
     23244     23247     23250     23252     23244     23247     23250     23253
     23245     23244     23247     23248     23245     23244     23247     23249
     23245     23244     23247     23250     23246     23244     23247     23248
     23246     23244     23247     23249     23246     23244     23247     23250
     23248     23247     23250     23251     23248     23247     23250     23252
     23248     23247     23250     23253     23249     23247     23250     23251
     23249     23247     23250     23252     23249     23247     23250     23253
     23254     23257     23260     23261     23254     23257     23260     23262
     23254     23257     23260     23263     23255     23254     23257     23258
     23255     23254     23257     23259     23255     23254     23257     23260
     23256     23254     23257     23258     23256     23254     23257     23259
     23256     23254     23257     23260     23257     23260     23263     23264
     23257     23260     23263     23265     23257     23260     23263     23266
     23258     23257     23260     23261     23258     23257     23260     23262
     23258     23257     23260     23263     23259     23257     23260     23261
     23259     23257     23260     23262     23259     23257     23260     23263
     23260     23263     23266     23267     23260     23263     23266     23268
     23260     23263     23266     23269     23261     23260     23263     23264
     23261     23260     23263     23265     23261     23260     23263     23266
     23262     23260     23263     23264     23262     23260     23263     23265
     23262     23260     23263     23266     23263     23266     23269     23270
     23263     23266     23269     23271     23263     23266     23269     23272
     23264     23263     23266     23267     23264     23263     23266     23268
     23264     23263     23266     23269     23265     23263     23266     23267
     23265     23263     23266     23268     23265     23263     23266     23269
     23266     23269     23272     23273     23266     23269     23272     23274
     23266     23269     23272     23275     23267     23266     23269     23270
     23267     23266     23269     23271     23267     23266     23269     23272
     23268     23266     23269     23270     23268     23266     23269     23271
     23268     23266     23269     23272     23269     23272     23275     23276
     23269     23272     23275     23277     23269     23272     23275     23278
     23270     23269     23272     23273     23270     23269     23272     23274
     23270     23269     23272     23275     23271     23269     23272     23273
     23271     23269     23272     23274     23271     23269     23272     23275
     23272     23275     23278     23279     23272     23275     23278     23280
     23272     23275     23278     23281     23273     23272     23275     23276
     23273     23272     23275     23277     23273     23272     23275     23278
     23274     23272     23275     23276     23274     23272     23275     23277
     23274     23272     23275     23278     23275     23278     23281     23282
     23275     23278     23281     23283     23275     23278     23281     23284
     23276     23275     23278     23279     23276     23275     23278     23280
     23276     23275     23278     23281     23277     23275     23278     23279
     23277     23275     23278     23280     23277     23275     23278     23281
     23278     23281     23284     23285     23278     23281     23284     23286
     23278     23281     23284     23287     23279     23278     23281     23282
     23279     23278     23281     23283     23279     23278     23281     23284
     23280     23278     23281     23282     23280     23278     23281     23283
     23280     23278     23281     23284     23281     23284     23287     23288
     23281     23284     23287     23289     23281     23284     23287     23290
     23282     23281     23284     23285     23282     23281     23284     23286
     23282     23281     23284     23287     23283     23281     23284     23285
     23283     23281     23284     23286     23283     23281     23284     23287
     23284     23287     23290     23291     23284     23287     23290     23292
     23284     23287     23290     23293     23285     23284     23287     23288
     23285     23284     23287     23289     23285     23284     23287     23290
     23286     23284     23287     23288     23286     23284     23287     23289
     23286     23284     23287     23290     23287     23290     23293     23294
     23287     23290     23293     23295     23287     23290     23293     23296
     23288     23287     23290     23291     23288     23287     23290     23292
     23288     23287     23290     23293     23289     23287     23290     23291
     23289     23287     23290     23292     23289     23287     23290     23293
     23291     23290     23293     23294     23291     23290     23293     23295
     23291     23290     23293     23296     23292     23290     23293     23294
     23292     23290     23293     23295     23292     23290     23293     23296
     23297     23298     23313     23314     23297     23298     23313     23315
     23297     23298     23313     23319     23298     23297     23301     23302
     23298     23297     23301     23303     23298     23297     23301     23304
     23298     23297     23305     23306     23298     23297     23305     23307
     23298     23297     23305     23308     23298     23297     23309     23310
     23298     23297     23309     23311     23298     23297     23309     23312
     23298     23313     23319     23316     23299     23298     23297     23301
     23299     23298     23297     23305     23299     23298     23297     23309
     23299     23298     23313     23314     23299     23298     23313     23315
     23299     23298     23313     23319     23300     23298     23297     23301
     23300     23298     23297     23305     23300     23298     23297     23309
     23300     23298     23313     23314     23300     23298     23313     23315
     23300     23298     23313     23319     23301     23297     23298     23313
     23301     23297     23305     23306     23301     23297     23305     23307
     23301     23297     23305     23308     23301     23297     23309     23310
     23301     23297     23309     23311     23301     23297     23309     23312
     23302     23301     23297     23305     23302     23301     23297     23309
     23303     23301     23297     23305     23303     23301     23297     23309
     23304     23301     23297     23305     23304     23301     23297     23309
     23305     23297     23298     23313     23305     23297     23309     23310
     23305     23297     23309     23311     23305     23297     23309     23312
     23306     23305     23297     23309     23307     23305     23297     23309
     23308     23305     23297     23309     23309     23297     23298     23313
     23313     23319     23316     23317     23313     23319     23316     23318
     23313     23319     23316     23320     23314     23313     23319     23316
     23315     23313     23319     23316     23316     23320     23321     23322
     23316     23320     23321     23323     23316     23320     23321     23324
     23317     23316     23320     23321     23318     23316     23320     23321
     23319     23316     23320     23321     23320     23321     23324     23325
     23320     23321     23324     23326     23320     23321     23324     23332
     23321     23324     23326     23327     23321     23324     23332     23333
     23321     23324     23332     23334     23321     23324     23332     23335
     23322     23321     23324     23325     23322     23321     23324     23326
     23322     23321     23324     23332     23323     23321     23324     23325
     23323     23321     23324     23326     23323     23321     23324     23332
     23324     23326     23327     23328     23324     23326     23327     23329
     23324     23332     23335     23336     23325     23324     23326     23327
     23325     23324     23332     23333     23325     23324     23332     23334
     23325     23324     23332     23335     23326     23324     23332     23333
     23326     23324     23332     23334     23326     23324     23332     23335
     23326     23327     23329     23330     23326     23327     23329     23331
     23326     23327     23329     23341     23327     23326     23324     23332
     23327     23329     23341     23342     23327     23329     23341     23343
     23327     23329     23341     23344     23328     23327     23329     23330
     23328     23327     23329     23331     23328     23327     23329     23341
     23329     23341     23344     23345     23329     23341     23344     23346
     23329     23341     23344     23347     23330     23329     23341     23342
     23330     23329     23341     23343     23330     23329     23341     23344
     23331     23329     23341     23342     23331     23329     23341     23343
     23331     23329     23341     23344     23332     23335     23336     23337
     23332     23335     23336     23338     23333     23332     23335     23336
     23334     23332     23335     23336     23335     23336     23338     23339
     23335     23336     23338     23340     23335     23336     23338     23388
     23336     23338     23388     23389     23336     23338     23388     23390
     23336     23338     23388     23391     23337     23336     23338     23339
     23337     23336     23338     23340     23337     23336     23338     23388
     23338     23388     23391     23392     23338     23388     23391     23393
     23338     23388     23391     23394     23339     23338     23388     23389
     23339     23338     23388     23390     23339     23338     23388     23391
     23340     23338     23388     23389     23340     23338     23388     23390
     23340     23338     23388     23391     23341     23344     23347     23348
     23341     23344     23347     23349     23341     23344     23347     23350
     23342     23341     23344     23345     23342     23341     23344     23346
     23342     23341     23344     23347     23343     23341     23344     23345
     23343     23341     23344     23346     23343     23341     23344     23347
     23344     23347     23350     23351     23344     23347     23350     23352
     23344     23347     23350     23353     23345     23344     23347     23348
     23345     23344     23347     23349     23345     23344     23347     23350
     23346     23344     23347     23348     23346     23344     23347     23349
     23346     23344     23347     23350     23347     23350     23353     23354
     23347     23350     23353     23355     23347     23350     23353     23356
     23348     23347     23350     23351     23348     23347     23350     23352
     23348     23347     23350     23353     23349     23347     23350     23351
     23349     23347     23350     23352     23349     23347     23350     23353
     23350     23353     23356     23357     23350     23353     23356     23358
     23350     23353     23356     23359     23351     23350     23353     23354
     23351     23350     23353     23355     23351     23350     23353     23356
     23352     23350     23353     23354     23352     23350     23353     23355
     23352     23350     23353     23356     23353     23356     23359     23360
     23353     23356     23359     23361     23354     23353     23356     23357
     23354     23353     23356     23358     23354     23353     23356     23359
     23355     23353     23356     23357     23355     23353     23356     23358
     23355     23353     23356     23359     23356     23359     23361     23362
     23356     23359     23361     23363     23357     23356     23359     23360
     23357     23356     23359     23361     23358     23356     23359     23360
     23358     23356     23359     23361     23359     23361     23363     23364
     23359     23361     23363     23365     23359     23361     23363     23366
     23360     23359     23361     23362     23360     23359     23361     23363
     23361     23363     23366     23367     23361     23363     23366     23368
     23361     23363     23366     23369     23362     23361     23363     23364
     23362     23361     23363     23365     23362     23361     23363     23366
     23363     23366     23369     23370     23363     23366     23369     23371
     23363     23366     23369     23372     23364     23363     23366     23367
     23364     23363     23366     23368     23364     23363     23366     23369
     23365     23363     23366     23367     23365     23363     23366     23368
     23365     23363     23366     23369     23366     23369     23372     23373
     23366     23369     23372     23374     23366     23369     23372     23375
     23367     23366     23369     23370     23367     23366     23369     23371
     23367     23366     23369     23372     23368     23366     23369     23370
     23368     23366     23369     23371     23368     23366     23369     23372
     23369     23372     23375     23376     23369     23372     23375     23377
     23369     23372     23375     23378     23370     23369     23372     23373
     23370     23369     23372     23374     23370     23369     23372     23375
     23371     23369     23372     23373     23371     23369     23372     23374
     23371     23369     23372     23375     23372     23375     23378     23379
     23372     23375     23378     23380     23372     23375     23378     23381
     23373     23372     23375     23376     23373     23372     23375     23377
     23373     23372     23375     23378     23374     23372     23375     23376
     23374     23372     23375     23377     23374     23372     23375     23378
     23375     23378     23381     23382     23375     23378     23381     23383
     23375     23378     23381     23384     23376     23375     23378     23379
     23376     23375     23378     23380     23376     23375     23378     23381
     23377     23375     23378     23379     23377     23375     23378     23380
     23377     23375     23378     23381     23378     23381     23384     23385
     23378     23381     23384     23386     23378     23381     23384     23387
     23379     23378     23381     23382     23379     23378     23381     23383
     23379     23378     23381     23384     23380     23378     23381     23382
     23380     23378     23381     23383     23380     23378     23381     23384
     23382     23381     23384     23385     23382     23381     23384     23386
     23382     23381     23384     23387     23383     23381     23384     23385
     23383     23381     23384     23386     23383     23381     23384     23387
     23388     23391     23394     23395     23388     23391     23394     23396
     23388     23391     23394     23397     23389     23388     23391     23392
     23389     23388     23391     23393     23389     23388     23391     23394
     23390     23388     23391     23392     23390     23388     23391     23393
     23390     23388     23391     23394     23391     23394     23397     23398
     23391     23394     23397     23399     23391     23394     23397     23400
     23392     23391     23394     23395     23392     23391     23394     23396
     23392     23391     23394     23397     23393     23391     23394     23395
     23393     23391     23394     23396     23393     23391     23394     23397
     23394     23397     23400     23401     23394     23397     23400     23402
     23394     23397     23400     23403     23395     23394     23397     23398
     23395     23394     23397     23399     23395     23394     23397     23400
     23396     23394     23397     23398     23396     23394     23397     23399
     23396     23394     23397     23400     23397     23400     23403     23404
     23397     23400     23403     23405     23397     23400     23403     23406
     23398     23397     23400     23401     23398     23397     23400     23402
     23398     23397     23400     23403     23399     23397     23400     23401
     23399     23397     23400     23402     23399     23397     23400     23403
     23400     23403     23406     23407     23400     23403     23406     23408
     23400     23403     23406     23409     23401     23400     23403     23404
     23401     23400     23403     23405     23401     23400     23403     23406
     23402     23400     23403     23404     23402     23400     23403     23405
     23402     23400     23403     23406     23403     23406     23409     23410
     23403     23406     23409     23411     23403     23406     23409     23412
     23404     23403     23406     23407     23404     23403     23406     23408
     23404     23403     23406     23409     23405     23403     23406     23407
     23405     23403     23406     23408     23405     23403     23406     23409
     23406     23409     23412     23413     23406     23409     23412     23414
     23406     23409     23412     23415     23407     23406     23409     23410
     23407     23406     23409     23411     23407     23406     23409     23412
     23408     23406     23409     23410     23408     23406     23409     23411
     23408     23406     23409     23412     23409     23412     23415     23416
     23409     23412     23415     23417     23409     23412     23415     23418
     23410     23409     23412     23413     23410     23409     23412     23414
     23410     23409     23412     23415     23411     23409     23412     23413
     23411     23409     23412     23414     23411     23409     23412     23415
     23412     23415     23418     23419     23412     23415     23418     23420
     23412     23415     23418     23421     23413     23412     23415     23416
     23413     23412     23415     23417     23413     23412     23415     23418
     23414     23412     23415     23416     23414     23412     23415     23417
     23414     23412     23415     23418     23415     23418     23421     23422
     23415     23418     23421     23423     23415     23418     23421     23424
     23416     23415     23418     23419     23416     23415     23418     23420
     23416     23415     23418     23421     23417     23415     23418     23419
     23417     23415     23418     23420     23417     23415     23418     23421
     23418     23421     23424     23425     23418     23421     23424     23426
     23418     23421     23424     23427     23419     23418     23421     23422
     23419     23418     23421     23423     23419     23418     23421     23424
     23420     23418     23421     23422     23420     23418     23421     23423
     23420     23418     23421     23424     23421     23424     23427     23428
     23421     23424     23427     23429     23421     23424     23427     23430
     23422     23421     23424     23425     23422     23421     23424     23426
     23422     23421     23424     23427     23423     23421     23424     23425
     23423     23421     23424     23426     23423     23421     23424     23427
     23425     23424     23427     23428     23425     23424     23427     23429
     23425     23424     23427     23430     23426     23424     23427     23428
     23426     23424     23427     23429     23426     23424     23427     23430
     23431     23432     23447     23448     23431     23432     23447     23449
     23431     23432     23447     23453     23432     23431     23435     23436
     23432     23431     23435     23437     23432     23431     23435     23438
     23432     23431     23439     23440     23432     23431     23439     23441
     23432     23431     23439     23442     23432     23431     23443     23444
     23432     23431     23443     23445     23432     23431     23443     23446
     23432     23447     23453     23450     23433     23432     23431     23435
     23433     23432     23431     23439     23433     23432     23431     23443
     23433     23432     23447     23448     23433     23432     23447     23449
     23433     23432     23447     23453     23434     23432     23431     23435
     23434     23432     23431     23439     23434     23432     23431     23443
     23434     23432     23447     23448     23434     23432     23447     23449
     23434     23432     23447     23453     23435     23431     23432     23447
     23435     23431     23439     23440     23435     23431     23439     23441
     23435     23431     23439     23442     23435     23431     23443     23444
     23435     23431     23443     23445     23435     23431     23443     23446
     23436     23435     23431     23439     23436     23435     23431     23443
     23437     23435     23431     23439     23437     23435     23431     23443
     23438     23435     23431     23439     23438     23435     23431     23443
     23439     23431     23432     23447     23439     23431     23443     23444
     23439     23431     23443     23445     23439     23431     23443     23446
     23440     23439     23431     23443     23441     23439     23431     23443
     23442     23439     23431     23443     23443     23431     23432     23447
     23447     23453     23450     23451     23447     23453     23450     23452
     23447     23453     23450     23454     23448     23447     23453     23450
     23449     23447     23453     23450     23450     23454     23455     23456
     23450     23454     23455     23457     23450     23454     23455     23458
     23451     23450     23454     23455     23452     23450     23454     23455
     23453     23450     23454     23455     23454     23455     23458     23459
     23454     23455     23458     23460     23454     23455     23458     23466
     23455     23458     23460     23461     23455     23458     23466     23467
     23455     23458     23466     23468     23455     23458     23466     23469
     23456     23455     23458     23459     23456     23455     23458     23460
     23456     23455     23458     23466     23457     23455     23458     23459
     23457     23455     23458     23460     23457     23455     23458     23466
     23458     23460     23461     23462     23458     23460     23461     23463
     23458     23466     23469     23470     23459     23458     23460     23461
     23459     23458     23466     23467     23459     23458     23466     23468
     23459     23458     23466     23469     23460     23458     23466     23467
     23460     23458     23466     23468     23460     23458     23466     23469
     23460     23461     23463     23464     23460     23461     23463     23465
     23460     23461     23463     23475     23461     23460     23458     23466
     23461     23463     23475     23476     23461     23463     23475     23477
     23461     23463     23475     23478     23462     23461     23463     23464
     23462     23461     23463     23465     23462     23461     23463     23475
     23463     23475     23478     23479     23463     23475     23478     23480
     23463     23475     23478     23481     23464     23463     23475     23476
     23464     23463     23475     23477     23464     23463     23475     23478
     23465     23463     23475     23476     23465     23463     23475     23477
     23465     23463     23475     23478     23466     23469     23470     23471
     23466     23469     23470     23472     23467     23466     23469     23470
     23468     23466     23469     23470     23469     23470     23472     23473
     23469     23470     23472     23474     23469     23470     23472     23522
     23470     23472     23522     23523     23470     23472     23522     23524
     23470     23472     23522     23525     23471     23470     23472     23473
     23471     23470     23472     23474     23471     23470     23472     23522
     23472     23522     23525     23526     23472     23522     23525     23527
     23472     23522     23525     23528     23473     23472     23522     23523
     23473     23472     23522     23524     23473     23472     23522     23525
     23474     23472     23522     23523     23474     23472     23522     23524
     23474     23472     23522     23525     23475     23478     23481     23482
     23475     23478     23481     23483     23475     23478     23481     23484
     23476     23475     23478     23479     23476     23475     23478     23480
     23476     23475     23478     23481     23477     23475     23478     23479
     23477     23475     23478     23480     23477     23475     23478     23481
     23478     23481     23484     23485     23478     23481     23484     23486
     23478     23481     23484     23487     23479     23478     23481     23482
     23479     23478     23481     23483     23479     23478     23481     23484
     23480     23478     23481     23482     23480     23478     23481     23483
     23480     23478     23481     23484     23481     23484     23487     23488
     23481     23484     23487     23489     23481     23484     23487     23490
     23482     23481     23484     23485     23482     23481     23484     23486
     23482     23481     23484     23487     23483     23481     23484     23485
     23483     23481     23484     23486     23483     23481     23484     23487
     23484     23487     23490     23491     23484     23487     23490     23492
     23484     23487     23490     23493     23485     23484     23487     23488
     23485     23484     23487     23489     23485     23484     23487     23490
     23486     23484     23487     23488     23486     23484     23487     23489
     23486     23484     23487     23490     23487     23490     23493     23494
     23487     23490     23493     23495     23488     23487     23490     23491
     23488     23487     23490     23492     23488     23487     23490     23493
     23489     23487     23490     23491     23489     23487     23490     23492
     23489     23487     23490     23493     23490     23493     23495     23496
     23490     23493     23495     23497     23491     23490     23493     23494
     23491     23490     23493     23495     23492     23490     23493     23494
     23492     23490     23493     23495     23493     23495     23497     23498
     23493     23495     23497     23499     23493     23495     23497     23500
     23494     23493     23495     23496     23494     23493     23495     23497
     23495     23497     23500     23501     23495     23497     23500     23502
     23495     23497     23500     23503     23496     23495     23497     23498
     23496     23495     23497     23499     23496     23495     23497     23500
     23497     23500     23503     23504     23497     23500     23503     23505
     23497     23500     23503     23506     23498     23497     23500     23501
     23498     23497     23500     23502     23498     23497     23500     23503
     23499     23497     23500     23501     23499     23497     23500     23502
     23499     23497     23500     23503     23500     23503     23506     23507
     23500     23503     23506     23508     23500     23503     23506     23509
     23501     23500     23503     23504     23501     23500     23503     23505
     23501     23500     23503     23506     23502     23500     23503     23504
     23502     23500     23503     23505     23502     23500     23503     23506
     23503     23506     23509     23510     23503     23506     23509     23511
     23503     23506     23509     23512     23504     23503     23506     23507
     23504     23503     23506     23508     23504     23503     23506     23509
     23505     23503     23506     23507     23505     23503     23506     23508
     23505     23503     23506     23509     23506     23509     23512     23513
     23506     23509     23512     23514     23506     23509     23512     23515
     23507     23506     23509     23510     23507     23506     23509     23511
     23507     23506     23509     23512     23508     23506     23509     23510
     23508     23506     23509     23511     23508     23506     23509     23512
     23509     23512     23515     23516     23509     23512     23515     23517
     23509     23512     23515     23518     23510     23509     23512     23513
     23510     23509     23512     23514     23510     23509     23512     23515
     23511     23509     23512     23513     23511     23509     23512     23514
     23511     23509     23512     23515     23512     23515     23518     23519
     23512     23515     23518     23520     23512     23515     23518     23521
     23513     23512     23515     23516     23513     23512     23515     23517
     23513     23512     23515     23518     23514     23512     23515     23516
     23514     23512     23515     23517     23514     23512     23515     23518
     23516     23515     23518     23519     23516     23515     23518     23520
     23516     23515     23518     23521     23517     23515     23518     23519
     23517     23515     23518     23520     23517     23515     23518     23521
     23522     23525     23528     23529     23522     23525     23528     23530
     23522     23525     23528     23531     23523     23522     23525     23526
     23523     23522     23525     23527     23523     23522     23525     23528
     23524     23522     23525     23526     23524     23522     23525     23527
     23524     23522     23525     23528     23525     23528     23531     23532
     23525     23528     23531     23533     23525     23528     23531     23534
     23526     23525     23528     23529     23526     23525     23528     23530
     23526     23525     23528     23531     23527     23525     23528     23529
     23527     23525     23528     23530     23527     23525     23528     23531
     23528     23531     23534     23535     23528     23531     23534     23536
     23528     23531     23534     23537     23529     23528     23531     23532
     23529     23528     23531     23533     23529     23528     23531     23534
     23530     23528     23531     23532     23530     23528     23531     23533
     23530     23528     23531     23534     23531     23534     23537     23538
     23531     23534     23537     23539     23531     23534     23537     23540
     23532     23531     23534     23535     23532     23531     23534     23536
     23532     23531     23534     23537     23533     23531     23534     23535
     23533     23531     23534     23536     23533     23531     23534     23537
     23534     23537     23540     23541     23534     23537     23540     23542
     23534     23537     23540     23543     23535     23534     23537     23538
     23535     23534     23537     23539     23535     23534     23537     23540
     23536     23534     23537     23538     23536     23534     23537     23539
     23536     23534     23537     23540     23537     23540     23543     23544
     23537     23540     23543     23545     23537     23540     23543     23546
     23538     23537     23540     23541     23538     23537     23540     23542
     23538     23537     23540     23543     23539     23537     23540     23541
     23539     23537     23540     23542     23539     23537     23540     23543
     23540     23543     23546     23547     23540     23543     23546     23548
     23540     23543     23546     23549     23541     23540     23543     23544
     23541     23540     23543     23545     23541     23540     23543     23546
     23542     23540     23543     23544     23542     23540     23543     23545
     23542     23540     23543     23546     23543     23546     23549     23550
     23543     23546     23549     23551     23543     23546     23549     23552
     23544     23543     23546     23547     23544     23543     23546     23548
     23544     23543     23546     23549     23545     23543     23546     23547
     23545     23543     23546     23548     23545     23543     23546     23549
     23546     23549     23552     23553     23546     23549     23552     23554
     23546     23549     23552     23555     23547     23546     23549     23550
     23547     23546     23549     23551     23547     23546     23549     23552
     23548     23546     23549     23550     23548     23546     23549     23551
     23548     23546     23549     23552     23549     23552     23555     23556
     23549     23552     23555     23557     23549     23552     23555     23558
     23550     23549     23552     23553     23550     23549     23552     23554
     23550     23549     23552     23555     23551     23549     23552     23553
     23551     23549     23552     23554     23551     23549     23552     23555
     23552     23555     23558     23559     23552     23555     23558     23560
     23552     23555     23558     23561     23553     23552     23555     23556
     23553     23552     23555     23557     23553     23552     23555     23558
     23554     23552     23555     23556     23554     23552     23555     23557
     23554     23552     23555     23558     23555     23558     23561     23562
     23555     23558     23561     23563     23555     23558     23561     23564
     23556     23555     23558     23559     23556     23555     23558     23560
     23556     23555     23558     23561     23557     23555     23558     23559
     23557     23555     23558     23560     23557     23555     23558     23561
     23559     23558     23561     23562     23559     23558     23561     23563
     23559     23558     23561     23564     23560     23558     23561     23562
     23560     23558     23561     23563     23560     23558     23561     23564
     23565     23566     23581     23582     23565     23566     23581     23583
     23565     23566     23581     23587     23566     23565     23569     23570
     23566     23565     23569     23571     23566     23565     23569     23572
     23566     23565     23573     23574     23566     23565     23573     23575
     23566     23565     23573     23576     23566     23565     23577     23578
     23566     23565     23577     23579     23566     23565     23577     23580
     23566     23581     23587     23584     23567     23566     23565     23569
     23567     23566     23565     23573     23567     23566     23565     23577
     23567     23566     23581     23582     23567     23566     23581     23583
     23567     23566     23581     23587     23568     23566     23565     23569
     23568     23566     23565     23573     23568     23566     23565     23577
     23568     23566     23581     23582     23568     23566     23581     23583
     23568     23566     23581     23587     23569     23565     23566     23581
     23569     23565     23573     23574     23569     23565     23573     23575
     23569     23565     23573     23576     23569     23565     23577     23578
     23569     23565     23577     23579     23569     23565     23577     23580
     23570     23569     23565     23573     23570     23569     23565     23577
     23571     23569     23565     23573     23571     23569     23565     23577
     23572     23569     23565     23573     23572     23569     23565     23577
     23573     23565     23566     23581     23573     23565     23577     23578
     23573     23565     23577     23579     23573     23565     23577     23580
     23574     23573     23565     23577     23575     23573     23565     23577
     23576     23573     23565     23577     23577     23565     23566     23581
     23581     23587     23584     23585     23581     23587     23584     23586
     23581     23587     23584     23588     23582     23581     23587     23584
     23583     23581     23587     23584     23584     23588     23589     23590
     23584     23588     23589     23591     23584     23588     23589     23592
     23585     23584     23588     23589     23586     23584     23588     23589
     23587     23584     23588     23589     23588     23589     23592     23593
     23588     23589     23592     23594     23588     23589     23592     23600
     23589     23592     23594     23595     23589     23592     23600     23601
     23589     23592     23600     23602     23589     23592     23600     23603
     23590     23589     23592     23593     23590     23589     23592     23594
     23590     23589     23592     23600     23591     23589     23592     23593
     23591     23589     23592     23594     23591     23589     23592     23600
     23592     23594     23595     23596     23592     23594     23595     23597
     23592     23600     23603     23604     23593     23592     23594     23595
     23593     23592     23600     23601     23593     23592     23600     23602
     23593     23592     23600     23603     23594     23592     23600     23601
     23594     23592     23600     23602     23594     23592     23600     23603
     23594     23595     23597     23598     23594     23595     23597     23599
     23594     23595     23597     23609     23595     23594     23592     23600
     23595     23597     23609     23610     23595     23597     23609     23611
     23595     23597     23609     23612     23596     23595     23597     23598
     23596     23595     23597     23599     23596     23595     23597     23609
     23597     23609     23612     23613     23597     23609     23612     23614
     23597     23609     23612     23615     23598     23597     23609     23610
     23598     23597     23609     23611     23598     23597     23609     23612
     23599     23597     23609     23610     23599     23597     23609     23611
     23599     23597     23609     23612     23600     23603     23604     23605
     23600     23603     23604     23606     23601     23600     23603     23604
     23602     23600     23603     23604     23603     23604     23606     23607
     23603     23604     23606     23608     23603     23604     23606     23656
     23604     23606     23656     23657     23604     23606     23656     23658
     23604     23606     23656     23659     23605     23604     23606     23607
     23605     23604     23606     23608     23605     23604     23606     23656
     23606     23656     23659     23660     23606     23656     23659     23661
     23606     23656     23659     23662     23607     23606     23656     23657
     23607     23606     23656     23658     23607     23606     23656     23659
     23608     23606     23656     23657     23608     23606     23656     23658
     23608     23606     23656     23659     23609     23612     23615     23616
     23609     23612     23615     23617     23609     23612     23615     23618
     23610     23609     23612     23613     23610     23609     23612     23614
     23610     23609     23612     23615     23611     23609     23612     23613
     23611     23609     23612     23614     23611     23609     23612     23615
     23612     23615     23618     23619     23612     23615     23618     23620
     23612     23615     23618     23621     23613     23612     23615     23616
     23613     23612     23615     23617     23613     23612     23615     23618
     23614     23612     23615     23616     23614     23612     23615     23617
     23614     23612     23615     23618     23615     23618     23621     23622
     23615     23618     23621     23623     23615     23618     23621     23624
     23616     23615     23618     23619     23616     23615     23618     23620
     23616     23615     23618     23621     23617     23615     23618     23619
     23617     23615     23618     23620     23617     23615     23618     23621
     23618     23621     23624     23625     23618     23621     23624     23626
     23618     23621     23624     23627     23619     23618     23621     23622
     23619     23618     23621     23623     23619     23618     23621     23624
     23620     23618     23621     23622     23620     23618     23621     23623
     23620     23618     23621     23624     23621     23624     23627     23628
     23621     23624     23627     23629     23622     23621     23624     23625
     23622     23621     23624     23626     23622     23621     23624     23627
     23623     23621     23624     23625     23623     23621     23624     23626
     23623     23621     23624     23627     23624     23627     23629     23630
     23624     23627     23629     23631     23625     23624     23627     23628
     23625     23624     23627     23629     23626     23624     23627     23628
     23626     23624     23627     23629     23627     23629     23631     23632
     23627     23629     23631     23633     23627     23629     23631     23634
     23628     23627     23629     23630     23628     23627     23629     23631
     23629     23631     23634     23635     23629     23631     23634     23636
     23629     23631     23634     23637     23630     23629     23631     23632
     23630     23629     23631     23633     23630     23629     23631     23634
     23631     23634     23637     23638     23631     23634     23637     23639
     23631     23634     23637     23640     23632     23631     23634     23635
     23632     23631     23634     23636     23632     23631     23634     23637
     23633     23631     23634     23635     23633     23631     23634     23636
     23633     23631     23634     23637     23634     23637     23640     23641
     23634     23637     23640     23642     23634     23637     23640     23643
     23635     23634     23637     23638     23635     23634     23637     23639
     23635     23634     23637     23640     23636     23634     23637     23638
     23636     23634     23637     23639     23636     23634     23637     23640
     23637     23640     23643     23644     23637     23640     23643     23645
     23637     23640     23643     23646     23638     23637     23640     23641
     23638     23637     23640     23642     23638     23637     23640     23643
     23639     23637     23640     23641     23639     23637     23640     23642
     23639     23637     23640     23643     23640     23643     23646     23647
     23640     23643     23646     23648     23640     23643     23646     23649
     23641     23640     23643     23644     23641     23640     23643     23645
     23641     23640     23643     23646     23642     23640     23643     23644
     23642     23640     23643     23645     23642     23640     23643     23646
     23643     23646     23649     23650     23643     23646     23649     23651
     23643     23646     23649     23652     23644     23643     23646     23647
     23644     23643     23646     23648     23644     23643     23646     23649
     23645     23643     23646     23647     23645     23643     23646     23648
     23645     23643     23646     23649     23646     23649     23652     23653
     23646     23649     23652     23654     23646     23649     23652     23655
     23647     23646     23649     23650     23647     23646     23649     23651
     23647     23646     23649     23652     23648     23646     23649     23650
     23648     23646     23649     23651     23648     23646     23649     23652
     23650     23649     23652     23653     23650     23649     23652     23654
     23650     23649     23652     23655     23651     23649     23652     23653
     23651     23649     23652     23654     23651     23649     23652     23655
     23656     23659     23662     23663     23656     23659     23662     23664
     23656     23659     23662     23665     23657     23656     23659     23660
     23657     23656     23659     23661     23657     23656     23659     23662
     23658     23656     23659     23660     23658     23656     23659     23661
     23658     23656     23659     23662     23659     23662     23665     23666
     23659     23662     23665     23667     23659     23662     23665     23668
     23660     23659     23662     23663     23660     23659     23662     23664
     23660     23659     23662     23665     23661     23659     23662     23663
     23661     23659     23662     23664     23661     23659     23662     23665
     23662     23665     23668     23669     23662     23665     23668     23670
     23662     23665     23668     23671     23663     23662     23665     23666
     23663     23662     23665     23667     23663     23662     23665     23668
     23664     23662     23665     23666     23664     23662     23665     23667
     23664     23662     23665     23668     23665     23668     23671     23672
     23665     23668     23671     23673     23665     23668     23671     23674
     23666     23665     23668     23669     23666     23665     23668     23670
     23666     23665     23668     23671     23667     23665     23668     23669
     23667     23665     23668     23670     23667     23665     23668     23671
     23668     23671     23674     23675     23668     23671     23674     23676
     23668     23671     23674     23677     23669     23668     23671     23672
     23669     23668     23671     23673     23669     23668     23671     23674
     23670     23668     23671     23672     23670     23668     23671     23673
     23670     23668     23671     23674     23671     23674     23677     23678
     23671     23674     23677     23679     23671     23674     23677     23680
     23672     23671     23674     23675     23672     23671     23674     23676
     23672     23671     23674     23677     23673     23671     23674     23675
     23673     23671     23674     23676     23673     23671     23674     23677
     23674     23677     23680     23681     23674     23677     23680     23682
     23674     23677     23680     23683     23675     23674     23677     23678
     23675     23674     23677     23679     23675     23674     23677     23680
     23676     23674     23677     23678     23676     23674     23677     23679
     23676     23674     23677     23680     23677     23680     23683     23684
     23677     23680     23683     23685     23677     23680     23683     23686
     23678     23677     23680     23681     23678     23677     23680     23682
     23678     23677     23680     23683     23679     23677     23680     23681
     23679     23677     23680     23682     23679     23677     23680     23683
     23680     23683     23686     23687     23680     23683     23686     23688
     23680     23683     23686     23689     23681     23680     23683     23684
     23681     23680     23683     23685     23681     23680     23683     23686
     23682     23680     23683     23684     23682     23680     23683     23685
     23682     23680     23683     23686     23683     23686     23689     23690
     23683     23686     23689     23691     23683     23686     23689     23692
     23684     23683     23686     23687     23684     23683     23686     23688
     23684     23683     23686     23689     23685     23683     23686     23687
     23685     23683     23686     23688     23685     23683     23686     23689
     23686     23689     23692     23693     23686     23689     23692     23694
     23686     23689     23692     23695     23687     23686     23689     23690
     23687     23686     23689     23691     23687     23686     23689     23692
     23688     23686     23689     23690     23688     23686     23689     23691
     23688     23686     23689     23692     23689     23692     23695     23696
     23689     23692     23695     23697     23689     23692     23695     23698
     23690     23689     23692     23693     23690     23689     23692     23694
     23690     23689     23692     23695     23691     23689     23692     23693
     23691     23689     23692     23694     23691     23689     23692     23695
     23693     23692     23695     23696     23693     23692     23695     23697
     23693     23692     23695     23698     23694     23692     23695     23696
     23694     23692     23695     23697     23694     23692     23695     23698
     23699     23703     23706     23707     23699     23703     23706     23708
     23699     23703     23706     23713     23700     23699     23703     23704
     23700     23699     23703     23705     23700     23699     23703     23706
     23701     23699     23703     23704     23701     23699     23703     23705
     23701     23699     23703     23706     23702     23699     23703     23704
     23702     23699     23703     23705     23702     23699     23703     23706
     23703     23706     23713     23709     23704     23703     23706     23707
     23704     23703     23706     23708     23704     23703     23706     23713
     23705     23703     23706     23707     23705     23703     23706     23708
     23705     23703     23706     23713     23706     23713     23709     23710
     23706     23713     23709     23711     23706     23713     23709     23712
     23707     23706     23713     23709     23708     23706     23713     23709
     23709     23712     23714     23715     23709     23712     23714     23716
     23709     23712     23714     23717     23710     23709     23712     23714
     23711     23709     23712     23714     23712     23714     23717     23718
     23712     23714     23717     23719     23712     23714     23717     23725
     23713     23709     23712     23714     23714     23717     23719     23720
     23714     23717     23725     23726     23714     23717     23725     23727
     23714     23717     23725     23728     23715     23714     23717     23718
     23715     23714     23717     23719     23715     23714     23717     23725
     23716     23714     23717     23718     23716     23714     23717     23719
     23716     23714     23717     23725     23717     23719     23720     23721
     23717     23719     23720     23722     23717     23725     23728     23729
     23718     23717     23719     23720     23718     23717     23725     23726
     23718     23717     23725     23727     23718     23717     23725     23728
     23719     23717     23725     23726     23719     23717     23725     23727
     23719     23717     23725     23728     23719     23720     23722     23723
     23719     23720     23722     23724     23719     23720     23722     23734
     23720     23719     23717     23725     23720     23722     23734     23735
     23720     23722     23734     23736     23720     23722     23734     23737
     23721     23720     23722     23723     23721     23720     23722     23724
     23721     23720     23722     23734     23722     23734     23737     23738
     23722     23734     23737     23739     23722     23734     23737     23740
     23723     23722     23734     23735     23723     23722     23734     23736
     23723     23722     23734     23737     23724     23722     23734     23735
     23724     23722     23734     23736     23724     23722     23734     23737
     23725     23728     23729     23730     23725     23728     23729     23731
     23726     23725     23728     23729     23727     23725     23728     23729
     23728     23729     23731     23732     23728     23729     23731     23733
     23728     23729     23731     23781     23729     23731     23781     23782
     23729     23731     23781     23783     23729     23731     23781     23784
     23730     23729     23731     23732     23730     23729     23731     23733
     23730     23729     23731     23781     23731     23781     23784     23785
     23731     23781     23784     23786     23731     23781     23784     23787
     23732     23731     23781     23782     23732     23731     23781     23783
     23732     23731     23781     23784     23733     23731     23781     23782
     23733     23731     23781     23783     23733     23731     23781     23784
     23734     23737     23740     23741     23734     23737     23740     23742
     23734     23737     23740     23743     23735     23734     23737     23738
     23735     23734     23737     23739     23735     23734     23737     23740
     23736     23734     23737     23738     23736     23734     23737     23739
     23736     23734     23737     23740     23737     23740     23743     23744
     23737     23740     23743     23745     23737     23740     23743     23746
     23738     23737     23740     23741     23738     23737     23740     23742
     23738     23737     23740     23743     23739     23737     23740     23741
     23739     23737     23740     23742     23739     23737     23740     23743
     23740     23743     23746     23747     23740     23743     23746     23748
     23740     23743     23746     23749     23741     23740     23743     23744
     23741     23740     23743     23745     23741     23740     23743     23746
     23742     23740     23743     23744     23742     23740     23743     23745
     23742     23740     23743     23746     23743     23746     23749     23750
     23743     23746     23749     23751     23743     23746     23749     23752
     23744     23743     23746     23747     23744     23743     23746     23748
     23744     23743     23746     23749     23745     23743     23746     23747
     23745     23743     23746     23748     23745     23743     23746     23749
     23746     23749     23752     23753     23746     23749     23752     23754
     23747     23746     23749     23750     23747     23746     23749     23751
     23747     23746     23749     23752     23748     23746     23749     23750
     23748     23746     23749     23751     23748     23746     23749     23752
     23749     23752     23754     23755     23749     23752     23754     23756
     23750     23749     23752     23753     23750     23749     23752     23754
     23751     23749     23752     23753     23751     23749     23752     23754
     23752     23754     23756     23757     23752     23754     23756     23758
     23752     23754     23756     23759     23753     23752     23754     23755
     23753     23752     23754     23756     23754     23756     23759     23760
     23754     23756     23759     23761     23754     23756     23759     23762
     23755     23754     23756     23757     23755     23754     23756     23758
     23755     23754     23756     23759     23756     23759     23762     23763
     23756     23759     23762     23764     23756     23759     23762     23765
     23757     23756     23759     23760     23757     23756     23759     23761
     23757     23756     23759     23762     23758     23756     23759     23760
     23758     23756     23759     23761     23758     23756     23759     23762
     23759     23762     23765     23766     23759     23762     23765     23767
     23759     23762     23765     23768     23760     23759     23762     23763
     23760     23759     23762     23764     23760     23759     23762     23765
     23761     23759     23762     23763     23761     23759     23762     23764
     23761     23759     23762     23765     23762     23765     23768     23769
     23762     23765     23768     23770     23762     23765     23768     23771
     23763     23762     23765     23766     23763     23762     23765     23767
     23763     23762     23765     23768     23764     23762     23765     23766
     23764     23762     23765     23767     23764     23762     23765     23768
     23765     23768     23771     23772     23765     23768     23771     23773
     23765     23768     23771     23774     23766     23765     23768     23769
     23766     23765     23768     23770     23766     23765     23768     23771
     23767     23765     23768     23769     23767     23765     23768     23770
     23767     23765     23768     23771     23768     23771     23774     23775
     23768     23771     23774     23776     23768     23771     23774     23777
     23769     23768     23771     23772     23769     23768     23771     23773
     23769     23768     23771     23774     23770     23768     23771     23772
     23770     23768     23771     23773     23770     23768     23771     23774
     23771     23774     23777     23778     23771     23774     23777     23779
     23771     23774     23777     23780     23772     23771     23774     23775
     23772     23771     23774     23776     23772     23771     23774     23777
     23773     23771     23774     23775     23773     23771     23774     23776
     23773     23771     23774     23777     23775     23774     23777     23778
     23775     23774     23777     23779     23775     23774     23777     23780
     23776     23774     23777     23778     23776     23774     23777     23779
     23776     23774     23777     23780     23781     23784     23787     23788
     23781     23784     23787     23789     23781     23784     23787     23790
     23782     23781     23784     23785     23782     23781     23784     23786
     23782     23781     23784     23787     23783     23781     23784     23785
     23783     23781     23784     23786     23783     23781     23784     23787
     23784     23787     23790     23791     23784     23787     23790     23792
     23784     23787     23790     23793     23785     23784     23787     23788
     23785     23784     23787     23789     23785     23784     23787     23790
     23786     23784     23787     23788     23786     23784     23787     23789
     23786     23784     23787     23790     23787     23790     23793     23794
     23787     23790     23793     23795     23787     23790     23793     23796
     23788     23787     23790     23791     23788     23787     23790     23792
     23788     23787     23790     23793     23789     23787     23790     23791
     23789     23787     23790     23792     23789     23787     23790     23793
     23790     23793     23796     23797     23790     23793     23796     23798
     23790     23793     23796     23799     23791     23790     23793     23794
     23791     23790     23793     23795     23791     23790     23793     23796
     23792     23790     23793     23794     23792     23790     23793     23795
     23792     23790     23793     23796     23793     23796     23799     23800
     23793     23796     23799     23801     23793     23796     23799     23802
     23794     23793     23796     23797     23794     23793     23796     23798
     23794     23793     23796     23799     23795     23793     23796     23797
     23795     23793     23796     23798     23795     23793     23796     23799
     23796     23799     23802     23803     23796     23799     23802     23804
     23796     23799     23802     23805     23797     23796     23799     23800
     23797     23796     23799     23801     23797     23796     23799     23802
     23798     23796     23799     23800     23798     23796     23799     23801
     23798     23796     23799     23802     23799     23802     23805     23806
     23799     23802     23805     23807     23799     23802     23805     23808
     23800     23799     23802     23803     23800     23799     23802     23804
     23800     23799     23802     23805     23801     23799     23802     23803
     23801     23799     23802     23804     23801     23799     23802     23805
     23802     23805     23808     23809     23802     23805     23808     23810
     23802     23805     23808     23811     23803     23802     23805     23806
     23803     23802     23805     23807     23803     23802     23805     23808
     23804     23802     23805     23806     23804     23802     23805     23807
     23804     23802     23805     23808     23805     23808     23811     23812
     23805     23808     23811     23813     23805     23808     23811     23814
     23806     23805     23808     23809     23806     23805     23808     23810
     23806     23805     23808     23811     23807     23805     23808     23809
     23807     23805     23808     23810     23807     23805     23808     23811
     23808     23811     23814     23815     23808     23811     23814     23816
     23808     23811     23814     23817     23809     23808     23811     23812
     23809     23808     23811     23813     23809     23808     23811     23814
     23810     23808     23811     23812     23810     23808     23811     23813
     23810     23808     23811     23814     23811     23814     23817     23818
     23811     23814     23817     23819     23811     23814     23817     23820
     23812     23811     23814     23815     23812     23811     23814     23816
     23812     23811     23814     23817     23813     23811     23814     23815
     23813     23811     23814     23816     23813     23811     23814     23817
     23814     23817     23820     23821     23814     23817     23820     23822
     23814     23817     23820     23823     23815     23814     23817     23818
     23815     23814     23817     23819     23815     23814     23817     23820
     23816     23814     23817     23818     23816     23814     23817     23819
     23816     23814     23817     23820     23818     23817     23820     23821
     23818     23817     23820     23822     23818     23817     23820     23823
     23819     23817     23820     23821     23819     23817     23820     23822
     23819     23817     23820     23823     23824     23825     23840     23841
     23824     23825     23840     23842     23824     23825     23840     23846
     23825     23824     23828     23829     23825     23824     23828     23830
     23825     23824     23828     23831     23825     23824     23832     23833
     23825     23824     23832     23834     23825     23824     23832     23835
     23825     23824     23836     23837     23825     23824     23836     23838
     23825     23824     23836     23839     23825     23840     23846     23843
     23826     23825     23824     23828     23826     23825     23824     23832
     23826     23825     23824     23836     23826     23825     23840     23841
     23826     23825     23840     23842     23826     23825     23840     23846
     23827     23825     23824     23828     23827     23825     23824     23832
     23827     23825     23824     23836     23827     23825     23840     23841
     23827     23825     23840     23842     23827     23825     23840     23846
     23828     23824     23825     23840     23828     23824     23832     23833
     23828     23824     23832     23834     23828     23824     23832     23835
     23828     23824     23836     23837     23828     23824     23836     23838
     23828     23824     23836     23839     23829     23828     23824     23832
     23829     23828     23824     23836     23830     23828     23824     23832
     23830     23828     23824     23836     23831     23828     23824     23832
     23831     23828     23824     23836     23832     23824     23825     23840
     23832     23824     23836     23837     23832     23824     23836     23838
     23832     23824     23836     23839     23833     23832     23824     23836
     23834     23832     23824     23836     23835     23832     23824     23836
     23836     23824     23825     23840     23840     23846     23843     23844
     23840     23846     23843     23845     23840     23846     23843     23847
     23841     23840     23846     23843     23842     23840     23846     23843
     23843     23847     23848     23849     23843     23847     23848     23850
     23843     23847     23848     23851     23844     23843     23847     23848
     23845     23843     23847     23848     23846     23843     23847     23848
     23847     23848     23851     23852     23847     23848     23851     23853
     23847     23848     23851     23859     23848     23851     23853     23854
     23848     23851     23859     23860     23848     23851     23859     23861
     23848     23851     23859     23862     23849     23848     23851     23852
     23849     23848     23851     23853     23849     23848     23851     23859
     23850     23848     23851     23852     23850     23848     23851     23853
     23850     23848     23851     23859     23851     23853     23854     23855
     23851     23853     23854     23856     23851     23859     23862     23863
     23852     23851     23853     23854     23852     23851     23859     23860
     23852     23851     23859     23861     23852     23851     23859     23862
     23853     23851     23859     23860     23853     23851     23859     23861
     23853     23851     23859     23862     23853     23854     23856     23857
     23853     23854     23856     23858     23853     23854     23856     23868
     23854     23853     23851     23859     23854     23856     23868     23869
     23854     23856     23868     23870     23854     23856     23868     23871
     23855     23854     23856     23857     23855     23854     23856     23858
     23855     23854     23856     23868     23856     23868     23871     23872
     23856     23868     23871     23873     23856     23868     23871     23874
     23857     23856     23868     23869     23857     23856     23868     23870
     23857     23856     23868     23871     23858     23856     23868     23869
     23858     23856     23868     23870     23858     23856     23868     23871
     23859     23862     23863     23864     23859     23862     23863     23865
     23860     23859     23862     23863     23861     23859     23862     23863
     23862     23863     23865     23866     23862     23863     23865     23867
     23862     23863     23865     23915     23863     23865     23915     23916
     23863     23865     23915     23917     23863     23865     23915     23918
     23864     23863     23865     23866     23864     23863     23865     23867
     23864     23863     23865     23915     23865     23915     23918     23919
     23865     23915     23918     23920     23865     23915     23918     23921
     23866     23865     23915     23916     23866     23865     23915     23917
     23866     23865     23915     23918     23867     23865     23915     23916
     23867     23865     23915     23917     23867     23865     23915     23918
     23868     23871     23874     23875     23868     23871     23874     23876
     23868     23871     23874     23877     23869     23868     23871     23872
     23869     23868     23871     23873     23869     23868     23871     23874
     23870     23868     23871     23872     23870     23868     23871     23873
     23870     23868     23871     23874     23871     23874     23877     23878
     23871     23874     23877     23879     23871     23874     23877     23880
     23872     23871     23874     23875     23872     23871     23874     23876
     23872     23871     23874     23877     23873     23871     23874     23875
     23873     23871     23874     23876     23873     23871     23874     23877
     23874     23877     23880     23881     23874     23877     23880     23882
     23874     23877     23880     23883     23875     23874     23877     23878
     23875     23874     23877     23879     23875     23874     23877     23880
     23876     23874     23877     23878     23876     23874     23877     23879
     23876     23874     23877     23880     23877     23880     23883     23884
     23877     23880     23883     23885     23877     23880     23883     23886
     23878     23877     23880     23881     23878     23877     23880     23882
     23878     23877     23880     23883     23879     23877     23880     23881
     23879     23877     23880     23882     23879     23877     23880     23883
     23880     23883     23886     23887     23880     23883     23886     23888
     23881     23880     23883     23884     23881     23880     23883     23885
     23881     23880     23883     23886     23882     23880     23883     23884
     23882     23880     23883     23885     23882     23880     23883     23886
     23883     23886     23888     23889     23883     23886     23888     23890
     23884     23883     23886     23887     23884     23883     23886     23888
     23885     23883     23886     23887     23885     23883     23886     23888
     23886     23888     23890     23891     23886     23888     23890     23892
     23886     23888     23890     23893     23887     23886     23888     23889
     23887     23886     23888     23890     23888     23890     23893     23894
     23888     23890     23893     23895     23888     23890     23893     23896
     23889     23888     23890     23891     23889     23888     23890     23892
     23889     23888     23890     23893     23890     23893     23896     23897
     23890     23893     23896     23898     23890     23893     23896     23899
     23891     23890     23893     23894     23891     23890     23893     23895
     23891     23890     23893     23896     23892     23890     23893     23894
     23892     23890     23893     23895     23892     23890     23893     23896
     23893     23896     23899     23900     23893     23896     23899     23901
     23893     23896     23899     23902     23894     23893     23896     23897
     23894     23893     23896     23898     23894     23893     23896     23899
     23895     23893     23896     23897     23895     23893     23896     23898
     23895     23893     23896     23899     23896     23899     23902     23903
     23896     23899     23902     23904     23896     23899     23902     23905
     23897     23896     23899     23900     23897     23896     23899     23901
     23897     23896     23899     23902     23898     23896     23899     23900
     23898     23896     23899     23901     23898     23896     23899     23902
     23899     23902     23905     23906     23899     23902     23905     23907
     23899     23902     23905     23908     23900     23899     23902     23903
     23900     23899     23902     23904     23900     23899     23902     23905
     23901     23899     23902     23903     23901     23899     23902     23904
     23901     23899     23902     23905     23902     23905     23908     23909
     23902     23905     23908     23910     23902     23905     23908     23911
     23903     23902     23905     23906     23903     23902     23905     23907
     23903     23902     23905     23908     23904     23902     23905     23906
     23904     23902     23905     23907     23904     23902     23905     23908
     23905     23908     23911     23912     23905     23908     23911     23913
     23905     23908     23911     23914     23906     23905     23908     23909
     23906     23905     23908     23910     23906     23905     23908     23911
     23907     23905     23908     23909     23907     23905     23908     23910
     23907     23905     23908     23911     23909     23908     23911     23912
     23909     23908     23911     23913     23909     23908     23911     23914
     23910     23908     23911     23912     23910     23908     23911     23913
     23910     23908     23911     23914     23915     23918     23921     23922
     23915     23918     23921     23923     23915     23918     23921     23924
     23916     23915     23918     23919     23916     23915     23918     23920
     23916     23915     23918     23921     23917     23915     23918     23919
     23917     23915     23918     23920     23917     23915     23918     23921
     23918     23921     23924     23925     23918     23921     23924     23926
     23918     23921     23924     23927     23919     23918     23921     23922
     23919     23918     23921     23923     23919     23918     23921     23924
     23920     23918     23921     23922     23920     23918     23921     23923
     23920     23918     23921     23924     23921     23924     23927     23928
     23921     23924     23927     23929     23921     23924     23927     23930
     23922     23921     23924     23925     23922     23921     23924     23926
     23922     23921     23924     23927     23923     23921     23924     23925
     23923     23921     23924     23926     23923     23921     23924     23927
     23924     23927     23930     23931     23924     23927     23930     23932
     23924     23927     23930     23933     23925     23924     23927     23928
     23925     23924     23927     23929     23925     23924     23927     23930
     23926     23924     23927     23928     23926     23924     23927     23929
     23926     23924     23927     23930     23927     23930     23933     23934
     23927     23930     23933     23935     23927     23930     23933     23936
     23928     23927     23930     23931     23928     23927     23930     23932
     23928     23927     23930     23933     23929     23927     23930     23931
     23929     23927     23930     23932     23929     23927     23930     23933
     23930     23933     23936     23937     23930     23933     23936     23938
     23930     23933     23936     23939     23931     23930     23933     23934
     23931     23930     23933     23935     23931     23930     23933     23936
     23932     23930     23933     23934     23932     23930     23933     23935
     23932     23930     23933     23936     23933     23936     23939     23940
     23933     23936     23939     23941     23933     23936     23939     23942
     23934     23933     23936     23937     23934     23933     23936     23938
     23934     23933     23936     23939     23935     23933     23936     23937
     23935     23933     23936     23938     23935     23933     23936     23939
     23936     23939     23942     23943     23936     23939     23942     23944
     23936     23939     23942     23945     23937     23936     23939     23940
     23937     23936     23939     23941     23937     23936     23939     23942
     23938     23936     23939     23940     23938     23936     23939     23941
     23938     23936     23939     23942     23939     23942     23945     23946
     23939     23942     23945     23947     23939     23942     23945     23948
     23940     23939     23942     23943     23940     23939     23942     23944
     23940     23939     23942     23945     23941     23939     23942     23943
     23941     23939     23942     23944     23941     23939     23942     23945
     23942     23945     23948     23949     23942     23945     23948     23950
     23942     23945     23948     23951     23943     23942     23945     23946
     23943     23942     23945     23947     23943     23942     23945     23948
     23944     23942     23945     23946     23944     23942     23945     23947
     23944     23942     23945     23948     23945     23948     23951     23952
     23945     23948     23951     23953     23945     23948     23951     23954
     23946     23945     23948     23949     23946     23945     23948     23950
     23946     23945     23948     23951     23947     23945     23948     23949
     23947     23945     23948     23950     23947     23945     23948     23951
     23948     23951     23954     23955     23948     23951     23954     23956
     23948     23951     23954     23957     23949     23948     23951     23952
     23949     23948     23951     23953     23949     23948     23951     23954
     23950     23948     23951     23952     23950     23948     23951     23953
     23950     23948     23951     23954     23952     23951     23954     23955
     23952     23951     23954     23956     23952     23951     23954     23957
     23953     23951     23954     23955     23953     23951     23954     23956
     23953     23951     23954     23957     23958     23959     23974     23975
     23958     23959     23974     23976     23958     23959     23974     23980
     23959     23958     23962     23963     23959     23958     23962     23964
     23959     23958     23962     23965     23959     23958     23966     23967
     23959     23958     23966     23968     23959     23958     23966     23969
     23959     23958     23970     23971     23959     23958     23970     23972
     23959     23958     23970     23973     23959     23974     23980     23977
     23960     23959     23958     23962     23960     23959     23958     23966
     23960     23959     23958     23970     23960     23959     23974     23975
     23960     23959     23974     23976     23960     23959     23974     23980
     23961     23959     23958     23962     23961     23959     23958     23966
     23961     23959     23958     23970     23961     23959     23974     23975
     23961     23959     23974     23976     23961     23959     23974     23980
     23962     23958     23959     23974     23962     23958     23966     23967
     23962     23958     23966     23968     23962     23958     23966     23969
     23962     23958     23970     23971     23962     23958     23970     23972
     23962     23958     23970     23973     23963     23962     23958     23966
     23963     23962     23958     23970     23964     23962     23958     23966
     23964     23962     23958     23970     23965     23962     23958     23966
     23965     23962     23958     23970     23966     23958     23959     23974
     23966     23958     23970     23971     23966     23958     23970     23972
     23966     23958     23970     23973     23967     23966     23958     23970
     23968     23966     23958     23970     23969     23966     23958     23970
     23970     23958     23959     23974     23974     23980     23977     23978
     23974     23980     23977     23979     23974     23980     23977     23981
     23975     23974     23980     23977     23976     23974     23980     23977
     23977     23981     23982     23983     23977     23981     23982     23984
     23977     23981     23982     23985     23978     23977     23981     23982
     23979     23977     23981     23982     23980     23977     23981     23982
     23981     23982     23985     23986     23981     23982     23985     23987
     23981     23982     23985     23993     23982     23985     23987     23988
     23982     23985     23993     23994     23982     23985     23993     23995
     23982     23985     23993     23996     23983     23982     23985     23986
     23983     23982     23985     23987     23983     23982     23985     23993
     23984     23982     23985     23986     23984     23982     23985     23987
     23984     23982     23985     23993     23985     23987     23988     23989
     23985     23987     23988     23990     23985     23993     23996     23997
     23986     23985     23987     23988     23986     23985     23993     23994
     23986     23985     23993     23995     23986     23985     23993     23996
     23987     23985     23993     23994     23987     23985     23993     23995
     23987     23985     23993     23996     23987     23988     23990     23991
     23987     23988     23990     23992     23987     23988     23990     24002
     23988     23987     23985     23993     23988     23990     24002     24003
     23988     23990     24002     24004     23988     23990     24002     24005
     23989     23988     23990     23991     23989     23988     23990     23992
     23989     23988     23990     24002     23990     24002     24005     24006
     23990     24002     24005     24007     23990     24002     24005     24008
     23991     23990     24002     24003     23991     23990     24002     24004
     23991     23990     24002     24005     23992     23990     24002     24003
     23992     23990     24002     24004     23992     23990     24002     24005
     23993     23996     23997     23998     23993     23996     23997     23999
     23994     23993     23996     23997     23995     23993     23996     23997
     23996     23997     23999     24000     23996     23997     23999     24001
     23996     23997     23999     24049     23997     23999     24049     24050
     23997     23999     24049     24051     23997     23999     24049     24052
     23998     23997     23999     24000     23998     23997     23999     24001
     23998     23997     23999     24049     23999     24049     24052     24053
     23999     24049     24052     24054     23999     24049     24052     24055
     24000     23999     24049     24050     24000     23999     24049     24051
     24000     23999     24049     24052     24001     23999     24049     24050
     24001     23999     24049     24051     24001     23999     24049     24052
     24002     24005     24008     24009     24002     24005     24008     24010
     24002     24005     24008     24011     24003     24002     24005     24006
     24003     24002     24005     24007     24003     24002     24005     24008
     24004     24002     24005     24006     24004     24002     24005     24007
     24004     24002     24005     24008     24005     24008     24011     24012
     24005     24008     24011     24013     24005     24008     24011     24014
     24006     24005     24008     24009     24006     24005     24008     24010
     24006     24005     24008     24011     24007     24005     24008     24009
     24007     24005     24008     24010     24007     24005     24008     24011
     24008     24011     24014     24015     24008     24011     24014     24016
     24008     24011     24014     24017     24009     24008     24011     24012
     24009     24008     24011     24013     24009     24008     24011     24014
     24010     24008     24011     24012     24010     24008     24011     24013
     24010     24008     24011     24014     24011     24014     24017     24018
     24011     24014     24017     24019     24011     24014     24017     24020
     24012     24011     24014     24015     24012     24011     24014     24016
     24012     24011     24014     24017     24013     24011     24014     24015
     24013     24011     24014     24016     24013     24011     24014     24017
     24014     24017     24020     24021     24014     24017     24020     24022
     24015     24014     24017     24018     24015     24014     24017     24019
     24015     24014     24017     24020     24016     24014     24017     24018
     24016     24014     24017     24019     24016     24014     24017     24020
     24017     24020     24022     24023     24017     24020     24022     24024
     24018     24017     24020     24021     24018     24017     24020     24022
     24019     24017     24020     24021     24019     24017     24020     24022
     24020     24022     24024     24025     24020     24022     24024     24026
     24020     24022     24024     24027     24021     24020     24022     24023
     24021     24020     24022     24024     24022     24024     24027     24028
     24022     24024     24027     24029     24022     24024     24027     24030
     24023     24022     24024     24025     24023     24022     24024     24026
     24023     24022     24024     24027     24024     24027     24030     24031
     24024     24027     24030     24032     24024     24027     24030     24033
     24025     24024     24027     24028     24025     24024     24027     24029
     24025     24024     24027     24030     24026     24024     24027     24028
     24026     24024     24027     24029     24026     24024     24027     24030
     24027     24030     24033     24034     24027     24030     24033     24035
     24027     24030     24033     24036     24028     24027     24030     24031
     24028     24027     24030     24032     24028     24027     24030     24033
     24029     24027     24030     24031     24029     24027     24030     24032
     24029     24027     24030     24033     24030     24033     24036     24037
     24030     24033     24036     24038     24030     24033     24036     24039
     24031     24030     24033     24034     24031     24030     24033     24035
     24031     24030     24033     24036     24032     24030     24033     24034
     24032     24030     24033     24035     24032     24030     24033     24036
     24033     24036     24039     24040     24033     24036     24039     24041
     24033     24036     24039     24042     24034     24033     24036     24037
     24034     24033     24036     24038     24034     24033     24036     24039
     24035     24033     24036     24037     24035     24033     24036     24038
     24035     24033     24036     24039     24036     24039     24042     24043
     24036     24039     24042     24044     24036     24039     24042     24045
     24037     24036     24039     24040     24037     24036     24039     24041
     24037     24036     24039     24042     24038     24036     24039     24040
     24038     24036     24039     24041     24038     24036     24039     24042
     24039     24042     24045     24046     24039     24042     24045     24047
     24039     24042     24045     24048     24040     24039     24042     24043
     24040     24039     24042     24044     24040     24039     24042     24045
     24041     24039     24042     24043     24041     24039     24042     24044
     24041     24039     24042     24045     24043     24042     24045     24046
     24043     24042     24045     24047     24043     24042     24045     24048
     24044     24042     24045     24046     24044     24042     24045     24047
     24044     24042     24045     24048     24049     24052     24055     24056
     24049     24052     24055     24057     24049     24052     24055     24058
     24050     24049     24052     24053     24050     24049     24052     24054
     24050     24049     24052     24055     24051     24049     24052     24053
     24051     24049     24052     24054     24051     24049     24052     24055
     24052     24055     24058     24059     24052     24055     24058     24060
     24052     24055     24058     24061     24053     24052     24055     24056
     24053     24052     24055     24057     24053     24052     24055     24058
     24054     24052     24055     24056     24054     24052     24055     24057
     24054     24052     24055     24058     24055     24058     24061     24062
     24055     24058     24061     24063     24055     24058     24061     24064
     24056     24055     24058     24059     24056     24055     24058     24060
     24056     24055     24058     24061     24057     24055     24058     24059
     24057     24055     24058     24060     24057     24055     24058     24061
     24058     24061     24064     24065     24058     24061     24064     24066
     24058     24061     24064     24067     24059     24058     24061     24062
     24059     24058     24061     24063     24059     24058     24061     24064
     24060     24058     24061     24062     24060     24058     24061     24063
     24060     24058     24061     24064     24061     24064     24067     24068
     24061     24064     24067     24069     24061     24064     24067     24070
     24062     24061     24064     24065     24062     24061     24064     24066
     24062     24061     24064     24067     24063     24061     24064     24065
     24063     24061     24064     24066     24063     24061     24064     24067
     24064     24067     24070     24071     24064     24067     24070     24072
     24064     24067     24070     24073     24065     24064     24067     24068
     24065     24064     24067     24069     24065     24064     24067     24070
     24066     24064     24067     24068     24066     24064     24067     24069
     24066     24064     24067     24070     24067     24070     24073     24074
     24067     24070     24073     24075     24067     24070     24073     24076
     24068     24067     24070     24071     24068     24067     24070     24072
     24068     24067     24070     24073     24069     24067     24070     24071
     24069     24067     24070     24072     24069     24067     24070     24073
     24070     24073     24076     24077     24070     24073     24076     24078
     24070     24073     24076     24079     24071     24070     24073     24074
     24071     24070     24073     24075     24071     24070     24073     24076
     24072     24070     24073     24074     24072     24070     24073     24075
     24072     24070     24073     24076     24073     24076     24079     24080
     24073     24076     24079     24081     24073     24076     24079     24082
     24074     24073     24076     24077     24074     24073     24076     24078
     24074     24073     24076     24079     24075     24073     24076     24077
     24075     24073     24076     24078     24075     24073     24076     24079
     24076     24079     24082     24083     24076     24079     24082     24084
     24076     24079     24082     24085     24077     24076     24079     24080
     24077     24076     24079     24081     24077     24076     24079     24082
     24078     24076     24079     24080     24078     24076     24079     24081
     24078     24076     24079     24082     24079     24082     24085     24086
     24079     24082     24085     24087     24079     24082     24085     24088
     24080     24079     24082     24083     24080     24079     24082     24084
     24080     24079     24082     24085     24081     24079     24082     24083
     24081     24079     24082     24084     24081     24079     24082     24085
     24082     24085     24088     24089     24082     24085     24088     24090
     24082     24085     24088     24091     24083     24082     24085     24086
     24083     24082     24085     24087     24083     24082     24085     24088
     24084     24082     24085     24086     24084     24082     24085     24087
     24084     24082     24085     24088     24086     24085     24088     24089
     24086     24085     24088     24090     24086     24085     24088     24091
     24087     24085     24088     24089     24087     24085     24088     24090
     24087     24085     24088     24091     24092     24096     24099     24100
     24092     24096     24099     24101     24092     24096     24099     24106
     24093     24092     24096     24097     24093     24092     24096     24098
     24093     24092     24096     24099     24094     24092     24096     24097
     24094     24092     24096     24098     24094     24092     24096     24099
     24095     24092     24096     24097     24095     24092     24096     24098
     24095     24092     24096     24099     24096     24099     24106     24102
     24097     24096     24099     24100     24097     24096     24099     24101
     24097     24096     24099     24106     24098     24096     24099     24100
     24098     24096     24099     24101     24098     24096     24099     24106
     24099     24106     24102     24103     24099     24106     24102     24104
     24099     24106     24102     24105     24100     24099     24106     24102
     24101     24099     24106     24102     24102     24105     24107     24108
     24102     24105     24107     24109     24102     24105     24107     24110
     24103     24102     24105     24107     24104     24102     24105     24107
     24105     24107     24110     24111     24105     24107     24110     24112
     24105     24107     24110     24118     24106     24102     24105     24107
     24107     24110     24112     24113     24107     24110     24118     24119
     24107     24110     24118     24120     24107     24110     24118     24121
     24108     24107     24110     24111     24108     24107     24110     24112
     24108     24107     24110     24118     24109     24107     24110     24111
     24109     24107     24110     24112     24109     24107     24110     24118
     24110     24112     24113     24114     24110     24112     24113     24115
     24110     24118     24121     24122     24111     24110     24112     24113
     24111     24110     24118     24119     24111     24110     24118     24120
     24111     24110     24118     24121     24112     24110     24118     24119
     24112     24110     24118     24120     24112     24110     24118     24121
     24112     24113     24115     24116     24112     24113     24115     24117
     24112     24113     24115     24127     24113     24112     24110     24118
     24113     24115     24127     24128     24113     24115     24127     24129
     24113     24115     24127     24130     24114     24113     24115     24116
     24114     24113     24115     24117     24114     24113     24115     24127
     24115     24127     24130     24131     24115     24127     24130     24132
     24115     24127     24130     24133     24116     24115     24127     24128
     24116     24115     24127     24129     24116     24115     24127     24130
     24117     24115     24127     24128     24117     24115     24127     24129
     24117     24115     24127     24130     24118     24121     24122     24123
     24118     24121     24122     24124     24119     24118     24121     24122
     24120     24118     24121     24122     24121     24122     24124     24125
     24121     24122     24124     24126     24121     24122     24124     24174
     24122     24124     24174     24175     24122     24124     24174     24176
     24122     24124     24174     24177     24123     24122     24124     24125
     24123     24122     24124     24126     24123     24122     24124     24174
     24124     24174     24177     24178     24124     24174     24177     24179
     24124     24174     24177     24180     24125     24124     24174     24175
     24125     24124     24174     24176     24125     24124     24174     24177
     24126     24124     24174     24175     24126     24124     24174     24176
     24126     24124     24174     24177     24127     24130     24133     24134
     24127     24130     24133     24135     24127     24130     24133     24136
     24128     24127     24130     24131     24128     24127     24130     24132
     24128     24127     24130     24133     24129     24127     24130     24131
     24129     24127     24130     24132     24129     24127     24130     24133
     24130     24133     24136     24137     24130     24133     24136     24138
     24130     24133     24136     24139     24131     24130     24133     24134
     24131     24130     24133     24135     24131     24130     24133     24136
     24132     24130     24133     24134     24132     24130     24133     24135
     24132     24130     24133     24136     24133     24136     24139     24140
     24133     24136     24139     24141     24133     24136     24139     24142
     24134     24133     24136     24137     24134     24133     24136     24138
     24134     24133     24136     24139     24135     24133     24136     24137
     24135     24133     24136     24138     24135     24133     24136     24139
     24136     24139     24142     24143     24136     24139     24142     24144
     24136     24139     24142     24145     24137     24136     24139     24140
     24137     24136     24139     24141     24137     24136     24139     24142
     24138     24136     24139     24140     24138     24136     24139     24141
     24138     24136     24139     24142     24139     24142     24145     24146
     24139     24142     24145     24147     24140     24139     24142     24143
     24140     24139     24142     24144     24140     24139     24142     24145
     24141     24139     24142     24143     24141     24139     24142     24144
     24141     24139     24142     24145     24142     24145     24147     24148
     24142     24145     24147     24149     24143     24142     24145     24146
     24143     24142     24145     24147     24144     24142     24145     24146
     24144     24142     24145     24147     24145     24147     24149     24150
     24145     24147     24149     24151     24145     24147     24149     24152
     24146     24145     24147     24148     24146     24145     24147     24149
     24147     24149     24152     24153     24147     24149     24152     24154
     24147     24149     24152     24155     24148     24147     24149     24150
     24148     24147     24149     24151     24148     24147     24149     24152
     24149     24152     24155     24156     24149     24152     24155     24157
     24149     24152     24155     24158     24150     24149     24152     24153
     24150     24149     24152     24154     24150     24149     24152     24155
     24151     24149     24152     24153     24151     24149     24152     24154
     24151     24149     24152     24155     24152     24155     24158     24159
     24152     24155     24158     24160     24152     24155     24158     24161
     24153     24152     24155     24156     24153     24152     24155     24157
     24153     24152     24155     24158     24154     24152     24155     24156
     24154     24152     24155     24157     24154     24152     24155     24158
     24155     24158     24161     24162     24155     24158     24161     24163
     24155     24158     24161     24164     24156     24155     24158     24159
     24156     24155     24158     24160     24156     24155     24158     24161
     24157     24155     24158     24159     24157     24155     24158     24160
     24157     24155     24158     24161     24158     24161     24164     24165
     24158     24161     24164     24166     24158     24161     24164     24167
     24159     24158     24161     24162     24159     24158     24161     24163
     24159     24158     24161     24164     24160     24158     24161     24162
     24160     24158     24161     24163     24160     24158     24161     24164
     24161     24164     24167     24168     24161     24164     24167     24169
     24161     24164     24167     24170     24162     24161     24164     24165
     24162     24161     24164     24166     24162     24161     24164     24167
     24163     24161     24164     24165     24163     24161     24164     24166
     24163     24161     24164     24167     24164     24167     24170     24171
     24164     24167     24170     24172     24164     24167     24170     24173
     24165     24164     24167     24168     24165     24164     24167     24169
     24165     24164     24167     24170     24166     24164     24167     24168
     24166     24164     24167     24169     24166     24164     24167     24170
     24168     24167     24170     24171     24168     24167     24170     24172
     24168     24167     24170     24173     24169     24167     24170     24171
     24169     24167     24170     24172     24169     24167     24170     24173
     24174     24177     24180     24181     24174     24177     24180     24182
     24174     24177     24180     24183     24175     24174     24177     24178
     24175     24174     24177     24179     24175     24174     24177     24180
     24176     24174     24177     24178     24176     24174     24177     24179
     24176     24174     24177     24180     24177     24180     24183     24184
     24177     24180     24183     24185     24177     24180     24183     24186
     24178     24177     24180     24181     24178     24177     24180     24182
     24178     24177     24180     24183     24179     24177     24180     24181
     24179     24177     24180     24182     24179     24177     24180     24183
     24180     24183     24186     24187     24180     24183     24186     24188
     24180     24183     24186     24189     24181     24180     24183     24184
     24181     24180     24183     24185     24181     24180     24183     24186
     24182     24180     24183     24184     24182     24180     24183     24185
     24182     24180     24183     24186     24183     24186     24189     24190
     24183     24186     24189     24191     24183     24186     24189     24192
     24184     24183     24186     24187     24184     24183     24186     24188
     24184     24183     24186     24189     24185     24183     24186     24187
     24185     24183     24186     24188     24185     24183     24186     24189
     24186     24189     24192     24193     24186     24189     24192     24194
     24186     24189     24192     24195     24187     24186     24189     24190
     24187     24186     24189     24191     24187     24186     24189     24192
     24188     24186     24189     24190     24188     24186     24189     24191
     24188     24186     24189     24192     24189     24192     24195     24196
     24189     24192     24195     24197     24189     24192     24195     24198
     24190     24189     24192     24193     24190     24189     24192     24194
     24190     24189     24192     24195     24191     24189     24192     24193
     24191     24189     24192     24194     24191     24189     24192     24195
     24192     24195     24198     24199     24192     24195     24198     24200
     24192     24195     24198     24201     24193     24192     24195     24196
     24193     24192     24195     24197     24193     24192     24195     24198
     24194     24192     24195     24196     24194     24192     24195     24197
     24194     24192     24195     24198     24195     24198     24201     24202
     24195     24198     24201     24203     24195     24198     24201     24204
     24196     24195     24198     24199     24196     24195     24198     24200
     24196     24195     24198     24201     24197     24195     24198     24199
     24197     24195     24198     24200     24197     24195     24198     24201
     24198     24201     24204     24205     24198     24201     24204     24206
     24198     24201     24204     24207     24199     24198     24201     24202
     24199     24198     24201     24203     24199     24198     24201     24204
     24200     24198     24201     24202     24200     24198     24201     24203
     24200     24198     24201     24204     24201     24204     24207     24208
     24201     24204     24207     24209     24201     24204     24207     24210
     24202     24201     24204     24205     24202     24201     24204     24206
     24202     24201     24204     24207     24203     24201     24204     24205
     24203     24201     24204     24206     24203     24201     24204     24207
     24204     24207     24210     24211     24204     24207     24210     24212
     24204     24207     24210     24213     24205     24204     24207     24208
     24205     24204     24207     24209     24205     24204     24207     24210
     24206     24204     24207     24208     24206     24204     24207     24209
     24206     24204     24207     24210     24207     24210     24213     24214
     24207     24210     24213     24215     24207     24210     24213     24216
     24208     24207     24210     24211     24208     24207     24210     24212
     24208     24207     24210     24213     24209     24207     24210     24211
     24209     24207     24210     24212     24209     24207     24210     24213
     24211     24210     24213     24214     24211     24210     24213     24215
     24211     24210     24213     24216     24212     24210     24213     24214
     24212     24210     24213     24215     24212     24210     24213     24216
     24217     24221     24224     24225     24217     24221     24224     24226
     24217     24221     24224     24231     24218     24217     24221     24222
     24218     24217     24221     24223     24218     24217     24221     24224
     24219     24217     24221     24222     24219     24217     24221     24223
     24219     24217     24221     24224     24220     24217     24221     24222
     24220     24217     24221     24223     24220     24217     24221     24224
     24221     24224     24231     24227     24222     24221     24224     24225
     24222     24221     24224     24226     24222     24221     24224     24231
     24223     24221     24224     24225     24223     24221     24224     24226
     24223     24221     24224     24231     24224     24231     24227     24228
     24224     24231     24227     24229     24224     24231     24227     24230
     24225     24224     24231     24227     24226     24224     24231     24227
     24227     24230     24232     24233     24227     24230     24232     24234
     24227     24230     24232     24235     24228     24227     24230     24232
     24229     24227     24230     24232     24230     24232     24235     24236
     24230     24232     24235     24237     24230     24232     24235     24243
     24231     24227     24230     24232     24232     24235     24237     24238
     24232     24235     24243     24244     24232     24235     24243     24245
     24232     24235     24243     24246     24233     24232     24235     24236
     24233     24232     24235     24237     24233     24232     24235     24243
     24234     24232     24235     24236     24234     24232     24235     24237
     24234     24232     24235     24243     24235     24237     24238     24239
     24235     24237     24238     24240     24235     24243     24246     24247
     24236     24235     24237     24238     24236     24235     24243     24244
     24236     24235     24243     24245     24236     24235     24243     24246
     24237     24235     24243     24244     24237     24235     24243     24245
     24237     24235     24243     24246     24237     24238     24240     24241
     24237     24238     24240     24242     24237     24238     24240     24252
     24238     24237     24235     24243     24238     24240     24252     24253
     24238     24240     24252     24254     24238     24240     24252     24255
     24239     24238     24240     24241     24239     24238     24240     24242
     24239     24238     24240     24252     24240     24252     24255     24256
     24240     24252     24255     24257     24240     24252     24255     24258
     24241     24240     24252     24253     24241     24240     24252     24254
     24241     24240     24252     24255     24242     24240     24252     24253
     24242     24240     24252     24254     24242     24240     24252     24255
     24243     24246     24247     24248     24243     24246     24247     24249
     24244     24243     24246     24247     24245     24243     24246     24247
     24246     24247     24249     24250     24246     24247     24249     24251
     24246     24247     24249     24299     24247     24249     24299     24300
     24247     24249     24299     24301     24247     24249     24299     24302
     24248     24247     24249     24250     24248     24247     24249     24251
     24248     24247     24249     24299     24249     24299     24302     24303
     24249     24299     24302     24304     24249     24299     24302     24305
     24250     24249     24299     24300     24250     24249     24299     24301
     24250     24249     24299     24302     24251     24249     24299     24300
     24251     24249     24299     24301     24251     24249     24299     24302
     24252     24255     24258     24259     24252     24255     24258     24260
     24252     24255     24258     24261     24253     24252     24255     24256
     24253     24252     24255     24257     24253     24252     24255     24258
     24254     24252     24255     24256     24254     24252     24255     24257
     24254     24252     24255     24258     24255     24258     24261     24262
     24255     24258     24261     24263     24255     24258     24261     24264
     24256     24255     24258     24259     24256     24255     24258     24260
     24256     24255     24258     24261     24257     24255     24258     24259
     24257     24255     24258     24260     24257     24255     24258     24261
     24258     24261     24264     24265     24258     24261     24264     24266
     24258     24261     24264     24267     24259     24258     24261     24262
     24259     24258     24261     24263     24259     24258     24261     24264
     24260     24258     24261     24262     24260     24258     24261     24263
     24260     24258     24261     24264     24261     24264     24267     24268
     24261     24264     24267     24269     24261     24264     24267     24270
     24262     24261     24264     24265     24262     24261     24264     24266
     24262     24261     24264     24267     24263     24261     24264     24265
     24263     24261     24264     24266     24263     24261     24264     24267
     24264     24267     24270     24271     24264     24267     24270     24272
     24265     24264     24267     24268     24265     24264     24267     24269
     24265     24264     24267     24270     24266     24264     24267     24268
     24266     24264     24267     24269     24266     24264     24267     24270
     24267     24270     24272     24273     24267     24270     24272     24274
     24268     24267     24270     24271     24268     24267     24270     24272
     24269     24267     24270     24271     24269     24267     24270     24272
     24270     24272     24274     24275     24270     24272     24274     24276
     24270     24272     24274     24277     24271     24270     24272     24273
     24271     24270     24272     24274     24272     24274     24277     24278
     24272     24274     24277     24279     24272     24274     24277     24280
     24273     24272     24274     24275     24273     24272     24274     24276
     24273     24272     24274     24277     24274     24277     24280     24281
     24274     24277     24280     24282     24274     24277     24280     24283
     24275     24274     24277     24278     24275     24274     24277     24279
     24275     24274     24277     24280     24276     24274     24277     24278
     24276     24274     24277     24279     24276     24274     24277     24280
     24277     24280     24283     24284     24277     24280     24283     24285
     24277     24280     24283     24286     24278     24277     24280     24281
     24278     24277     24280     24282     24278     24277     24280     24283
     24279     24277     24280     24281     24279     24277     24280     24282
     24279     24277     24280     24283     24280     24283     24286     24287
     24280     24283     24286     24288     24280     24283     24286     24289
     24281     24280     24283     24284     24281     24280     24283     24285
     24281     24280     24283     24286     24282     24280     24283     24284
     24282     24280     24283     24285     24282     24280     24283     24286
     24283     24286     24289     24290     24283     24286     24289     24291
     24283     24286     24289     24292     24284     24283     24286     24287
     24284     24283     24286     24288     24284     24283     24286     24289
     24285     24283     24286     24287     24285     24283     24286     24288
     24285     24283     24286     24289     24286     24289     24292     24293
     24286     24289     24292     24294     24286     24289     24292     24295
     24287     24286     24289     24290     24287     24286     24289     24291
     24287     24286     24289     24292     24288     24286     24289     24290
     24288     24286     24289     24291     24288     24286     24289     24292
     24289     24292     24295     24296     24289     24292     24295     24297
     24289     24292     24295     24298     24290     24289     24292     24293
     24290     24289     24292     24294     24290     24289     24292     24295
     24291     24289     24292     24293     24291     24289     24292     24294
     24291     24289     24292     24295     24293     24292     24295     24296
     24293     24292     24295     24297     24293     24292     24295     24298
     24294     24292     24295     24296     24294     24292     24295     24297
     24294     24292     24295     24298     24299     24302     24305     24306
     24299     24302     24305     24307     24299     24302     24305     24308
     24300     24299     24302     24303     24300     24299     24302     24304
     24300     24299     24302     24305     24301     24299     24302     24303
     24301     24299     24302     24304     24301     24299     24302     24305
     24302     24305     24308     24309     24302     24305     24308     24310
     24302     24305     24308     24311     24303     24302     24305     24306
     24303     24302     24305     24307     24303     24302     24305     24308
     24304     24302     24305     24306     24304     24302     24305     24307
     24304     24302     24305     24308     24305     24308     24311     24312
     24305     24308     24311     24313     24305     24308     24311     24314
     24306     24305     24308     24309     24306     24305     24308     24310
     24306     24305     24308     24311     24307     24305     24308     24309
     24307     24305     24308     24310     24307     24305     24308     24311
     24308     24311     24314     24315     24308     24311     24314     24316
     24308     24311     24314     24317     24309     24308     24311     24312
     24309     24308     24311     24313     24309     24308     24311     24314
     24310     24308     24311     24312     24310     24308     24311     24313
     24310     24308     24311     24314     24311     24314     24317     24318
     24311     24314     24317     24319     24311     24314     24317     24320
     24312     24311     24314     24315     24312     24311     24314     24316
     24312     24311     24314     24317     24313     24311     24314     24315
     24313     24311     24314     24316     24313     24311     24314     24317
     24314     24317     24320     24321     24314     24317     24320     24322
     24314     24317     24320     24323     24315     24314     24317     24318
     24315     24314     24317     24319     24315     24314     24317     24320
     24316     24314     24317     24318     24316     24314     24317     24319
     24316     24314     24317     24320     24317     24320     24323     24324
     24317     24320     24323     24325     24317     24320     24323     24326
     24318     24317     24320     24321     24318     24317     24320     24322
     24318     24317     24320     24323     24319     24317     24320     24321
     24319     24317     24320     24322     24319     24317     24320     24323
     24320     24323     24326     24327     24320     24323     24326     24328
     24320     24323     24326     24329     24321     24320     24323     24324
     24321     24320     24323     24325     24321     24320     24323     24326
     24322     24320     24323     24324     24322     24320     24323     24325
     24322     24320     24323     24326     24323     24326     24329     24330
     24323     24326     24329     24331     24323     24326     24329     24332
     24324     24323     24326     24327     24324     24323     24326     24328
     24324     24323     24326     24329     24325     24323     24326     24327
     24325     24323     24326     24328     24325     24323     24326     24329
     24326     24329     24332     24333     24326     24329     24332     24334
     24326     24329     24332     24335     24327     24326     24329     24330
     24327     24326     24329     24331     24327     24326     24329     24332
     24328     24326     24329     24330     24328     24326     24329     24331
     24328     24326     24329     24332     24329     24332     24335     24336
     24329     24332     24335     24337     24329     24332     24335     24338
     24330     24329     24332     24333     24330     24329     24332     24334
     24330     24329     24332     24335     24331     24329     24332     24333
     24331     24329     24332     24334     24331     24329     24332     24335
     24332     24335     24338     24339     24332     24335     24338     24340
     24332     24335     24338     24341     24333     24332     24335     24336
     24333     24332     24335     24337     24333     24332     24335     24338
     24334     24332     24335     24336     24334     24332     24335     24337
     24334     24332     24335     24338     24336     24335     24338     24339
     24336     24335     24338     24340     24336     24335     24338     24341
     24337     24335     24338     24339     24337     24335     24338     24340
     24337     24335     24338     24341     24342     24346     24349     24350
     24342     24346     24349     24351     24342     24346     24349     24356
     24343     24342     24346     24347     24343     24342     24346     24348
     24343     24342     24346     24349     24344     24342     24346     24347
     24344     24342     24346     24348     24344     24342     24346     24349
     24345     24342     24346     24347     24345     24342     24346     24348
     24345     24342     24346     24349     24346     24349     24356     24352
     24347     24346     24349     24350     24347     24346     24349     24351
     24347     24346     24349     24356     24348     24346     24349     24350
     24348     24346     24349     24351     24348     24346     24349     24356
     24349     24356     24352     24353     24349     24356     24352     24354
     24349     24356     24352     24355     24350     24349     24356     24352
     24351     24349     24356     24352     24352     24355     24357     24358
     24352     24355     24357     24359     24352     24355     24357     24360
     24353     24352     24355     24357     24354     24352     24355     24357
     24355     24357     24360     24361     24355     24357     24360     24362
     24355     24357     24360     24368     24356     24352     24355     24357
     24357     24360     24362     24363     24357     24360     24368     24369
     24357     24360     24368     24370     24357     24360     24368     24371
     24358     24357     24360     24361     24358     24357     24360     24362
     24358     24357     24360     24368     24359     24357     24360     24361
     24359     24357     24360     24362     24359     24357     24360     24368
     24360     24362     24363     24364     24360     24362     24363     24365
     24360     24368     24371     24372     24361     24360     24362     24363
     24361     24360     24368     24369     24361     24360     24368     24370
     24361     24360     24368     24371     24362     24360     24368     24369
     24362     24360     24368     24370     24362     24360     24368     24371
     24362     24363     24365     24366     24362     24363     24365     24367
     24362     24363     24365     24377     24363     24362     24360     24368
     24363     24365     24377     24378     24363     24365     24377     24379
     24363     24365     24377     24380     24364     24363     24365     24366
     24364     24363     24365     24367     24364     24363     24365     24377
     24365     24377     24380     24381     24365     24377     24380     24382
     24365     24377     24380     24383     24366     24365     24377     24378
     24366     24365     24377     24379     24366     24365     24377     24380
     24367     24365     24377     24378     24367     24365     24377     24379
     24367     24365     24377     24380     24368     24371     24372     24373
     24368     24371     24372     24374     24369     24368     24371     24372
     24370     24368     24371     24372     24371     24372     24374     24375
     24371     24372     24374     24376     24371     24372     24374     24424
     24372     24374     24424     24425     24372     24374     24424     24426
     24372     24374     24424     24427     24373     24372     24374     24375
     24373     24372     24374     24376     24373     24372     24374     24424
     24374     24424     24427     24428     24374     24424     24427     24429
     24374     24424     24427     24430     24375     24374     24424     24425
     24375     24374     24424     24426     24375     24374     24424     24427
     24376     24374     24424     24425     24376     24374     24424     24426
     24376     24374     24424     24427     24377     24380     24383     24384
     24377     24380     24383     24385     24377     24380     24383     24386
     24378     24377     24380     24381     24378     24377     24380     24382
     24378     24377     24380     24383     24379     24377     24380     24381
     24379     24377     24380     24382     24379     24377     24380     24383
     24380     24383     24386     24387     24380     24383     24386     24388
     24380     24383     24386     24389     24381     24380     24383     24384
     24381     24380     24383     24385     24381     24380     24383     24386
     24382     24380     24383     24384     24382     24380     24383     24385
     24382     24380     24383     24386     24383     24386     24389     24390
     24383     24386     24389     24391     24383     24386     24389     24392
     24384     24383     24386     24387     24384     24383     24386     24388
     24384     24383     24386     24389     24385     24383     24386     24387
     24385     24383     24386     24388     24385     24383     24386     24389
     24386     24389     24392     24393     24386     24389     24392     24394
     24386     24389     24392     24395     24387     24386     24389     24390
     24387     24386     24389     24391     24387     24386     24389     24392
     24388     24386     24389     24390     24388     24386     24389     24391
     24388     24386     24389     24392     24389     24392     24395     24396
     24389     24392     24395     24397     24390     24389     24392     24393
     24390     24389     24392     24394     24390     24389     24392     24395
     24391     24389     24392     24393     24391     24389     24392     24394
     24391     24389     24392     24395     24392     24395     24397     24398
     24392     24395     24397     24399     24393     24392     24395     24396
     24393     24392     24395     24397     24394     24392     24395     24396
     24394     24392     24395     24397     24395     24397     24399     24400
     24395     24397     24399     24401     24395     24397     24399     24402
     24396     24395     24397     24398     24396     24395     24397     24399
     24397     24399     24402     24403     24397     24399     24402     24404
     24397     24399     24402     24405     24398     24397     24399     24400
     24398     24397     24399     24401     24398     24397     24399     24402
     24399     24402     24405     24406     24399     24402     24405     24407
     24399     24402     24405     24408     24400     24399     24402     24403
     24400     24399     24402     24404     24400     24399     24402     24405
     24401     24399     24402     24403     24401     24399     24402     24404
     24401     24399     24402     24405     24402     24405     24408     24409
     24402     24405     24408     24410     24402     24405     24408     24411
     24403     24402     24405     24406     24403     24402     24405     24407
     24403     24402     24405     24408     24404     24402     24405     24406
     24404     24402     24405     24407     24404     24402     24405     24408
     24405     24408     24411     24412     24405     24408     24411     24413
     24405     24408     24411     24414     24406     24405     24408     24409
     24406     24405     24408     24410     24406     24405     24408     24411
     24407     24405     24408     24409     24407     24405     24408     24410
     24407     24405     24408     24411     24408     24411     24414     24415
     24408     24411     24414     24416     24408     24411     24414     24417
     24409     24408     24411     24412     24409     24408     24411     24413
     24409     24408     24411     24414     24410     24408     24411     24412
     24410     24408     24411     24413     24410     24408     24411     24414
     24411     24414     24417     24418     24411     24414     24417     24419
     24411     24414     24417     24420     24412     24411     24414     24415
     24412     24411     24414     24416     24412     24411     24414     24417
     24413     24411     24414     24415     24413     24411     24414     24416
     24413     24411     24414     24417     24414     24417     24420     24421
     24414     24417     24420     24422     24414     24417     24420     24423
     24415     24414     24417     24418     24415     24414     24417     24419
     24415     24414     24417     24420     24416     24414     24417     24418
     24416     24414     24417     24419     24416     24414     24417     24420
     24418     24417     24420     24421     24418     24417     24420     24422
     24418     24417     24420     24423     24419     24417     24420     24421
     24419     24417     24420     24422     24419     24417     24420     24423
     24424     24427     24430     24431     24424     24427     24430     24432
     24424     24427     24430     24433     24425     24424     24427     24428
     24425     24424     24427     24429     24425     24424     24427     24430
     24426     24424     24427     24428     24426     24424     24427     24429
     24426     24424     24427     24430     24427     24430     24433     24434
     24427     24430     24433     24435     24427     24430     24433     24436
     24428     24427     24430     24431     24428     24427     24430     24432
     24428     24427     24430     24433     24429     24427     24430     24431
     24429     24427     24430     24432     24429     24427     24430     24433
     24430     24433     24436     24437     24430     24433     24436     24438
     24430     24433     24436     24439     24431     24430     24433     24434
     24431     24430     24433     24435     24431     24430     24433     24436
     24432     24430     24433     24434     24432     24430     24433     24435
     24432     24430     24433     24436     24433     24436     24439     24440
     24433     24436     24439     24441     24433     24436     24439     24442
     24434     24433     24436     24437     24434     24433     24436     24438
     24434     24433     24436     24439     24435     24433     24436     24437
     24435     24433     24436     24438     24435     24433     24436     24439
     24436     24439     24442     24443     24436     24439     24442     24444
     24436     24439     24442     24445     24437     24436     24439     24440
     24437     24436     24439     24441     24437     24436     24439     24442
     24438     24436     24439     24440     24438     24436     24439     24441
     24438     24436     24439     24442     24439     24442     24445     24446
     24439     24442     24445     24447     24439     24442     24445     24448
     24440     24439     24442     24443     24440     24439     24442     24444
     24440     24439     24442     24445     24441     24439     24442     24443
     24441     24439     24442     24444     24441     24439     24442     24445
     24442     24445     24448     24449     24442     24445     24448     24450
     24442     24445     24448     24451     24443     24442     24445     24446
     24443     24442     24445     24447     24443     24442     24445     24448
     24444     24442     24445     24446     24444     24442     24445     24447
     24444     24442     24445     24448     24445     24448     24451     24452
     24445     24448     24451     24453     24445     24448     24451     24454
     24446     24445     24448     24449     24446     24445     24448     24450
     24446     24445     24448     24451     24447     24445     24448     24449
     24447     24445     24448     24450     24447     24445     24448     24451
     24448     24451     24454     24455     24448     24451     24454     24456
     24448     24451     24454     24457     24449     24448     24451     24452
     24449     24448     24451     24453     24449     24448     24451     24454
     24450     24448     24451     24452     24450     24448     24451     24453
     24450     24448     24451     24454     24451     24454     24457     24458
     24451     24454     24457     24459     24451     24454     24457     24460
     24452     24451     24454     24455     24452     24451     24454     24456
     24452     24451     24454     24457     24453     24451     24454     24455
     24453     24451     24454     24456     24453     24451     24454     24457
     24454     24457     24460     24461     24454     24457     24460     24462
     24454     24457     24460     24463     24455     24454     24457     24458
     24455     24454     24457     24459     24455     24454     24457     24460
     24456     24454     24457     24458     24456     24454     24457     24459
     24456     24454     24457     24460     24457     24460     24463     24464
     24457     24460     24463     24465     24457     24460     24463     24466
     24458     24457     24460     24461     24458     24457     24460     24462
     24458     24457     24460     24463     24459     24457     24460     24461
     24459     24457     24460     24462     24459     24457     24460     24463
     24461     24460     24463     24464     24461     24460     24463     24465
     24461     24460     24463     24466     24462     24460     24463     24464
     24462     24460     24463     24465     24462     24460     24463     24466
     24467     24468     24483     24484     24467     24468     24483     24485
     24467     24468     24483     24489     24468     24467     24471     24472
     24468     24467     24471     24473     24468     24467     24471     24474
     24468     24467     24475     24476     24468     24467     24475     24477
     24468     24467     24475     24478     24468     24467     24479     24480
     24468     24467     24479     24481     24468     24467     24479     24482
     24468     24483     24489     24486     24469     24468     24467     24471
     24469     24468     24467     24475     24469     24468     24467     24479
     24469     24468     24483     24484     24469     24468     24483     24485
     24469     24468     24483     24489     24470     24468     24467     24471
     24470     24468     24467     24475     24470     24468     24467     24479
     24470     24468     24483     24484     24470     24468     24483     24485
     24470     24468     24483     24489     24471     24467     24468     24483
     24471     24467     24475     24476     24471     24467     24475     24477
     24471     24467     24475     24478     24471     24467     24479     24480
     24471     24467     24479     24481     24471     24467     24479     24482
     24472     24471     24467     24475     24472     24471     24467     24479
     24473     24471     24467     24475     24473     24471     24467     24479
     24474     24471     24467     24475     24474     24471     24467     24479
     24475     24467     24468     24483     24475     24467     24479     24480
     24475     24467     24479     24481     24475     24467     24479     24482
     24476     24475     24467     24479     24477     24475     24467     24479
     24478     24475     24467     24479     24479     24467     24468     24483
     24483     24489     24486     24487     24483     24489     24486     24488
     24483     24489     24486     24490     24484     24483     24489     24486
     24485     24483     24489     24486     24486     24490     24491     24492
     24486     24490     24491     24493     24486     24490     24491     24494
     24487     24486     24490     24491     24488     24486     24490     24491
     24489     24486     24490     24491     24490     24491     24494     24495
     24490     24491     24494     24496     24490     24491     24494     24502
     24491     24494     24496     24497     24491     24494     24502     24503
     24491     24494     24502     24504     24491     24494     24502     24505
     24492     24491     24494     24495     24492     24491     24494     24496
     24492     24491     24494     24502     24493     24491     24494     24495
     24493     24491     24494     24496     24493     24491     24494     24502
     24494     24496     24497     24498     24494     24496     24497     24499
     24494     24502     24505     24506     24495     24494     24496     24497
     24495     24494     24502     24503     24495     24494     24502     24504
     24495     24494     24502     24505     24496     24494     24502     24503
     24496     24494     24502     24504     24496     24494     24502     24505
     24496     24497     24499     24500     24496     24497     24499     24501
     24496     24497     24499     24511     24497     24496     24494     24502
     24497     24499     24511     24512     24497     24499     24511     24513
     24497     24499     24511     24514     24498     24497     24499     24500
     24498     24497     24499     24501     24498     24497     24499     24511
     24499     24511     24514     24515     24499     24511     24514     24516
     24499     24511     24514     24517     24500     24499     24511     24512
     24500     24499     24511     24513     24500     24499     24511     24514
     24501     24499     24511     24512     24501     24499     24511     24513
     24501     24499     24511     24514     24502     24505     24506     24507
     24502     24505     24506     24508     24503     24502     24505     24506
     24504     24502     24505     24506     24505     24506     24508     24509
     24505     24506     24508     24510     24505     24506     24508     24558
     24506     24508     24558     24559     24506     24508     24558     24560
     24506     24508     24558     24561     24507     24506     24508     24509
     24507     24506     24508     24510     24507     24506     24508     24558
     24508     24558     24561     24562     24508     24558     24561     24563
     24508     24558     24561     24564     24509     24508     24558     24559
     24509     24508     24558     24560     24509     24508     24558     24561
     24510     24508     24558     24559     24510     24508     24558     24560
     24510     24508     24558     24561     24511     24514     24517     24518
     24511     24514     24517     24519     24511     24514     24517     24520
     24512     24511     24514     24515     24512     24511     24514     24516
     24512     24511     24514     24517     24513     24511     24514     24515
     24513     24511     24514     24516     24513     24511     24514     24517
     24514     24517     24520     24521     24514     24517     24520     24522
     24514     24517     24520     24523     24515     24514     24517     24518
     24515     24514     24517     24519     24515     24514     24517     24520
     24516     24514     24517     24518     24516     24514     24517     24519
     24516     24514     24517     24520     24517     24520     24523     24524
     24517     24520     24523     24525     24517     24520     24523     24526
     24518     24517     24520     24521     24518     24517     24520     24522
     24518     24517     24520     24523     24519     24517     24520     24521
     24519     24517     24520     24522     24519     24517     24520     24523
     24520     24523     24526     24527     24520     24523     24526     24528
     24520     24523     24526     24529     24521     24520     24523     24524
     24521     24520     24523     24525     24521     24520     24523     24526
     24522     24520     24523     24524     24522     24520     24523     24525
     24522     24520     24523     24526     24523     24526     24529     24530
     24523     24526     24529     24531     24524     24523     24526     24527
     24524     24523     24526     24528     24524     24523     24526     24529
     24525     24523     24526     24527     24525     24523     24526     24528
     24525     24523     24526     24529     24526     24529     24531     24532
     24526     24529     24531     24533     24527     24526     24529     24530
     24527     24526     24529     24531     24528     24526     24529     24530
     24528     24526     24529     24531     24529     24531     24533     24534
     24529     24531     24533     24535     24529     24531     24533     24536
     24530     24529     24531     24532     24530     24529     24531     24533
     24531     24533     24536     24537     24531     24533     24536     24538
     24531     24533     24536     24539     24532     24531     24533     24534
     24532     24531     24533     24535     24532     24531     24533     24536
     24533     24536     24539     24540     24533     24536     24539     24541
     24533     24536     24539     24542     24534     24533     24536     24537
     24534     24533     24536     24538     24534     24533     24536     24539
     24535     24533     24536     24537     24535     24533     24536     24538
     24535     24533     24536     24539     24536     24539     24542     24543
     24536     24539     24542     24544     24536     24539     24542     24545
     24537     24536     24539     24540     24537     24536     24539     24541
     24537     24536     24539     24542     24538     24536     24539     24540
     24538     24536     24539     24541     24538     24536     24539     24542
     24539     24542     24545     24546     24539     24542     24545     24547
     24539     24542     24545     24548     24540     24539     24542     24543
     24540     24539     24542     24544     24540     24539     24542     24545
     24541     24539     24542     24543     24541     24539     24542     24544
     24541     24539     24542     24545     24542     24545     24548     24549
     24542     24545     24548     24550     24542     24545     24548     24551
     24543     24542     24545     24546     24543     24542     24545     24547
     24543     24542     24545     24548     24544     24542     24545     24546
     24544     24542     24545     24547     24544     24542     24545     24548
     24545     24548     24551     24552     24545     24548     24551     24553
     24545     24548     24551     24554     24546     24545     24548     24549
     24546     24545     24548     24550     24546     24545     24548     24551
     24547     24545     24548     24549     24547     24545     24548     24550
     24547     24545     24548     24551     24548     24551     24554     24555
     24548     24551     24554     24556     24548     24551     24554     24557
     24549     24548     24551     24552     24549     24548     24551     24553
     24549     24548     24551     24554     24550     24548     24551     24552
     24550     24548     24551     24553     24550     24548     24551     24554
     24552     24551     24554     24555     24552     24551     24554     24556
     24552     24551     24554     24557     24553     24551     24554     24555
     24553     24551     24554     24556     24553     24551     24554     24557
     24558     24561     24564     24565     24558     24561     24564     24566
     24558     24561     24564     24567     24559     24558     24561     24562
     24559     24558     24561     24563     24559     24558     24561     24564
     24560     24558     24561     24562     24560     24558     24561     24563
     24560     24558     24561     24564     24561     24564     24567     24568
     24561     24564     24567     24569     24561     24564     24567     24570
     24562     24561     24564     24565     24562     24561     24564     24566
     24562     24561     24564     24567     24563     24561     24564     24565
     24563     24561     24564     24566     24563     24561     24564     24567
     24564     24567     24570     24571     24564     24567     24570     24572
     24564     24567     24570     24573     24565     24564     24567     24568
     24565     24564     24567     24569     24565     24564     24567     24570
     24566     24564     24567     24568     24566     24564     24567     24569
     24566     24564     24567     24570     24567     24570     24573     24574
     24567     24570     24573     24575     24567     24570     24573     24576
     24568     24567     24570     24571     24568     24567     24570     24572
     24568     24567     24570     24573     24569     24567     24570     24571
     24569     24567     24570     24572     24569     24567     24570     24573
     24570     24573     24576     24577     24570     24573     24576     24578
     24570     24573     24576     24579     24571     24570     24573     24574
     24571     24570     24573     24575     24571     24570     24573     24576
     24572     24570     24573     24574     24572     24570     24573     24575
     24572     24570     24573     24576     24573     24576     24579     24580
     24573     24576     24579     24581     24573     24576     24579     24582
     24574     24573     24576     24577     24574     24573     24576     24578
     24574     24573     24576     24579     24575     24573     24576     24577
     24575     24573     24576     24578     24575     24573     24576     24579
     24576     24579     24582     24583     24576     24579     24582     24584
     24576     24579     24582     24585     24577     24576     24579     24580
     24577     24576     24579     24581     24577     24576     24579     24582
     24578     24576     24579     24580     24578     24576     24579     24581
     24578     24576     24579     24582     24579     24582     24585     24586
     24579     24582     24585     24587     24579     24582     24585     24588
     24580     24579     24582     24583     24580     24579     24582     24584
     24580     24579     24582     24585     24581     24579     24582     24583
     24581     24579     24582     24584     24581     24579     24582     24585
     24582     24585     24588     24589     24582     24585     24588     24590
     24582     24585     24588     24591     24583     24582     24585     24586
     24583     24582     24585     24587     24583     24582     24585     24588
     24584     24582     24585     24586     24584     24582     24585     24587
     24584     24582     24585     24588     24585     24588     24591     24592
     24585     24588     24591     24593     24585     24588     24591     24594
     24586     24585     24588     24589     24586     24585     24588     24590
     24586     24585     24588     24591     24587     24585     24588     24589
     24587     24585     24588     24590     24587     24585     24588     24591
     24588     24591     24594     24595     24588     24591     24594     24596
     24588     24591     24594     24597     24589     24588     24591     24592
     24589     24588     24591     24593     24589     24588     24591     24594
     24590     24588     24591     24592     24590     24588     24591     24593
     24590     24588     24591     24594     24591     24594     24597     24598
     24591     24594     24597     24599     24591     24594     24597     24600
     24592     24591     24594     24595     24592     24591     24594     24596
     24592     24591     24594     24597     24593     24591     24594     24595
     24593     24591     24594     24596     24593     24591     24594     24597
     24595     24594     24597     24598     24595     24594     24597     24599
     24595     24594     24597     24600     24596     24594     24597     24598
     24596     24594     24597     24599     24596     24594     24597     24600
     24601     24605     24608     24609     24601     24605     24608     24610
     24601     24605     24608     24615     24602     24601     24605     24606
     24602     24601     24605     24607     24602     24601     24605     24608
     24603     24601     24605     24606     24603     24601     24605     24607
     24603     24601     24605     24608     24604     24601     24605     24606
     24604     24601     24605     24607     24604     24601     24605     24608
     24605     24608     24615     24611     24606     24605     24608     24609
     24606     24605     24608     24610     24606     24605     24608     24615
     24607     24605     24608     24609     24607     24605     24608     24610
     24607     24605     24608     24615     24608     24615     24611     24612
     24608     24615     24611     24613     24608     24615     24611     24614
     24609     24608     24615     24611     24610     24608     24615     24611
     24611     24614     24616     24617     24611     24614     24616     24618
     24611     24614     24616     24619     24612     24611     24614     24616
     24613     24611     24614     24616     24614     24616     24619     24620
     24614     24616     24619     24621     24614     24616     24619     24627
     24615     24611     24614     24616     24616     24619     24621     24622
     24616     24619     24627     24628     24616     24619     24627     24629
     24616     24619     24627     24630     24617     24616     24619     24620
     24617     24616     24619     24621     24617     24616     24619     24627
     24618     24616     24619     24620     24618     24616     24619     24621
     24618     24616     24619     24627     24619     24621     24622     24623
     24619     24621     24622     24624     24619     24627     24630     24631
     24620     24619     24621     24622     24620     24619     24627     24628
     24620     24619     24627     24629     24620     24619     24627     24630
     24621     24619     24627     24628     24621     24619     24627     24629
     24621     24619     24627     24630     24621     24622     24624     24625
     24621     24622     24624     24626     24621     24622     24624     24636
     24622     24621     24619     24627     24622     24624     24636     24637
     24622     24624     24636     24638     24622     24624     24636     24639
     24623     24622     24624     24625     24623     24622     24624     24626
     24623     24622     24624     24636     24624     24636     24639     24640
     24624     24636     24639     24641     24624     24636     24639     24642
     24625     24624     24636     24637     24625     24624     24636     24638
     24625     24624     24636     24639     24626     24624     24636     24637
     24626     24624     24636     24638     24626     24624     24636     24639
     24627     24630     24631     24632     24627     24630     24631     24633
     24628     24627     24630     24631     24629     24627     24630     24631
     24630     24631     24633     24634     24630     24631     24633     24635
     24630     24631     24633     24683     24631     24633     24683     24684
     24631     24633     24683     24685     24631     24633     24683     24686
     24632     24631     24633     24634     24632     24631     24633     24635
     24632     24631     24633     24683     24633     24683     24686     24687
     24633     24683     24686     24688     24633     24683     24686     24689
     24634     24633     24683     24684     24634     24633     24683     24685
     24634     24633     24683     24686     24635     24633     24683     24684
     24635     24633     24683     24685     24635     24633     24683     24686
     24636     24639     24642     24643     24636     24639     24642     24644
     24636     24639     24642     24645     24637     24636     24639     24640
     24637     24636     24639     24641     24637     24636     24639     24642
     24638     24636     24639     24640     24638     24636     24639     24641
     24638     24636     24639     24642     24639     24642     24645     24646
     24639     24642     24645     24647     24639     24642     24645     24648
     24640     24639     24642     24643     24640     24639     24642     24644
     24640     24639     24642     24645     24641     24639     24642     24643
     24641     24639     24642     24644     24641     24639     24642     24645
     24642     24645     24648     24649     24642     24645     24648     24650
     24642     24645     24648     24651     24643     24642     24645     24646
     24643     24642     24645     24647     24643     24642     24645     24648
     24644     24642     24645     24646     24644     24642     24645     24647
     24644     24642     24645     24648     24645     24648     24651     24652
     24645     24648     24651     24653     24645     24648     24651     24654
     24646     24645     24648     24649     24646     24645     24648     24650
     24646     24645     24648     24651     24647     24645     24648     24649
     24647     24645     24648     24650     24647     24645     24648     24651
     24648     24651     24654     24655     24648     24651     24654     24656
     24649     24648     24651     24652     24649     24648     24651     24653
     24649     24648     24651     24654     24650     24648     24651     24652
     24650     24648     24651     24653     24650     24648     24651     24654
     24651     24654     24656     24657     24651     24654     24656     24658
     24652     24651     24654     24655     24652     24651     24654     24656
     24653     24651     24654     24655     24653     24651     24654     24656
     24654     24656     24658     24659     24654     24656     24658     24660
     24654     24656     24658     24661     24655     24654     24656     24657
     24655     24654     24656     24658     24656     24658     24661     24662
     24656     24658     24661     24663     24656     24658     24661     24664
     24657     24656     24658     24659     24657     24656     24658     24660
     24657     24656     24658     24661     24658     24661     24664     24665
     24658     24661     24664     24666     24658     24661     24664     24667
     24659     24658     24661     24662     24659     24658     24661     24663
     24659     24658     24661     24664     24660     24658     24661     24662
     24660     24658     24661     24663     24660     24658     24661     24664
     24661     24664     24667     24668     24661     24664     24667     24669
     24661     24664     24667     24670     24662     24661     24664     24665
     24662     24661     24664     24666     24662     24661     24664     24667
     24663     24661     24664     24665     24663     24661     24664     24666
     24663     24661     24664     24667     24664     24667     24670     24671
     24664     24667     24670     24672     24664     24667     24670     24673
     24665     24664     24667     24668     24665     24664     24667     24669
     24665     24664     24667     24670     24666     24664     24667     24668
     24666     24664     24667     24669     24666     24664     24667     24670
     24667     24670     24673     24674     24667     24670     24673     24675
     24667     24670     24673     24676     24668     24667     24670     24671
     24668     24667     24670     24672     24668     24667     24670     24673
     24669     24667     24670     24671     24669     24667     24670     24672
     24669     24667     24670     24673     24670     24673     24676     24677
     24670     24673     24676     24678     24670     24673     24676     24679
     24671     24670     24673     24674     24671     24670     24673     24675
     24671     24670     24673     24676     24672     24670     24673     24674
     24672     24670     24673     24675     24672     24670     24673     24676
     24673     24676     24679     24680     24673     24676     24679     24681
     24673     24676     24679     24682     24674     24673     24676     24677
     24674     24673     24676     24678     24674     24673     24676     24679
     24675     24673     24676     24677     24675     24673     24676     24678
     24675     24673     24676     24679     24677     24676     24679     24680
     24677     24676     24679     24681     24677     24676     24679     24682
     24678     24676     24679     24680     24678     24676     24679     24681
     24678     24676     24679     24682     24683     24686     24689     24690
     24683     24686     24689     24691     24683     24686     24689     24692
     24684     24683     24686     24687     24684     24683     24686     24688
     24684     24683     24686     24689     24685     24683     24686     24687
     24685     24683     24686     24688     24685     24683     24686     24689
     24686     24689     24692     24693     24686     24689     24692     24694
     24686     24689     24692     24695     24687     24686     24689     24690
     24687     24686     24689     24691     24687     24686     24689     24692
     24688     24686     24689     24690     24688     24686     24689     24691
     24688     24686     24689     24692     24689     24692     24695     24696
     24689     24692     24695     24697     24689     24692     24695     24698
     24690     24689     24692     24693     24690     24689     24692     24694
     24690     24689     24692     24695     24691     24689     24692     24693
     24691     24689     24692     24694     24691     24689     24692     24695
     24692     24695     24698     24699     24692     24695     24698     24700
     24692     24695     24698     24701     24693     24692     24695     24696
     24693     24692     24695     24697     24693     24692     24695     24698
     24694     24692     24695     24696     24694     24692     24695     24697
     24694     24692     24695     24698     24695     24698     24701     24702
     24695     24698     24701     24703     24695     24698     24701     24704
     24696     24695     24698     24699     24696     24695     24698     24700
     24696     24695     24698     24701     24697     24695     24698     24699
     24697     24695     24698     24700     24697     24695     24698     24701
     24698     24701     24704     24705     24698     24701     24704     24706
     24698     24701     24704     24707     24699     24698     24701     24702
     24699     24698     24701     24703     24699     24698     24701     24704
     24700     24698     24701     24702     24700     24698     24701     24703
     24700     24698     24701     24704     24701     24704     24707     24708
     24701     24704     24707     24709     24701     24704     24707     24710
     24702     24701     24704     24705     24702     24701     24704     24706
     24702     24701     24704     24707     24703     24701     24704     24705
     24703     24701     24704     24706     24703     24701     24704     24707
     24704     24707     24710     24711     24704     24707     24710     24712
     24704     24707     24710     24713     24705     24704     24707     24708
     24705     24704     24707     24709     24705     24704     24707     24710
     24706     24704     24707     24708     24706     24704     24707     24709
     24706     24704     24707     24710     24707     24710     24713     24714
     24707     24710     24713     24715     24707     24710     24713     24716
     24708     24707     24710     24711     24708     24707     24710     24712
     24708     24707     24710     24713     24709     24707     24710     24711
     24709     24707     24710     24712     24709     24707     24710     24713
     24710     24713     24716     24717     24710     24713     24716     24718
     24710     24713     24716     24719     24711     24710     24713     24714
     24711     24710     24713     24715     24711     24710     24713     24716
     24712     24710     24713     24714     24712     24710     24713     24715
     24712     24710     24713     24716     24713     24716     24719     24720
     24713     24716     24719     24721     24713     24716     24719     24722
     24714     24713     24716     24717     24714     24713     24716     24718
     24714     24713     24716     24719     24715     24713     24716     24717
     24715     24713     24716     24718     24715     24713     24716     24719
     24716     24719     24722     24723     24716     24719     24722     24724
     24716     24719     24722     24725     24717     24716     24719     24720
     24717     24716     24719     24721     24717     24716     24719     24722
     24718     24716     24719     24720     24718     24716     24719     24721
     24718     24716     24719     24722     24720     24719     24722     24723
     24720     24719     24722     24724     24720     24719     24722     24725
     24721     24719     24722     24723     24721     24719     24722     24724
     24721     24719     24722     24725     24726     24730     24733     24734
     24726     24730     24733     24735     24726     24730     24733     24740
     24727     24726     24730     24731     24727     24726     24730     24732
     24727     24726     24730     24733     24728     24726     24730     24731
     24728     24726     24730     24732     24728     24726     24730     24733
     24729     24726     24730     24731     24729     24726     24730     24732
     24729     24726     24730     24733     24730     24733     24740     24736
     24731     24730     24733     24734     24731     24730     24733     24735
     24731     24730     24733     24740     24732     24730     24733     24734
     24732     24730     24733     24735     24732     24730     24733     24740
     24733     24740     24736     24737     24733     24740     24736     24738
     24733     24740     24736     24739     24734     24733     24740     24736
     24735     24733     24740     24736     24736     24739     24741     24742
     24736     24739     24741     24743     24736     24739     24741     24744
     24737     24736     24739     24741     24738     24736     24739     24741
     24739     24741     24744     24745     24739     24741     24744     24746
     24739     24741     24744     24752     24740     24736     24739     24741
     24741     24744     24746     24747     24741     24744     24752     24753
     24741     24744     24752     24754     24741     24744     24752     24755
     24742     24741     24744     24745     24742     24741     24744     24746
     24742     24741     24744     24752     24743     24741     24744     24745
     24743     24741     24744     24746     24743     24741     24744     24752
     24744     24746     24747     24748     24744     24746     24747     24749
     24744     24752     24755     24756     24745     24744     24746     24747
     24745     24744     24752     24753     24745     24744     24752     24754
     24745     24744     24752     24755     24746     24744     24752     24753
     24746     24744     24752     24754     24746     24744     24752     24755
     24746     24747     24749     24750     24746     24747     24749     24751
     24746     24747     24749     24761     24747     24746     24744     24752
     24747     24749     24761     24762     24747     24749     24761     24763
     24747     24749     24761     24764     24748     24747     24749     24750
     24748     24747     24749     24751     24748     24747     24749     24761
     24749     24761     24764     24765     24749     24761     24764     24766
     24749     24761     24764     24767     24750     24749     24761     24762
     24750     24749     24761     24763     24750     24749     24761     24764
     24751     24749     24761     24762     24751     24749     24761     24763
     24751     24749     24761     24764     24752     24755     24756     24757
     24752     24755     24756     24758     24753     24752     24755     24756
     24754     24752     24755     24756     24755     24756     24758     24759
     24755     24756     24758     24760     24755     24756     24758     24808
     24756     24758     24808     24809     24756     24758     24808     24810
     24756     24758     24808     24811     24757     24756     24758     24759
     24757     24756     24758     24760     24757     24756     24758     24808
     24758     24808     24811     24812     24758     24808     24811     24813
     24758     24808     24811     24814     24759     24758     24808     24809
     24759     24758     24808     24810     24759     24758     24808     24811
     24760     24758     24808     24809     24760     24758     24808     24810
     24760     24758     24808     24811     24761     24764     24767     24768
     24761     24764     24767     24769     24761     24764     24767     24770
     24762     24761     24764     24765     24762     24761     24764     24766
     24762     24761     24764     24767     24763     24761     24764     24765
     24763     24761     24764     24766     24763     24761     24764     24767
     24764     24767     24770     24771     24764     24767     24770     24772
     24764     24767     24770     24773     24765     24764     24767     24768
     24765     24764     24767     24769     24765     24764     24767     24770
     24766     24764     24767     24768     24766     24764     24767     24769
     24766     24764     24767     24770     24767     24770     24773     24774
     24767     24770     24773     24775     24767     24770     24773     24776
     24768     24767     24770     24771     24768     24767     24770     24772
     24768     24767     24770     24773     24769     24767     24770     24771
     24769     24767     24770     24772     24769     24767     24770     24773
     24770     24773     24776     24777     24770     24773     24776     24778
     24770     24773     24776     24779     24771     24770     24773     24774
     24771     24770     24773     24775     24771     24770     24773     24776
     24772     24770     24773     24774     24772     24770     24773     24775
     24772     24770     24773     24776     24773     24776     24779     24780
     24773     24776     24779     24781     24774     24773     24776     24777
     24774     24773     24776     24778     24774     24773     24776     24779
     24775     24773     24776     24777     24775     24773     24776     24778
     24775     24773     24776     24779     24776     24779     24781     24782
     24776     24779     24781     24783     24777     24776     24779     24780
     24777     24776     24779     24781     24778     24776     24779     24780
     24778     24776     24779     24781     24779     24781     24783     24784
     24779     24781     24783     24785     24779     24781     24783     24786
     24780     24779     24781     24782     24780     24779     24781     24783
     24781     24783     24786     24787     24781     24783     24786     24788
     24781     24783     24786     24789     24782     24781     24783     24784
     24782     24781     24783     24785     24782     24781     24783     24786
     24783     24786     24789     24790     24783     24786     24789     24791
     24783     24786     24789     24792     24784     24783     24786     24787
     24784     24783     24786     24788     24784     24783     24786     24789
     24785     24783     24786     24787     24785     24783     24786     24788
     24785     24783     24786     24789     24786     24789     24792     24793
     24786     24789     24792     24794     24786     24789     24792     24795
     24787     24786     24789     24790     24787     24786     24789     24791
     24787     24786     24789     24792     24788     24786     24789     24790
     24788     24786     24789     24791     24788     24786     24789     24792
     24789     24792     24795     24796     24789     24792     24795     24797
     24789     24792     24795     24798     24790     24789     24792     24793
     24790     24789     24792     24794     24790     24789     24792     24795
     24791     24789     24792     24793     24791     24789     24792     24794
     24791     24789     24792     24795     24792     24795     24798     24799
     24792     24795     24798     24800     24792     24795     24798     24801
     24793     24792     24795     24796     24793     24792     24795     24797
     24793     24792     24795     24798     24794     24792     24795     24796
     24794     24792     24795     24797     24794     24792     24795     24798
     24795     24798     24801     24802     24795     24798     24801     24803
     24795     24798     24801     24804     24796     24795     24798     24799
     24796     24795     24798     24800     24796     24795     24798     24801
     24797     24795     24798     24799     24797     24795     24798     24800
     24797     24795     24798     24801     24798     24801     24804     24805
     24798     24801     24804     24806     24798     24801     24804     24807
     24799     24798     24801     24802     24799     24798     24801     24803
     24799     24798     24801     24804     24800     24798     24801     24802
     24800     24798     24801     24803     24800     24798     24801     24804
     24802     24801     24804     24805     24802     24801     24804     24806
     24802     24801     24804     24807     24803     24801     24804     24805
     24803     24801     24804     24806     24803     24801     24804     24807
     24808     24811     24814     24815     24808     24811     24814     24816
     24808     24811     24814     24817     24809     24808     24811     24812
     24809     24808     24811     24813     24809     24808     24811     24814
     24810     24808     24811     24812     24810     24808     24811     24813
     24810     24808     24811     24814     24811     24814     24817     24818
     24811     24814     24817     24819     24811     24814     24817     24820
     24812     24811     24814     24815     24812     24811     24814     24816
     24812     24811     24814     24817     24813     24811     24814     24815
     24813     24811     24814     24816     24813     24811     24814     24817
     24814     24817     24820     24821     24814     24817     24820     24822
     24814     24817     24820     24823     24815     24814     24817     24818
     24815     24814     24817     24819     24815     24814     24817     24820
     24816     24814     24817     24818     24816     24814     24817     24819
     24816     24814     24817     24820     24817     24820     24823     24824
     24817     24820     24823     24825     24817     24820     24823     24826
     24818     24817     24820     24821     24818     24817     24820     24822
     24818     24817     24820     24823     24819     24817     24820     24821
     24819     24817     24820     24822     24819     24817     24820     24823
     24820     24823     24826     24827     24820     24823     24826     24828
     24820     24823     24826     24829     24821     24820     24823     24824
     24821     24820     24823     24825     24821     24820     24823     24826
     24822     24820     24823     24824     24822     24820     24823     24825
     24822     24820     24823     24826     24823     24826     24829     24830
     24823     24826     24829     24831     24823     24826     24829     24832
     24824     24823     24826     24827     24824     24823     24826     24828
     24824     24823     24826     24829     24825     24823     24826     24827
     24825     24823     24826     24828     24825     24823     24826     24829
     24826     24829     24832     24833     24826     24829     24832     24834
     24826     24829     24832     24835     24827     24826     24829     24830
     24827     24826     24829     24831     24827     24826     24829     24832
     24828     24826     24829     24830     24828     24826     24829     24831
     24828     24826     24829     24832     24829     24832     24835     24836
     24829     24832     24835     24837     24829     24832     24835     24838
     24830     24829     24832     24833     24830     24829     24832     24834
     24830     24829     24832     24835     24831     24829     24832     24833
     24831     24829     24832     24834     24831     24829     24832     24835
     24832     24835     24838     24839     24832     24835     24838     24840
     24832     24835     24838     24841     24833     24832     24835     24836
     24833     24832     24835     24837     24833     24832     24835     24838
     24834     24832     24835     24836     24834     24832     24835     24837
     24834     24832     24835     24838     24835     24838     24841     24842
     24835     24838     24841     24843     24835     24838     24841     24844
     24836     24835     24838     24839     24836     24835     24838     24840
     24836     24835     24838     24841     24837     24835     24838     24839
     24837     24835     24838     24840     24837     24835     24838     24841
     24838     24841     24844     24845     24838     24841     24844     24846
     24838     24841     24844     24847     24839     24838     24841     24842
     24839     24838     24841     24843     24839     24838     24841     24844
     24840     24838     24841     24842     24840     24838     24841     24843
     24840     24838     24841     24844     24841     24844     24847     24848
     24841     24844     24847     24849     24841     24844     24847     24850
     24842     24841     24844     24845     24842     24841     24844     24846
     24842     24841     24844     24847     24843     24841     24844     24845
     24843     24841     24844     24846     24843     24841     24844     24847
     24845     24844     24847     24848     24845     24844     24847     24849
     24845     24844     24847     24850     24846     24844     24847     24848
     24846     24844     24847     24849     24846     24844     24847     24850
     24851     24852     24867     24868     24851     24852     24867     24869
     24851     24852     24867     24873     24852     24851     24855     24856
     24852     24851     24855     24857     24852     24851     24855     24858
     24852     24851     24859     24860     24852     24851     24859     24861
     24852     24851     24859     24862     24852     24851     24863     24864
     24852     24851     24863     24865     24852     24851     24863     24866
     24852     24867     24873     24870     24853     24852     24851     24855
     24853     24852     24851     24859     24853     24852     24851     24863
     24853     24852     24867     24868     24853     24852     24867     24869
     24853     24852     24867     24873     24854     24852     24851     24855
     24854     24852     24851     24859     24854     24852     24851     24863
     24854     24852     24867     24868     24854     24852     24867     24869
     24854     24852     24867     24873     24855     24851     24852     24867
     24855     24851     24859     24860     24855     24851     24859     24861
     24855     24851     24859     24862     24855     24851     24863     24864
     24855     24851     24863     24865     24855     24851     24863     24866
     24856     24855     24851     24859     24856     24855     24851     24863
     24857     24855     24851     24859     24857     24855     24851     24863
     24858     24855     24851     24859     24858     24855     24851     24863
     24859     24851     24852     24867     24859     24851     24863     24864
     24859     24851     24863     24865     24859     24851     24863     24866
     24860     24859     24851     24863     24861     24859     24851     24863
     24862     24859     24851     24863     24863     24851     24852     24867
     24867     24873     24870     24871     24867     24873     24870     24872
     24867     24873     24870     24874     24868     24867     24873     24870
     24869     24867     24873     24870     24870     24874     24875     24876
     24870     24874     24875     24877     24870     24874     24875     24878
     24871     24870     24874     24875     24872     24870     24874     24875
     24873     24870     24874     24875     24874     24875     24878     24879
     24874     24875     24878     24880     24874     24875     24878     24886
     24875     24878     24880     24881     24875     24878     24886     24887
     24875     24878     24886     24888     24875     24878     24886     24889
     24876     24875     24878     24879     24876     24875     24878     24880
     24876     24875     24878     24886     24877     24875     24878     24879
     24877     24875     24878     24880     24877     24875     24878     24886
     24878     24880     24881     24882     24878     24880     24881     24883
     24878     24886     24889     24890     24879     24878     24880     24881
     24879     24878     24886     24887     24879     24878     24886     24888
     24879     24878     24886     24889     24880     24878     24886     24887
     24880     24878     24886     24888     24880     24878     24886     24889
     24880     24881     24883     24884     24880     24881     24883     24885
     24880     24881     24883     24895     24881     24880     24878     24886
     24881     24883     24895     24896     24881     24883     24895     24897
     24881     24883     24895     24898     24882     24881     24883     24884
     24882     24881     24883     24885     24882     24881     24883     24895
     24883     24895     24898     24899     24883     24895     24898     24900
     24883     24895     24898     24901     24884     24883     24895     24896
     24884     24883     24895     24897     24884     24883     24895     24898
     24885     24883     24895     24896     24885     24883     24895     24897
     24885     24883     24895     24898     24886     24889     24890     24891
     24886     24889     24890     24892     24887     24886     24889     24890
     24888     24886     24889     24890     24889     24890     24892     24893
     24889     24890     24892     24894     24889     24890     24892     24942
     24890     24892     24942     24943     24890     24892     24942     24944
     24890     24892     24942     24945     24891     24890     24892     24893
     24891     24890     24892     24894     24891     24890     24892     24942
     24892     24942     24945     24946     24892     24942     24945     24947
     24892     24942     24945     24948     24893     24892     24942     24943
     24893     24892     24942     24944     24893     24892     24942     24945
     24894     24892     24942     24943     24894     24892     24942     24944
     24894     24892     24942     24945     24895     24898     24901     24902
     24895     24898     24901     24903     24895     24898     24901     24904
     24896     24895     24898     24899     24896     24895     24898     24900
     24896     24895     24898     24901     24897     24895     24898     24899
     24897     24895     24898     24900     24897     24895     24898     24901
     24898     24901     24904     24905     24898     24901     24904     24906
     24898     24901     24904     24907     24899     24898     24901     24902
     24899     24898     24901     24903     24899     24898     24901     24904
     24900     24898     24901     24902     24900     24898     24901     24903
     24900     24898     24901     24904     24901     24904     24907     24908
     24901     24904     24907     24909     24901     24904     24907     24910
     24902     24901     24904     24905     24902     24901     24904     24906
     24902     24901     24904     24907     24903     24901     24904     24905
     24903     24901     24904     24906     24903     24901     24904     24907
     24904     24907     24910     24911     24904     24907     24910     24912
     24904     24907     24910     24913     24905     24904     24907     24908
     24905     24904     24907     24909     24905     24904     24907     24910
     24906     24904     24907     24908     24906     24904     24907     24909
     24906     24904     24907     24910     24907     24910     24913     24914
     24907     24910     24913     24915     24908     24907     24910     24911
     24908     24907     24910     24912     24908     24907     24910     24913
     24909     24907     24910     24911     24909     24907     24910     24912
     24909     24907     24910     24913     24910     24913     24915     24916
     24910     24913     24915     24917     24911     24910     24913     24914
     24911     24910     24913     24915     24912     24910     24913     24914
     24912     24910     24913     24915     24913     24915     24917     24918
     24913     24915     24917     24919     24913     24915     24917     24920
     24914     24913     24915     24916     24914     24913     24915     24917
     24915     24917     24920     24921     24915     24917     24920     24922
     24915     24917     24920     24923     24916     24915     24917     24918
     24916     24915     24917     24919     24916     24915     24917     24920
     24917     24920     24923     24924     24917     24920     24923     24925
     24917     24920     24923     24926     24918     24917     24920     24921
     24918     24917     24920     24922     24918     24917     24920     24923
     24919     24917     24920     24921     24919     24917     24920     24922
     24919     24917     24920     24923     24920     24923     24926     24927
     24920     24923     24926     24928     24920     24923     24926     24929
     24921     24920     24923     24924     24921     24920     24923     24925
     24921     24920     24923     24926     24922     24920     24923     24924
     24922     24920     24923     24925     24922     24920     24923     24926
     24923     24926     24929     24930     24923     24926     24929     24931
     24923     24926     24929     24932     24924     24923     24926     24927
     24924     24923     24926     24928     24924     24923     24926     24929
     24925     24923     24926     24927     24925     24923     24926     24928
     24925     24923     24926     24929     24926     24929     24932     24933
     24926     24929     24932     24934     24926     24929     24932     24935
     24927     24926     24929     24930     24927     24926     24929     24931
     24927     24926     24929     24932     24928     24926     24929     24930
     24928     24926     24929     24931     24928     24926     24929     24932
     24929     24932     24935     24936     24929     24932     24935     24937
     24929     24932     24935     24938     24930     24929     24932     24933
     24930     24929     24932     24934     24930     24929     24932     24935
     24931     24929     24932     24933     24931     24929     24932     24934
     24931     24929     24932     24935     24932     24935     24938     24939
     24932     24935     24938     24940     24932     24935     24938     24941
     24933     24932     24935     24936     24933     24932     24935     24937
     24933     24932     24935     24938     24934     24932     24935     24936
     24934     24932     24935     24937     24934     24932     24935     24938
     24936     24935     24938     24939     24936     24935     24938     24940
     24936     24935     24938     24941     24937     24935     24938     24939
     24937     24935     24938     24940     24937     24935     24938     24941
     24942     24945     24948     24949     24942     24945     24948     24950
     24942     24945     24948     24951     24943     24942     24945     24946
     24943     24942     24945     24947     24943     24942     24945     24948
     24944     24942     24945     24946     24944     24942     24945     24947
     24944     24942     24945     24948     24945     24948     24951     24952
     24945     24948     24951     24953     24945     24948     24951     24954
     24946     24945     24948     24949     24946     24945     24948     24950
     24946     24945     24948     24951     24947     24945     24948     24949
     24947     24945     24948     24950     24947     24945     24948     24951
     24948     24951     24954     24955     24948     24951     24954     24956
     24948     24951     24954     24957     24949     24948     24951     24952
     24949     24948     24951     24953     24949     24948     24951     24954
     24950     24948     24951     24952     24950     24948     24951     24953
     24950     24948     24951     24954     24951     24954     24957     24958
     24951     24954     24957     24959     24951     24954     24957     24960
     24952     24951     24954     24955     24952     24951     24954     24956
     24952     24951     24954     24957     24953     24951     24954     24955
     24953     24951     24954     24956     24953     24951     24954     24957
     24954     24957     24960     24961     24954     24957     24960     24962
     24954     24957     24960     24963     24955     24954     24957     24958
     24955     24954     24957     24959     24955     24954     24957     24960
     24956     24954     24957     24958     24956     24954     24957     24959
     24956     24954     24957     24960     24957     24960     24963     24964
     24957     24960     24963     24965     24957     24960     24963     24966
     24958     24957     24960     24961     24958     24957     24960     24962
     24958     24957     24960     24963     24959     24957     24960     24961
     24959     24957     24960     24962     24959     24957     24960     24963
     24960     24963     24966     24967     24960     24963     24966     24968
     24960     24963     24966     24969     24961     24960     24963     24964
     24961     24960     24963     24965     24961     24960     24963     24966
     24962     24960     24963     24964     24962     24960     24963     24965
     24962     24960     24963     24966     24963     24966     24969     24970
     24963     24966     24969     24971     24963     24966     24969     24972
     24964     24963     24966     24967     24964     24963     24966     24968
     24964     24963     24966     24969     24965     24963     24966     24967
     24965     24963     24966     24968     24965     24963     24966     24969
     24966     24969     24972     24973     24966     24969     24972     24974
     24966     24969     24972     24975     24967     24966     24969     24970
     24967     24966     24969     24971     24967     24966     24969     24972
     24968     24966     24969     24970     24968     24966     24969     24971
     24968     24966     24969     24972     24969     24972     24975     24976
     24969     24972     24975     24977     24969     24972     24975     24978
     24970     24969     24972     24973     24970     24969     24972     24974
     24970     24969     24972     24975     24971     24969     24972     24973
     24971     24969     24972     24974     24971     24969     24972     24975
     24972     24975     24978     24979     24972     24975     24978     24980
     24972     24975     24978     24981     24973     24972     24975     24976
     24973     24972     24975     24977     24973     24972     24975     24978
     24974     24972     24975     24976     24974     24972     24975     24977
     24974     24972     24975     24978     24975     24978     24981     24982
     24975     24978     24981     24983     24975     24978     24981     24984
     24976     24975     24978     24979     24976     24975     24978     24980
     24976     24975     24978     24981     24977     24975     24978     24979
     24977     24975     24978     24980     24977     24975     24978     24981
     24979     24978     24981     24982     24979     24978     24981     24983
     24979     24978     24981     24984     24980     24978     24981     24982
     24980     24978     24981     24983     24980     24978     24981     24984
     24985     24986     25001     25002     24985     24986     25001     25003
     24985     24986     25001     25007     24986     24985     24989     24990
     24986     24985     24989     24991     24986     24985     24989     24992
     24986     24985     24993     24994     24986     24985     24993     24995
     24986     24985     24993     24996     24986     24985     24997     24998
     24986     24985     24997     24999     24986     24985     24997     25000
     24986     25001     25007     25004     24987     24986     24985     24989
     24987     24986     24985     24993     24987     24986     24985     24997
     24987     24986     25001     25002     24987     24986     25001     25003
     24987     24986     25001     25007     24988     24986     24985     24989
     24988     24986     24985     24993     24988     24986     24985     24997
     24988     24986     25001     25002     24988     24986     25001     25003
     24988     24986     25001     25007     24989     24985     24986     25001
     24989     24985     24993     24994     24989     24985     24993     24995
     24989     24985     24993     24996     24989     24985     24997     24998
     24989     24985     24997     24999     24989     24985     24997     25000
     24990     24989     24985     24993     24990     24989     24985     24997
     24991     24989     24985     24993     24991     24989     24985     24997
     24992     24989     24985     24993     24992     24989     24985     24997
     24993     24985     24986     25001     24993     24985     24997     24998
     24993     24985     24997     24999     24993     24985     24997     25000
     24994     24993     24985     24997     24995     24993     24985     24997
     24996     24993     24985     24997     24997     24985     24986     25001
     25001     25007     25004     25005     25001     25007     25004     25006
     25001     25007     25004     25008     25002     25001     25007     25004
     25003     25001     25007     25004     25004     25008     25009     25010
     25004     25008     25009     25011     25004     25008     25009     25012
     25005     25004     25008     25009     25006     25004     25008     25009
     25007     25004     25008     25009     25008     25009     25012     25013
     25008     25009     25012     25014     25008     25009     25012     25020
     25009     25012     25014     25015     25009     25012     25020     25021
     25009     25012     25020     25022     25009     25012     25020     25023
     25010     25009     25012     25013     25010     25009     25012     25014
     25010     25009     25012     25020     25011     25009     25012     25013
     25011     25009     25012     25014     25011     25009     25012     25020
     25012     25014     25015     25016     25012     25014     25015     25017
     25012     25020     25023     25024     25013     25012     25014     25015
     25013     25012     25020     25021     25013     25012     25020     25022
     25013     25012     25020     25023     25014     25012     25020     25021
     25014     25012     25020     25022     25014     25012     25020     25023
     25014     25015     25017     25018     25014     25015     25017     25019
     25014     25015     25017     25029     25015     25014     25012     25020
     25015     25017     25029     25030     25015     25017     25029     25031
     25015     25017     25029     25032     25016     25015     25017     25018
     25016     25015     25017     25019     25016     25015     25017     25029
     25017     25029     25032     25033     25017     25029     25032     25034
     25017     25029     25032     25035     25018     25017     25029     25030
     25018     25017     25029     25031     25018     25017     25029     25032
     25019     25017     25029     25030     25019     25017     25029     25031
     25019     25017     25029     25032     25020     25023     25024     25025
     25020     25023     25024     25026     25021     25020     25023     25024
     25022     25020     25023     25024     25023     25024     25026     25027
     25023     25024     25026     25028     25023     25024     25026     25076
     25024     25026     25076     25077     25024     25026     25076     25078
     25024     25026     25076     25079     25025     25024     25026     25027
     25025     25024     25026     25028     25025     25024     25026     25076
     25026     25076     25079     25080     25026     25076     25079     25081
     25026     25076     25079     25082     25027     25026     25076     25077
     25027     25026     25076     25078     25027     25026     25076     25079
     25028     25026     25076     25077     25028     25026     25076     25078
     25028     25026     25076     25079     25029     25032     25035     25036
     25029     25032     25035     25037     25029     25032     25035     25038
     25030     25029     25032     25033     25030     25029     25032     25034
     25030     25029     25032     25035     25031     25029     25032     25033
     25031     25029     25032     25034     25031     25029     25032     25035
     25032     25035     25038     25039     25032     25035     25038     25040
     25032     25035     25038     25041     25033     25032     25035     25036
     25033     25032     25035     25037     25033     25032     25035     25038
     25034     25032     25035     25036     25034     25032     25035     25037
     25034     25032     25035     25038     25035     25038     25041     25042
     25035     25038     25041     25043     25035     25038     25041     25044
     25036     25035     25038     25039     25036     25035     25038     25040
     25036     25035     25038     25041     25037     25035     25038     25039
     25037     25035     25038     25040     25037     25035     25038     25041
     25038     25041     25044     25045     25038     25041     25044     25046
     25038     25041     25044     25047     25039     25038     25041     25042
     25039     25038     25041     25043     25039     25038     25041     25044
     25040     25038     25041     25042     25040     25038     25041     25043
     25040     25038     25041     25044     25041     25044     25047     25048
     25041     25044     25047     25049     25042     25041     25044     25045
     25042     25041     25044     25046     25042     25041     25044     25047
     25043     25041     25044     25045     25043     25041     25044     25046
     25043     25041     25044     25047     25044     25047     25049     25050
     25044     25047     25049     25051     25045     25044     25047     25048
     25045     25044     25047     25049     25046     25044     25047     25048
     25046     25044     25047     25049     25047     25049     25051     25052
     25047     25049     25051     25053     25047     25049     25051     25054
     25048     25047     25049     25050     25048     25047     25049     25051
     25049     25051     25054     25055     25049     25051     25054     25056
     25049     25051     25054     25057     25050     25049     25051     25052
     25050     25049     25051     25053     25050     25049     25051     25054
     25051     25054     25057     25058     25051     25054     25057     25059
     25051     25054     25057     25060     25052     25051     25054     25055
     25052     25051     25054     25056     25052     25051     25054     25057
     25053     25051     25054     25055     25053     25051     25054     25056
     25053     25051     25054     25057     25054     25057     25060     25061
     25054     25057     25060     25062     25054     25057     25060     25063
     25055     25054     25057     25058     25055     25054     25057     25059
     25055     25054     25057     25060     25056     25054     25057     25058
     25056     25054     25057     25059     25056     25054     25057     25060
     25057     25060     25063     25064     25057     25060     25063     25065
     25057     25060     25063     25066     25058     25057     25060     25061
     25058     25057     25060     25062     25058     25057     25060     25063
     25059     25057     25060     25061     25059     25057     25060     25062
     25059     25057     25060     25063     25060     25063     25066     25067
     25060     25063     25066     25068     25060     25063     25066     25069
     25061     25060     25063     25064     25061     25060     25063     25065
     25061     25060     25063     25066     25062     25060     25063     25064
     25062     25060     25063     25065     25062     25060     25063     25066
     25063     25066     25069     25070     25063     25066     25069     25071
     25063     25066     25069     25072     25064     25063     25066     25067
     25064     25063     25066     25068     25064     25063     25066     25069
     25065     25063     25066     25067     25065     25063     25066     25068
     25065     25063     25066     25069     25066     25069     25072     25073
     25066     25069     25072     25074     25066     25069     25072     25075
     25067     25066     25069     25070     25067     25066     25069     25071
     25067     25066     25069     25072     25068     25066     25069     25070
     25068     25066     25069     25071     25068     25066     25069     25072
     25070     25069     25072     25073     25070     25069     25072     25074
     25070     25069     25072     25075     25071     25069     25072     25073
     25071     25069     25072     25074     25071     25069     25072     25075
     25076     25079     25082     25083     25076     25079     25082     25084
     25076     25079     25082     25085     25077     25076     25079     25080
     25077     25076     25079     25081     25077     25076     25079     25082
     25078     25076     25079     25080     25078     25076     25079     25081
     25078     25076     25079     25082     25079     25082     25085     25086
     25079     25082     25085     25087     25079     25082     25085     25088
     25080     25079     25082     25083     25080     25079     25082     25084
     25080     25079     25082     25085     25081     25079     25082     25083
     25081     25079     25082     25084     25081     25079     25082     25085
     25082     25085     25088     25089     25082     25085     25088     25090
     25082     25085     25088     25091     25083     25082     25085     25086
     25083     25082     25085     25087     25083     25082     25085     25088
     25084     25082     25085     25086     25084     25082     25085     25087
     25084     25082     25085     25088     25085     25088     25091     25092
     25085     25088     25091     25093     25085     25088     25091     25094
     25086     25085     25088     25089     25086     25085     25088     25090
     25086     25085     25088     25091     25087     25085     25088     25089
     25087     25085     25088     25090     25087     25085     25088     25091
     25088     25091     25094     25095     25088     25091     25094     25096
     25088     25091     25094     25097     25089     25088     25091     25092
     25089     25088     25091     25093     25089     25088     25091     25094
     25090     25088     25091     25092     25090     25088     25091     25093
     25090     25088     25091     25094     25091     25094     25097     25098
     25091     25094     25097     25099     25091     25094     25097     25100
     25092     25091     25094     25095     25092     25091     25094     25096
     25092     25091     25094     25097     25093     25091     25094     25095
     25093     25091     25094     25096     25093     25091     25094     25097
     25094     25097     25100     25101     25094     25097     25100     25102
     25094     25097     25100     25103     25095     25094     25097     25098
     25095     25094     25097     25099     25095     25094     25097     25100
     25096     25094     25097     25098     25096     25094     25097     25099
     25096     25094     25097     25100     25097     25100     25103     25104
     25097     25100     25103     25105     25097     25100     25103     25106
     25098     25097     25100     25101     25098     25097     25100     25102
     25098     25097     25100     25103     25099     25097     25100     25101
     25099     25097     25100     25102     25099     25097     25100     25103
     25100     25103     25106     25107     25100     25103     25106     25108
     25100     25103     25106     25109     25101     25100     25103     25104
     25101     25100     25103     25105     25101     25100     25103     25106
     25102     25100     25103     25104     25102     25100     25103     25105
     25102     25100     25103     25106     25103     25106     25109     25110
     25103     25106     25109     25111     25103     25106     25109     25112
     25104     25103     25106     25107     25104     25103     25106     25108
     25104     25103     25106     25109     25105     25103     25106     25107
     25105     25103     25106     25108     25105     25103     25106     25109
     25106     25109     25112     25113     25106     25109     25112     25114
     25106     25109     25112     25115     25107     25106     25109     25110
     25107     25106     25109     25111     25107     25106     25109     25112
     25108     25106     25109     25110     25108     25106     25109     25111
     25108     25106     25109     25112     25109     25112     25115     25116
     25109     25112     25115     25117     25109     25112     25115     25118
     25110     25109     25112     25113     25110     25109     25112     25114
     25110     25109     25112     25115     25111     25109     25112     25113
     25111     25109     25112     25114     25111     25109     25112     25115
     25113     25112     25115     25116     25113     25112     25115     25117
     25113     25112     25115     25118     25114     25112     25115     25116
     25114     25112     25115     25117     25114     25112     25115     25118
     25119     25123     25126     25127     25119     25123     25126     25128
     25119     25123     25126     25133     25120     25119     25123     25124
     25120     25119     25123     25125     25120     25119     25123     25126
     25121     25119     25123     25124     25121     25119     25123     25125
     25121     25119     25123     25126     25122     25119     25123     25124
     25122     25119     25123     25125     25122     25119     25123     25126
     25123     25126     25133     25129     25124     25123     25126     25127
     25124     25123     25126     25128     25124     25123     25126     25133
     25125     25123     25126     25127     25125     25123     25126     25128
     25125     25123     25126     25133     25126     25133     25129     25130
     25126     25133     25129     25131     25126     25133     25129     25132
     25127     25126     25133     25129     25128     25126     25133     25129
     25129     25132     25134     25135     25129     25132     25134     25136
     25129     25132     25134     25137     25130     25129     25132     25134
     25131     25129     25132     25134     25132     25134     25137     25138
     25132     25134     25137     25139     25132     25134     25137     25145
     25133     25129     25132     25134     25134     25137     25139     25140
     25134     25137     25145     25146     25134     25137     25145     25147
     25134     25137     25145     25148     25135     25134     25137     25138
     25135     25134     25137     25139     25135     25134     25137     25145
     25136     25134     25137     25138     25136     25134     25137     25139
     25136     25134     25137     25145     25137     25139     25140     25141
     25137     25139     25140     25142     25137     25145     25148     25149
     25138     25137     25139     25140     25138     25137     25145     25146
     25138     25137     25145     25147     25138     25137     25145     25148
     25139     25137     25145     25146     25139     25137     25145     25147
     25139     25137     25145     25148     25139     25140     25142     25143
     25139     25140     25142     25144     25139     25140     25142     25154
     25140     25139     25137     25145     25140     25142     25154     25155
     25140     25142     25154     25156     25140     25142     25154     25157
     25141     25140     25142     25143     25141     25140     25142     25144
     25141     25140     25142     25154     25142     25154     25157     25158
     25142     25154     25157     25159     25142     25154     25157     25160
     25143     25142     25154     25155     25143     25142     25154     25156
     25143     25142     25154     25157     25144     25142     25154     25155
     25144     25142     25154     25156     25144     25142     25154     25157
     25145     25148     25149     25150     25145     25148     25149     25151
     25146     25145     25148     25149     25147     25145     25148     25149
     25148     25149     25151     25152     25148     25149     25151     25153
     25148     25149     25151     25201     25149     25151     25201     25202
     25149     25151     25201     25203     25149     25151     25201     25204
     25150     25149     25151     25152     25150     25149     25151     25153
     25150     25149     25151     25201     25151     25201     25204     25205
     25151     25201     25204     25206     25151     25201     25204     25207
     25152     25151     25201     25202     25152     25151     25201     25203
     25152     25151     25201     25204     25153     25151     25201     25202
     25153     25151     25201     25203     25153     25151     25201     25204
     25154     25157     25160     25161     25154     25157     25160     25162
     25154     25157     25160     25163     25155     25154     25157     25158
     25155     25154     25157     25159     25155     25154     25157     25160
     25156     25154     25157     25158     25156     25154     25157     25159
     25156     25154     25157     25160     25157     25160     25163     25164
     25157     25160     25163     25165     25157     25160     25163     25166
     25158     25157     25160     25161     25158     25157     25160     25162
     25158     25157     25160     25163     25159     25157     25160     25161
     25159     25157     25160     25162     25159     25157     25160     25163
     25160     25163     25166     25167     25160     25163     25166     25168
     25160     25163     25166     25169     25161     25160     25163     25164
     25161     25160     25163     25165     25161     25160     25163     25166
     25162     25160     25163     25164     25162     25160     25163     25165
     25162     25160     25163     25166     25163     25166     25169     25170
     25163     25166     25169     25171     25163     25166     25169     25172
     25164     25163     25166     25167     25164     25163     25166     25168
     25164     25163     25166     25169     25165     25163     25166     25167
     25165     25163     25166     25168     25165     25163     25166     25169
     25166     25169     25172     25173     25166     25169     25172     25174
     25167     25166     25169     25170     25167     25166     25169     25171
     25167     25166     25169     25172     25168     25166     25169     25170
     25168     25166     25169     25171     25168     25166     25169     25172
     25169     25172     25174     25175     25169     25172     25174     25176
     25170     25169     25172     25173     25170     25169     25172     25174
     25171     25169     25172     25173     25171     25169     25172     25174
     25172     25174     25176     25177     25172     25174     25176     25178
     25172     25174     25176     25179     25173     25172     25174     25175
     25173     25172     25174     25176     25174     25176     25179     25180
     25174     25176     25179     25181     25174     25176     25179     25182
     25175     25174     25176     25177     25175     25174     25176     25178
     25175     25174     25176     25179     25176     25179     25182     25183
     25176     25179     25182     25184     25176     25179     25182     25185
     25177     25176     25179     25180     25177     25176     25179     25181
     25177     25176     25179     25182     25178     25176     25179     25180
     25178     25176     25179     25181     25178     25176     25179     25182
     25179     25182     25185     25186     25179     25182     25185     25187
     25179     25182     25185     25188     25180     25179     25182     25183
     25180     25179     25182     25184     25180     25179     25182     25185
     25181     25179     25182     25183     25181     25179     25182     25184
     25181     25179     25182     25185     25182     25185     25188     25189
     25182     25185     25188     25190     25182     25185     25188     25191
     25183     25182     25185     25186     25183     25182     25185     25187
     25183     25182     25185     25188     25184     25182     25185     25186
     25184     25182     25185     25187     25184     25182     25185     25188
     25185     25188     25191     25192     25185     25188     25191     25193
     25185     25188     25191     25194     25186     25185     25188     25189
     25186     25185     25188     25190     25186     25185     25188     25191
     25187     25185     25188     25189     25187     25185     25188     25190
     25187     25185     25188     25191     25188     25191     25194     25195
     25188     25191     25194     25196     25188     25191     25194     25197
     25189     25188     25191     25192     25189     25188     25191     25193
     25189     25188     25191     25194     25190     25188     25191     25192
     25190     25188     25191     25193     25190     25188     25191     25194
     25191     25194     25197     25198     25191     25194     25197     25199
     25191     25194     25197     25200     25192     25191     25194     25195
     25192     25191     25194     25196     25192     25191     25194     25197
     25193     25191     25194     25195     25193     25191     25194     25196
     25193     25191     25194     25197     25195     25194     25197     25198
     25195     25194     25197     25199     25195     25194     25197     25200
     25196     25194     25197     25198     25196     25194     25197     25199
     25196     25194     25197     25200     25201     25204     25207     25208
     25201     25204     25207     25209     25201     25204     25207     25210
     25202     25201     25204     25205     25202     25201     25204     25206
     25202     25201     25204     25207     25203     25201     25204     25205
     25203     25201     25204     25206     25203     25201     25204     25207
     25204     25207     25210     25211     25204     25207     25210     25212
     25204     25207     25210     25213     25205     25204     25207     25208
     25205     25204     25207     25209     25205     25204     25207     25210
     25206     25204     25207     25208     25206     25204     25207     25209
     25206     25204     25207     25210     25207     25210     25213     25214
     25207     25210     25213     25215     25207     25210     25213     25216
     25208     25207     25210     25211     25208     25207     25210     25212
     25208     25207     25210     25213     25209     25207     25210     25211
     25209     25207     25210     25212     25209     25207     25210     25213
     25210     25213     25216     25217     25210     25213     25216     25218
     25210     25213     25216     25219     25211     25210     25213     25214
     25211     25210     25213     25215     25211     25210     25213     25216
     25212     25210     25213     25214     25212     25210     25213     25215
     25212     25210     25213     25216     25213     25216     25219     25220
     25213     25216     25219     25221     25213     25216     25219     25222
     25214     25213     25216     25217     25214     25213     25216     25218
     25214     25213     25216     25219     25215     25213     25216     25217
     25215     25213     25216     25218     25215     25213     25216     25219
     25216     25219     25222     25223     25216     25219     25222     25224
     25216     25219     25222     25225     25217     25216     25219     25220
     25217     25216     25219     25221     25217     25216     25219     25222
     25218     25216     25219     25220     25218     25216     25219     25221
     25218     25216     25219     25222     25219     25222     25225     25226
     25219     25222     25225     25227     25219     25222     25225     25228
     25220     25219     25222     25223     25220     25219     25222     25224
     25220     25219     25222     25225     25221     25219     25222     25223
     25221     25219     25222     25224     25221     25219     25222     25225
     25222     25225     25228     25229     25222     25225     25228     25230
     25222     25225     25228     25231     25223     25222     25225     25226
     25223     25222     25225     25227     25223     25222     25225     25228
     25224     25222     25225     25226     25224     25222     25225     25227
     25224     25222     25225     25228     25225     25228     25231     25232
     25225     25228     25231     25233     25225     25228     25231     25234
     25226     25225     25228     25229     25226     25225     25228     25230
     25226     25225     25228     25231     25227     25225     25228     25229
     25227     25225     25228     25230     25227     25225     25228     25231
     25228     25231     25234     25235     25228     25231     25234     25236
     25228     25231     25234     25237     25229     25228     25231     25232
     25229     25228     25231     25233     25229     25228     25231     25234
     25230     25228     25231     25232     25230     25228     25231     25233
     25230     25228     25231     25234     25231     25234     25237     25238
     25231     25234     25237     25239     25231     25234     25237     25240
     25232     25231     25234     25235     25232     25231     25234     25236
     25232     25231     25234     25237     25233     25231     25234     25235
     25233     25231     25234     25236     25233     25231     25234     25237
     25234     25237     25240     25241     25234     25237     25240     25242
     25234     25237     25240     25243     25235     25234     25237     25238
     25235     25234     25237     25239     25235     25234     25237     25240
     25236     25234     25237     25238     25236     25234     25237     25239
     25236     25234     25237     25240     25238     25237     25240     25241
     25238     25237     25240     25242     25238     25237     25240     25243
     25239     25237     25240     25241     25239     25237     25240     25242
     25239     25237     25240     25243     25244     25245     25260     25261
     25244     25245     25260     25262     25244     25245     25260     25266
     25245     25244     25248     25249     25245     25244     25248     25250
     25245     25244     25248     25251     25245     25244     25252     25253
     25245     25244     25252     25254     25245     25244     25252     25255
     25245     25244     25256     25257     25245     25244     25256     25258
     25245     25244     25256     25259     25245     25260     25266     25263
     25246     25245     25244     25248     25246     25245     25244     25252
     25246     25245     25244     25256     25246     25245     25260     25261
     25246     25245     25260     25262     25246     25245     25260     25266
     25247     25245     25244     25248     25247     25245     25244     25252
     25247     25245     25244     25256     25247     25245     25260     25261
     25247     25245     25260     25262     25247     25245     25260     25266
     25248     25244     25245     25260     25248     25244     25252     25253
     25248     25244     25252     25254     25248     25244     25252     25255
     25248     25244     25256     25257     25248     25244     25256     25258
     25248     25244     25256     25259     25249     25248     25244     25252
     25249     25248     25244     25256     25250     25248     25244     25252
     25250     25248     25244     25256     25251     25248     25244     25252
     25251     25248     25244     25256     25252     25244     25245     25260
     25252     25244     25256     25257     25252     25244     25256     25258
     25252     25244     25256     25259     25253     25252     25244     25256
     25254     25252     25244     25256     25255     25252     25244     25256
     25256     25244     25245     25260     25260     25266     25263     25264
     25260     25266     25263     25265     25260     25266     25263     25267
     25261     25260     25266     25263     25262     25260     25266     25263
     25263     25267     25268     25269     25263     25267     25268     25270
     25263     25267     25268     25271     25264     25263     25267     25268
     25265     25263     25267     25268     25266     25263     25267     25268
     25267     25268     25271     25272     25267     25268     25271     25273
     25267     25268     25271     25279     25268     25271     25273     25274
     25268     25271     25279     25280     25268     25271     25279     25281
     25268     25271     25279     25282     25269     25268     25271     25272
     25269     25268     25271     25273     25269     25268     25271     25279
     25270     25268     25271     25272     25270     25268     25271     25273
     25270     25268     25271     25279     25271     25273     25274     25275
     25271     25273     25274     25276     25271     25279     25282     25283
     25272     25271     25273     25274     25272     25271     25279     25280
     25272     25271     25279     25281     25272     25271     25279     25282
     25273     25271     25279     25280     25273     25271     25279     25281
     25273     25271     25279     25282     25273     25274     25276     25277
     25273     25274     25276     25278     25273     25274     25276     25288
     25274     25273     25271     25279     25274     25276     25288     25289
     25274     25276     25288     25290     25274     25276     25288     25291
     25275     25274     25276     25277     25275     25274     25276     25278
     25275     25274     25276     25288     25276     25288     25291     25292
     25276     25288     25291     25293     25276     25288     25291     25294
     25277     25276     25288     25289     25277     25276     25288     25290
     25277     25276     25288     25291     25278     25276     25288     25289
     25278     25276     25288     25290     25278     25276     25288     25291
     25279     25282     25283     25284     25279     25282     25283     25285
     25280     25279     25282     25283     25281     25279     25282     25283
     25282     25283     25285     25286     25282     25283     25285     25287
     25282     25283     25285     25335     25283     25285     25335     25336
     25283     25285     25335     25337     25283     25285     25335     25338
     25284     25283     25285     25286     25284     25283     25285     25287
     25284     25283     25285     25335     25285     25335     25338     25339
     25285     25335     25338     25340     25285     25335     25338     25341
     25286     25285     25335     25336     25286     25285     25335     25337
     25286     25285     25335     25338     25287     25285     25335     25336
     25287     25285     25335     25337     25287     25285     25335     25338
     25288     25291     25294     25295     25288     25291     25294     25296
     25288     25291     25294     25297     25289     25288     25291     25292
     25289     25288     25291     25293     25289     25288     25291     25294
     25290     25288     25291     25292     25290     25288     25291     25293
     25290     25288     25291     25294     25291     25294     25297     25298
     25291     25294     25297     25299     25291     25294     25297     25300
     25292     25291     25294     25295     25292     25291     25294     25296
     25292     25291     25294     25297     25293     25291     25294     25295
     25293     25291     25294     25296     25293     25291     25294     25297
     25294     25297     25300     25301     25294     25297     25300     25302
     25294     25297     25300     25303     25295     25294     25297     25298
     25295     25294     25297     25299     25295     25294     25297     25300
     25296     25294     25297     25298     25296     25294     25297     25299
     25296     25294     25297     25300     25297     25300     25303     25304
     25297     25300     25303     25305     25297     25300     25303     25306
     25298     25297     25300     25301     25298     25297     25300     25302
     25298     25297     25300     25303     25299     25297     25300     25301
     25299     25297     25300     25302     25299     25297     25300     25303
     25300     25303     25306     25307     25300     25303     25306     25308
     25301     25300     25303     25304     25301     25300     25303     25305
     25301     25300     25303     25306     25302     25300     25303     25304
     25302     25300     25303     25305     25302     25300     25303     25306
     25303     25306     25308     25309     25303     25306     25308     25310
     25304     25303     25306     25307     25304     25303     25306     25308
     25305     25303     25306     25307     25305     25303     25306     25308
     25306     25308     25310     25311     25306     25308     25310     25312
     25306     25308     25310     25313     25307     25306     25308     25309
     25307     25306     25308     25310     25308     25310     25313     25314
     25308     25310     25313     25315     25308     25310     25313     25316
     25309     25308     25310     25311     25309     25308     25310     25312
     25309     25308     25310     25313     25310     25313     25316     25317
     25310     25313     25316     25318     25310     25313     25316     25319
     25311     25310     25313     25314     25311     25310     25313     25315
     25311     25310     25313     25316     25312     25310     25313     25314
     25312     25310     25313     25315     25312     25310     25313     25316
     25313     25316     25319     25320     25313     25316     25319     25321
     25313     25316     25319     25322     25314     25313     25316     25317
     25314     25313     25316     25318     25314     25313     25316     25319
     25315     25313     25316     25317     25315     25313     25316     25318
     25315     25313     25316     25319     25316     25319     25322     25323
     25316     25319     25322     25324     25316     25319     25322     25325
     25317     25316     25319     25320     25317     25316     25319     25321
     25317     25316     25319     25322     25318     25316     25319     25320
     25318     25316     25319     25321     25318     25316     25319     25322
     25319     25322     25325     25326     25319     25322     25325     25327
     25319     25322     25325     25328     25320     25319     25322     25323
     25320     25319     25322     25324     25320     25319     25322     25325
     25321     25319     25322     25323     25321     25319     25322     25324
     25321     25319     25322     25325     25322     25325     25328     25329
     25322     25325     25328     25330     25322     25325     25328     25331
     25323     25322     25325     25326     25323     25322     25325     25327
     25323     25322     25325     25328     25324     25322     25325     25326
     25324     25322     25325     25327     25324     25322     25325     25328
     25325     25328     25331     25332     25325     25328     25331     25333
     25325     25328     25331     25334     25326     25325     25328     25329
     25326     25325     25328     25330     25326     25325     25328     25331
     25327     25325     25328     25329     25327     25325     25328     25330
     25327     25325     25328     25331     25329     25328     25331     25332
     25329     25328     25331     25333     25329     25328     25331     25334
     25330     25328     25331     25332     25330     25328     25331     25333
     25330     25328     25331     25334     25335     25338     25341     25342
     25335     25338     25341     25343     25335     25338     25341     25344
     25336     25335     25338     25339     25336     25335     25338     25340
     25336     25335     25338     25341     25337     25335     25338     25339
     25337     25335     25338     25340     25337     25335     25338     25341
     25338     25341     25344     25345     25338     25341     25344     25346
     25338     25341     25344     25347     25339     25338     25341     25342
     25339     25338     25341     25343     25339     25338     25341     25344
     25340     25338     25341     25342     25340     25338     25341     25343
     25340     25338     25341     25344     25341     25344     25347     25348
     25341     25344     25347     25349     25341     25344     25347     25350
     25342     25341     25344     25345     25342     25341     25344     25346
     25342     25341     25344     25347     25343     25341     25344     25345
     25343     25341     25344     25346     25343     25341     25344     25347
     25344     25347     25350     25351     25344     25347     25350     25352
     25344     25347     25350     25353     25345     25344     25347     25348
     25345     25344     25347     25349     25345     25344     25347     25350
     25346     25344     25347     25348     25346     25344     25347     25349
     25346     25344     25347     25350     25347     25350     25353     25354
     25347     25350     25353     25355     25347     25350     25353     25356
     25348     25347     25350     25351     25348     25347     25350     25352
     25348     25347     25350     25353     25349     25347     25350     25351
     25349     25347     25350     25352     25349     25347     25350     25353
     25350     25353     25356     25357     25350     25353     25356     25358
     25350     25353     25356     25359     25351     25350     25353     25354
     25351     25350     25353     25355     25351     25350     25353     25356
     25352     25350     25353     25354     25352     25350     25353     25355
     25352     25350     25353     25356     25353     25356     25359     25360
     25353     25356     25359     25361     25353     25356     25359     25362
     25354     25353     25356     25357     25354     25353     25356     25358
     25354     25353     25356     25359     25355     25353     25356     25357
     25355     25353     25356     25358     25355     25353     25356     25359
     25356     25359     25362     25363     25356     25359     25362     25364
     25356     25359     25362     25365     25357     25356     25359     25360
     25357     25356     25359     25361     25357     25356     25359     25362
     25358     25356     25359     25360     25358     25356     25359     25361
     25358     25356     25359     25362     25359     25362     25365     25366
     25359     25362     25365     25367     25359     25362     25365     25368
     25360     25359     25362     25363     25360     25359     25362     25364
     25360     25359     25362     25365     25361     25359     25362     25363
     25361     25359     25362     25364     25361     25359     25362     25365
     25362     25365     25368     25369     25362     25365     25368     25370
     25362     25365     25368     25371     25363     25362     25365     25366
     25363     25362     25365     25367     25363     25362     25365     25368
     25364     25362     25365     25366     25364     25362     25365     25367
     25364     25362     25365     25368     25365     25368     25371     25372
     25365     25368     25371     25373     25365     25368     25371     25374
     25366     25365     25368     25369     25366     25365     25368     25370
     25366     25365     25368     25371     25367     25365     25368     25369
     25367     25365     25368     25370     25367     25365     25368     25371
     25368     25371     25374     25375     25368     25371     25374     25376
     25368     25371     25374     25377     25369     25368     25371     25372
     25369     25368     25371     25373     25369     25368     25371     25374
     25370     25368     25371     25372     25370     25368     25371     25373
     25370     25368     25371     25374     25372     25371     25374     25375
     25372     25371     25374     25376     25372     25371     25374     25377
     25373     25371     25374     25375     25373     25371     25374     25376
     25373     25371     25374     25377     25378     25382     25385     25386
     25378     25382     25385     25387     25378     25382     25385     25392
     25379     25378     25382     25383     25379     25378     25382     25384
     25379     25378     25382     25385     25380     25378     25382     25383
     25380     25378     25382     25384     25380     25378     25382     25385
     25381     25378     25382     25383     25381     25378     25382     25384
     25381     25378     25382     25385     25382     25385     25392     25388
     25383     25382     25385     25386     25383     25382     25385     25387
     25383     25382     25385     25392     25384     25382     25385     25386
     25384     25382     25385     25387     25384     25382     25385     25392
     25385     25392     25388     25389     25385     25392     25388     25390
     25385     25392     25388     25391     25386     25385     25392     25388
     25387     25385     25392     25388     25388     25391     25393     25394
     25388     25391     25393     25395     25388     25391     25393     25396
     25389     25388     25391     25393     25390     25388     25391     25393
     25391     25393     25396     25397     25391     25393     25396     25398
     25391     25393     25396     25404     25392     25388     25391     25393
     25393     25396     25398     25399     25393     25396     25404     25405
     25393     25396     25404     25406     25393     25396     25404     25407
     25394     25393     25396     25397     25394     25393     25396     25398
     25394     25393     25396     25404     25395     25393     25396     25397
     25395     25393     25396     25398     25395     25393     25396     25404
     25396     25398     25399     25400     25396     25398     25399     25401
     25396     25404     25407     25408     25397     25396     25398     25399
     25397     25396     25404     25405     25397     25396     25404     25406
     25397     25396     25404     25407     25398     25396     25404     25405
     25398     25396     25404     25406     25398     25396     25404     25407
     25398     25399     25401     25402     25398     25399     25401     25403
     25398     25399     25401     25413     25399     25398     25396     25404
     25399     25401     25413     25414     25399     25401     25413     25415
     25399     25401     25413     25416     25400     25399     25401     25402
     25400     25399     25401     25403     25400     25399     25401     25413
     25401     25413     25416     25417     25401     25413     25416     25418
     25401     25413     25416     25419     25402     25401     25413     25414
     25402     25401     25413     25415     25402     25401     25413     25416
     25403     25401     25413     25414     25403     25401     25413     25415
     25403     25401     25413     25416     25404     25407     25408     25409
     25404     25407     25408     25410     25405     25404     25407     25408
     25406     25404     25407     25408     25407     25408     25410     25411
     25407     25408     25410     25412     25407     25408     25410     25460
     25408     25410     25460     25461     25408     25410     25460     25462
     25408     25410     25460     25463     25409     25408     25410     25411
     25409     25408     25410     25412     25409     25408     25410     25460
     25410     25460     25463     25464     25410     25460     25463     25465
     25410     25460     25463     25466     25411     25410     25460     25461
     25411     25410     25460     25462     25411     25410     25460     25463
     25412     25410     25460     25461     25412     25410     25460     25462
     25412     25410     25460     25463     25413     25416     25419     25420
     25413     25416     25419     25421     25413     25416     25419     25422
     25414     25413     25416     25417     25414     25413     25416     25418
     25414     25413     25416     25419     25415     25413     25416     25417
     25415     25413     25416     25418     25415     25413     25416     25419
     25416     25419     25422     25423     25416     25419     25422     25424
     25416     25419     25422     25425     25417     25416     25419     25420
     25417     25416     25419     25421     25417     25416     25419     25422
     25418     25416     25419     25420     25418     25416     25419     25421
     25418     25416     25419     25422     25419     25422     25425     25426
     25419     25422     25425     25427     25419     25422     25425     25428
     25420     25419     25422     25423     25420     25419     25422     25424
     25420     25419     25422     25425     25421     25419     25422     25423
     25421     25419     25422     25424     25421     25419     25422     25425
     25422     25425     25428     25429     25422     25425     25428     25430
     25422     25425     25428     25431     25423     25422     25425     25426
     25423     25422     25425     25427     25423     25422     25425     25428
     25424     25422     25425     25426     25424     25422     25425     25427
     25424     25422     25425     25428     25425     25428     25431     25432
     25425     25428     25431     25433     25426     25425     25428     25429
     25426     25425     25428     25430     25426     25425     25428     25431
     25427     25425     25428     25429     25427     25425     25428     25430
     25427     25425     25428     25431     25428     25431     25433     25434
     25428     25431     25433     25435     25429     25428     25431     25432
     25429     25428     25431     25433     25430     25428     25431     25432
     25430     25428     25431     25433     25431     25433     25435     25436
     25431     25433     25435     25437     25431     25433     25435     25438
     25432     25431     25433     25434     25432     25431     25433     25435
     25433     25435     25438     25439     25433     25435     25438     25440
     25433     25435     25438     25441     25434     25433     25435     25436
     25434     25433     25435     25437     25434     25433     25435     25438
     25435     25438     25441     25442     25435     25438     25441     25443
     25435     25438     25441     25444     25436     25435     25438     25439
     25436     25435     25438     25440     25436     25435     25438     25441
     25437     25435     25438     25439     25437     25435     25438     25440
     25437     25435     25438     25441     25438     25441     25444     25445
     25438     25441     25444     25446     25438     25441     25444     25447
     25439     25438     25441     25442     25439     25438     25441     25443
     25439     25438     25441     25444     25440     25438     25441     25442
     25440     25438     25441     25443     25440     25438     25441     25444
     25441     25444     25447     25448     25441     25444     25447     25449
     25441     25444     25447     25450     25442     25441     25444     25445
     25442     25441     25444     25446     25442     25441     25444     25447
     25443     25441     25444     25445     25443     25441     25444     25446
     25443     25441     25444     25447     25444     25447     25450     25451
     25444     25447     25450     25452     25444     25447     25450     25453
     25445     25444     25447     25448     25445     25444     25447     25449
     25445     25444     25447     25450     25446     25444     25447     25448
     25446     25444     25447     25449     25446     25444     25447     25450
     25447     25450     25453     25454     25447     25450     25453     25455
     25447     25450     25453     25456     25448     25447     25450     25451
     25448     25447     25450     25452     25448     25447     25450     25453
     25449     25447     25450     25451     25449     25447     25450     25452
     25449     25447     25450     25453     25450     25453     25456     25457
     25450     25453     25456     25458     25450     25453     25456     25459
     25451     25450     25453     25454     25451     25450     25453     25455
     25451     25450     25453     25456     25452     25450     25453     25454
     25452     25450     25453     25455     25452     25450     25453     25456
     25454     25453     25456     25457     25454     25453     25456     25458
     25454     25453     25456     25459     25455     25453     25456     25457
     25455     25453     25456     25458     25455     25453     25456     25459
     25460     25463     25466     25467     25460     25463     25466     25468
     25460     25463     25466     25469     25461     25460     25463     25464
     25461     25460     25463     25465     25461     25460     25463     25466
     25462     25460     25463     25464     25462     25460     25463     25465
     25462     25460     25463     25466     25463     25466     25469     25470
     25463     25466     25469     25471     25463     25466     25469     25472
     25464     25463     25466     25467     25464     25463     25466     25468
     25464     25463     25466     25469     25465     25463     25466     25467
     25465     25463     25466     25468     25465     25463     25466     25469
     25466     25469     25472     25473     25466     25469     25472     25474
     25466     25469     25472     25475     25467     25466     25469     25470
     25467     25466     25469     25471     25467     25466     25469     25472
     25468     25466     25469     25470     25468     25466     25469     25471
     25468     25466     25469     25472     25469     25472     25475     25476
     25469     25472     25475     25477     25469     25472     25475     25478
     25470     25469     25472     25473     25470     25469     25472     25474
     25470     25469     25472     25475     25471     25469     25472     25473
     25471     25469     25472     25474     25471     25469     25472     25475
     25472     25475     25478     25479     25472     25475     25478     25480
     25472     25475     25478     25481     25473     25472     25475     25476
     25473     25472     25475     25477     25473     25472     25475     25478
     25474     25472     25475     25476     25474     25472     25475     25477
     25474     25472     25475     25478     25475     25478     25481     25482
     25475     25478     25481     25483     25475     25478     25481     25484
     25476     25475     25478     25479     25476     25475     25478     25480
     25476     25475     25478     25481     25477     25475     25478     25479
     25477     25475     25478     25480     25477     25475     25478     25481
     25478     25481     25484     25485     25478     25481     25484     25486
     25478     25481     25484     25487     25479     25478     25481     25482
     25479     25478     25481     25483     25479     25478     25481     25484
     25480     25478     25481     25482     25480     25478     25481     25483
     25480     25478     25481     25484     25481     25484     25487     25488
     25481     25484     25487     25489     25481     25484     25487     25490
     25482     25481     25484     25485     25482     25481     25484     25486
     25482     25481     25484     25487     25483     25481     25484     25485
     25483     25481     25484     25486     25483     25481     25484     25487
     25484     25487     25490     25491     25484     25487     25490     25492
     25484     25487     25490     25493     25485     25484     25487     25488
     25485     25484     25487     25489     25485     25484     25487     25490
     25486     25484     25487     25488     25486     25484     25487     25489
     25486     25484     25487     25490     25487     25490     25493     25494
     25487     25490     25493     25495     25487     25490     25493     25496
     25488     25487     25490     25491     25488     25487     25490     25492
     25488     25487     25490     25493     25489     25487     25490     25491
     25489     25487     25490     25492     25489     25487     25490     25493
     25490     25493     25496     25497     25490     25493     25496     25498
     25490     25493     25496     25499     25491     25490     25493     25494
     25491     25490     25493     25495     25491     25490     25493     25496
     25492     25490     25493     25494     25492     25490     25493     25495
     25492     25490     25493     25496     25493     25496     25499     25500
     25493     25496     25499     25501     25493     25496     25499     25502
     25494     25493     25496     25497     25494     25493     25496     25498
     25494     25493     25496     25499     25495     25493     25496     25497
     25495     25493     25496     25498     25495     25493     25496     25499
     25497     25496     25499     25500     25497     25496     25499     25501
     25497     25496     25499     25502     25498     25496     25499     25500
     25498     25496     25499     25501     25498     25496     25499     25502
     25503     25504     25519     25520     25503     25504     25519     25521
     25503     25504     25519     25525     25504     25503     25507     25508
     25504     25503     25507     25509     25504     25503     25507     25510
     25504     25503     25511     25512     25504     25503     25511     25513
     25504     25503     25511     25514     25504     25503     25515     25516
     25504     25503     25515     25517     25504     25503     25515     25518
     25504     25519     25525     25522     25505     25504     25503     25507
     25505     25504     25503     25511     25505     25504     25503     25515
     25505     25504     25519     25520     25505     25504     25519     25521
     25505     25504     25519     25525     25506     25504     25503     25507
     25506     25504     25503     25511     25506     25504     25503     25515
     25506     25504     25519     25520     25506     25504     25519     25521
     25506     25504     25519     25525     25507     25503     25504     25519
     25507     25503     25511     25512     25507     25503     25511     25513
     25507     25503     25511     25514     25507     25503     25515     25516
     25507     25503     25515     25517     25507     25503     25515     25518
     25508     25507     25503     25511     25508     25507     25503     25515
     25509     25507     25503     25511     25509     25507     25503     25515
     25510     25507     25503     25511     25510     25507     25503     25515
     25511     25503     25504     25519     25511     25503     25515     25516
     25511     25503     25515     25517     25511     25503     25515     25518
     25512     25511     25503     25515     25513     25511     25503     25515
     25514     25511     25503     25515     25515     25503     25504     25519
     25519     25525     25522     25523     25519     25525     25522     25524
     25519     25525     25522     25526     25520     25519     25525     25522
     25521     25519     25525     25522     25522     25526     25527     25528
     25522     25526     25527     25529     25522     25526     25527     25530
     25523     25522     25526     25527     25524     25522     25526     25527
     25525     25522     25526     25527     25526     25527     25530     25531
     25526     25527     25530     25532     25526     25527     25530     25538
     25527     25530     25532     25533     25527     25530     25538     25539
     25527     25530     25538     25540     25527     25530     25538     25541
     25528     25527     25530     25531     25528     25527     25530     25532
     25528     25527     25530     25538     25529     25527     25530     25531
     25529     25527     25530     25532     25529     25527     25530     25538
     25530     25532     25533     25534     25530     25532     25533     25535
     25530     25538     25541     25542     25531     25530     25532     25533
     25531     25530     25538     25539     25531     25530     25538     25540
     25531     25530     25538     25541     25532     25530     25538     25539
     25532     25530     25538     25540     25532     25530     25538     25541
     25532     25533     25535     25536     25532     25533     25535     25537
     25532     25533     25535     25547     25533     25532     25530     25538
     25533     25535     25547     25548     25533     25535     25547     25549
     25533     25535     25547     25550     25534     25533     25535     25536
     25534     25533     25535     25537     25534     25533     25535     25547
     25535     25547     25550     25551     25535     25547     25550     25552
     25535     25547     25550     25553     25536     25535     25547     25548
     25536     25535     25547     25549     25536     25535     25547     25550
     25537     25535     25547     25548     25537     25535     25547     25549
     25537     25535     25547     25550     25538     25541     25542     25543
     25538     25541     25542     25544     25539     25538     25541     25542
     25540     25538     25541     25542     25541     25542     25544     25545
     25541     25542     25544     25546     25541     25542     25544     25594
     25542     25544     25594     25595     25542     25544     25594     25596
     25542     25544     25594     25597     25543     25542     25544     25545
     25543     25542     25544     25546     25543     25542     25544     25594
     25544     25594     25597     25598     25544     25594     25597     25599
     25544     25594     25597     25600     25545     25544     25594     25595
     25545     25544     25594     25596     25545     25544     25594     25597
     25546     25544     25594     25595     25546     25544     25594     25596
     25546     25544     25594     25597     25547     25550     25553     25554
     25547     25550     25553     25555     25547     25550     25553     25556
     25548     25547     25550     25551     25548     25547     25550     25552
     25548     25547     25550     25553     25549     25547     25550     25551
     25549     25547     25550     25552     25549     25547     25550     25553
     25550     25553     25556     25557     25550     25553     25556     25558
     25550     25553     25556     25559     25551     25550     25553     25554
     25551     25550     25553     25555     25551     25550     25553     25556
     25552     25550     25553     25554     25552     25550     25553     25555
     25552     25550     25553     25556     25553     25556     25559     25560
     25553     25556     25559     25561     25553     25556     25559     25562
     25554     25553     25556     25557     25554     25553     25556     25558
     25554     25553     25556     25559     25555     25553     25556     25557
     25555     25553     25556     25558     25555     25553     25556     25559
     25556     25559     25562     25563     25556     25559     25562     25564
     25556     25559     25562     25565     25557     25556     25559     25560
     25557     25556     25559     25561     25557     25556     25559     25562
     25558     25556     25559     25560     25558     25556     25559     25561
     25558     25556     25559     25562     25559     25562     25565     25566
     25559     25562     25565     25567     25560     25559     25562     25563
     25560     25559     25562     25564     25560     25559     25562     25565
     25561     25559     25562     25563     25561     25559     25562     25564
     25561     25559     25562     25565     25562     25565     25567     25568
     25562     25565     25567     25569     25563     25562     25565     25566
     25563     25562     25565     25567     25564     25562     25565     25566
     25564     25562     25565     25567     25565     25567     25569     25570
     25565     25567     25569     25571     25565     25567     25569     25572
     25566     25565     25567     25568     25566     25565     25567     25569
     25567     25569     25572     25573     25567     25569     25572     25574
     25567     25569     25572     25575     25568     25567     25569     25570
     25568     25567     25569     25571     25568     25567     25569     25572
     25569     25572     25575     25576     25569     25572     25575     25577
     25569     25572     25575     25578     25570     25569     25572     25573
     25570     25569     25572     25574     25570     25569     25572     25575
     25571     25569     25572     25573     25571     25569     25572     25574
     25571     25569     25572     25575     25572     25575     25578     25579
     25572     25575     25578     25580     25572     25575     25578     25581
     25573     25572     25575     25576     25573     25572     25575     25577
     25573     25572     25575     25578     25574     25572     25575     25576
     25574     25572     25575     25577     25574     25572     25575     25578
     25575     25578     25581     25582     25575     25578     25581     25583
     25575     25578     25581     25584     25576     25575     25578     25579
     25576     25575     25578     25580     25576     25575     25578     25581
     25577     25575     25578     25579     25577     25575     25578     25580
     25577     25575     25578     25581     25578     25581     25584     25585
     25578     25581     25584     25586     25578     25581     25584     25587
     25579     25578     25581     25582     25579     25578     25581     25583
     25579     25578     25581     25584     25580     25578     25581     25582
     25580     25578     25581     25583     25580     25578     25581     25584
     25581     25584     25587     25588     25581     25584     25587     25589
     25581     25584     25587     25590     25582     25581     25584     25585
     25582     25581     25584     25586     25582     25581     25584     25587
     25583     25581     25584     25585     25583     25581     25584     25586
     25583     25581     25584     25587     25584     25587     25590     25591
     25584     25587     25590     25592     25584     25587     25590     25593
     25585     25584     25587     25588     25585     25584     25587     25589
     25585     25584     25587     25590     25586     25584     25587     25588
     25586     25584     25587     25589     25586     25584     25587     25590
     25588     25587     25590     25591     25588     25587     25590     25592
     25588     25587     25590     25593     25589     25587     25590     25591
     25589     25587     25590     25592     25589     25587     25590     25593
     25594     25597     25600     25601     25594     25597     25600     25602
     25594     25597     25600     25603     25595     25594     25597     25598
     25595     25594     25597     25599     25595     25594     25597     25600
     25596     25594     25597     25598     25596     25594     25597     25599
     25596     25594     25597     25600     25597     25600     25603     25604
     25597     25600     25603     25605     25597     25600     25603     25606
     25598     25597     25600     25601     25598     25597     25600     25602
     25598     25597     25600     25603     25599     25597     25600     25601
     25599     25597     25600     25602     25599     25597     25600     25603
     25600     25603     25606     25607     25600     25603     25606     25608
     25600     25603     25606     25609     25601     25600     25603     25604
     25601     25600     25603     25605     25601     25600     25603     25606
     25602     25600     25603     25604     25602     25600     25603     25605
     25602     25600     25603     25606     25603     25606     25609     25610
     25603     25606     25609     25611     25603     25606     25609     25612
     25604     25603     25606     25607     25604     25603     25606     25608
     25604     25603     25606     25609     25605     25603     25606     25607
     25605     25603     25606     25608     25605     25603     25606     25609
     25606     25609     25612     25613     25606     25609     25612     25614
     25606     25609     25612     25615     25607     25606     25609     25610
     25607     25606     25609     25611     25607     25606     25609     25612
     25608     25606     25609     25610     25608     25606     25609     25611
     25608     25606     25609     25612     25609     25612     25615     25616
     25609     25612     25615     25617     25609     25612     25615     25618
     25610     25609     25612     25613     25610     25609     25612     25614
     25610     25609     25612     25615     25611     25609     25612     25613
     25611     25609     25612     25614     25611     25609     25612     25615
     25612     25615     25618     25619     25612     25615     25618     25620
     25612     25615     25618     25621     25613     25612     25615     25616
     25613     25612     25615     25617     25613     25612     25615     25618
     25614     25612     25615     25616     25614     25612     25615     25617
     25614     25612     25615     25618     25615     25618     25621     25622
     25615     25618     25621     25623     25615     25618     25621     25624
     25616     25615     25618     25619     25616     25615     25618     25620
     25616     25615     25618     25621     25617     25615     25618     25619
     25617     25615     25618     25620     25617     25615     25618     25621
     25618     25621     25624     25625     25618     25621     25624     25626
     25618     25621     25624     25627     25619     25618     25621     25622
     25619     25618     25621     25623     25619     25618     25621     25624
     25620     25618     25621     25622     25620     25618     25621     25623
     25620     25618     25621     25624     25621     25624     25627     25628
     25621     25624     25627     25629     25621     25624     25627     25630
     25622     25621     25624     25625     25622     25621     25624     25626
     25622     25621     25624     25627     25623     25621     25624     25625
     25623     25621     25624     25626     25623     25621     25624     25627
     25624     25627     25630     25631     25624     25627     25630     25632
     25624     25627     25630     25633     25625     25624     25627     25628
     25625     25624     25627     25629     25625     25624     25627     25630
     25626     25624     25627     25628     25626     25624     25627     25629
     25626     25624     25627     25630     25627     25630     25633     25634
     25627     25630     25633     25635     25627     25630     25633     25636
     25628     25627     25630     25631     25628     25627     25630     25632
     25628     25627     25630     25633     25629     25627     25630     25631
     25629     25627     25630     25632     25629     25627     25630     25633
     25631     25630     25633     25634     25631     25630     25633     25635
     25631     25630     25633     25636     25632     25630     25633     25634
     25632     25630     25633     25635     25632     25630     25633     25636
     25637     25638     25653     25654     25637     25638     25653     25655
     25637     25638     25653     25659     25638     25637     25641     25642
     25638     25637     25641     25643     25638     25637     25641     25644
     25638     25637     25645     25646     25638     25637     25645     25647
     25638     25637     25645     25648     25638     25637     25649     25650
     25638     25637     25649     25651     25638     25637     25649     25652
     25638     25653     25659     25656     25639     25638     25637     25641
     25639     25638     25637     25645     25639     25638     25637     25649
     25639     25638     25653     25654     25639     25638     25653     25655
     25639     25638     25653     25659     25640     25638     25637     25641
     25640     25638     25637     25645     25640     25638     25637     25649
     25640     25638     25653     25654     25640     25638     25653     25655
     25640     25638     25653     25659     25641     25637     25638     25653
     25641     25637     25645     25646     25641     25637     25645     25647
     25641     25637     25645     25648     25641     25637     25649     25650
     25641     25637     25649     25651     25641     25637     25649     25652
     25642     25641     25637     25645     25642     25641     25637     25649
     25643     25641     25637     25645     25643     25641     25637     25649
     25644     25641     25637     25645     25644     25641     25637     25649
     25645     25637     25638     25653     25645     25637     25649     25650
     25645     25637     25649     25651     25645     25637     25649     25652
     25646     25645     25637     25649     25647     25645     25637     25649
     25648     25645     25637     25649     25649     25637     25638     25653
     25653     25659     25656     25657     25653     25659     25656     25658
     25653     25659     25656     25660     25654     25653     25659     25656
     25655     25653     25659     25656     25656     25660     25661     25662
     25656     25660     25661     25663     25656     25660     25661     25664
     25657     25656     25660     25661     25658     25656     25660     25661
     25659     25656     25660     25661     25660     25661     25664     25665
     25660     25661     25664     25666     25660     25661     25664     25672
     25661     25664     25666     25667     25661     25664     25672     25673
     25661     25664     25672     25674     25661     25664     25672     25675
     25662     25661     25664     25665     25662     25661     25664     25666
     25662     25661     25664     25672     25663     25661     25664     25665
     25663     25661     25664     25666     25663     25661     25664     25672
     25664     25666     25667     25668     25664     25666     25667     25669
     25664     25672     25675     25676     25665     25664     25666     25667
     25665     25664     25672     25673     25665     25664     25672     25674
     25665     25664     25672     25675     25666     25664     25672     25673
     25666     25664     25672     25674     25666     25664     25672     25675
     25666     25667     25669     25670     25666     25667     25669     25671
     25666     25667     25669     25681     25667     25666     25664     25672
     25667     25669     25681     25682     25667     25669     25681     25683
     25667     25669     25681     25684     25668     25667     25669     25670
     25668     25667     25669     25671     25668     25667     25669     25681
     25669     25681     25684     25685     25669     25681     25684     25686
     25669     25681     25684     25687     25670     25669     25681     25682
     25670     25669     25681     25683     25670     25669     25681     25684
     25671     25669     25681     25682     25671     25669     25681     25683
     25671     25669     25681     25684     25672     25675     25676     25677
     25672     25675     25676     25678     25673     25672     25675     25676
     25674     25672     25675     25676     25675     25676     25678     25679
     25675     25676     25678     25680     25675     25676     25678     25728
     25676     25678     25728     25729     25676     25678     25728     25730
     25676     25678     25728     25731     25677     25676     25678     25679
     25677     25676     25678     25680     25677     25676     25678     25728
     25678     25728     25731     25732     25678     25728     25731     25733
     25678     25728     25731     25734     25679     25678     25728     25729
     25679     25678     25728     25730     25679     25678     25728     25731
     25680     25678     25728     25729     25680     25678     25728     25730
     25680     25678     25728     25731     25681     25684     25687     25688
     25681     25684     25687     25689     25681     25684     25687     25690
     25682     25681     25684     25685     25682     25681     25684     25686
     25682     25681     25684     25687     25683     25681     25684     25685
     25683     25681     25684     25686     25683     25681     25684     25687
     25684     25687     25690     25691     25684     25687     25690     25692
     25684     25687     25690     25693     25685     25684     25687     25688
     25685     25684     25687     25689     25685     25684     25687     25690
     25686     25684     25687     25688     25686     25684     25687     25689
     25686     25684     25687     25690     25687     25690     25693     25694
     25687     25690     25693     25695     25687     25690     25693     25696
     25688     25687     25690     25691     25688     25687     25690     25692
     25688     25687     25690     25693     25689     25687     25690     25691
     25689     25687     25690     25692     25689     25687     25690     25693
     25690     25693     25696     25697     25690     25693     25696     25698
     25690     25693     25696     25699     25691     25690     25693     25694
     25691     25690     25693     25695     25691     25690     25693     25696
     25692     25690     25693     25694     25692     25690     25693     25695
     25692     25690     25693     25696     25693     25696     25699     25700
     25693     25696     25699     25701     25694     25693     25696     25697
     25694     25693     25696     25698     25694     25693     25696     25699
     25695     25693     25696     25697     25695     25693     25696     25698
     25695     25693     25696     25699     25696     25699     25701     25702
     25696     25699     25701     25703     25697     25696     25699     25700
     25697     25696     25699     25701     25698     25696     25699     25700
     25698     25696     25699     25701     25699     25701     25703     25704
     25699     25701     25703     25705     25699     25701     25703     25706
     25700     25699     25701     25702     25700     25699     25701     25703
     25701     25703     25706     25707     25701     25703     25706     25708
     25701     25703     25706     25709     25702     25701     25703     25704
     25702     25701     25703     25705     25702     25701     25703     25706
     25703     25706     25709     25710     25703     25706     25709     25711
     25703     25706     25709     25712     25704     25703     25706     25707
     25704     25703     25706     25708     25704     25703     25706     25709
     25705     25703     25706     25707     25705     25703     25706     25708
     25705     25703     25706     25709     25706     25709     25712     25713
     25706     25709     25712     25714     25706     25709     25712     25715
     25707     25706     25709     25710     25707     25706     25709     25711
     25707     25706     25709     25712     25708     25706     25709     25710
     25708     25706     25709     25711     25708     25706     25709     25712
     25709     25712     25715     25716     25709     25712     25715     25717
     25709     25712     25715     25718     25710     25709     25712     25713
     25710     25709     25712     25714     25710     25709     25712     25715
     25711     25709     25712     25713     25711     25709     25712     25714
     25711     25709     25712     25715     25712     25715     25718     25719
     25712     25715     25718     25720     25712     25715     25718     25721
     25713     25712     25715     25716     25713     25712     25715     25717
     25713     25712     25715     25718     25714     25712     25715     25716
     25714     25712     25715     25717     25714     25712     25715     25718
     25715     25718     25721     25722     25715     25718     25721     25723
     25715     25718     25721     25724     25716     25715     25718     25719
     25716     25715     25718     25720     25716     25715     25718     25721
     25717     25715     25718     25719     25717     25715     25718     25720
     25717     25715     25718     25721     25718     25721     25724     25725
     25718     25721     25724     25726     25718     25721     25724     25727
     25719     25718     25721     25722     25719     25718     25721     25723
     25719     25718     25721     25724     25720     25718     25721     25722
     25720     25718     25721     25723     25720     25718     25721     25724
     25722     25721     25724     25725     25722     25721     25724     25726
     25722     25721     25724     25727     25723     25721     25724     25725
     25723     25721     25724     25726     25723     25721     25724     25727
     25728     25731     25734     25735     25728     25731     25734     25736
     25728     25731     25734     25737     25729     25728     25731     25732
     25729     25728     25731     25733     25729     25728     25731     25734
     25730     25728     25731     25732     25730     25728     25731     25733
     25730     25728     25731     25734     25731     25734     25737     25738
     25731     25734     25737     25739     25731     25734     25737     25740
     25732     25731     25734     25735     25732     25731     25734     25736
     25732     25731     25734     25737     25733     25731     25734     25735
     25733     25731     25734     25736     25733     25731     25734     25737
     25734     25737     25740     25741     25734     25737     25740     25742
     25734     25737     25740     25743     25735     25734     25737     25738
     25735     25734     25737     25739     25735     25734     25737     25740
     25736     25734     25737     25738     25736     25734     25737     25739
     25736     25734     25737     25740     25737     25740     25743     25744
     25737     25740     25743     25745     25737     25740     25743     25746
     25738     25737     25740     25741     25738     25737     25740     25742
     25738     25737     25740     25743     25739     25737     25740     25741
     25739     25737     25740     25742     25739     25737     25740     25743
     25740     25743     25746     25747     25740     25743     25746     25748
     25740     25743     25746     25749     25741     25740     25743     25744
     25741     25740     25743     25745     25741     25740     25743     25746
     25742     25740     25743     25744     25742     25740     25743     25745
     25742     25740     25743     25746     25743     25746     25749     25750
     25743     25746     25749     25751     25743     25746     25749     25752
     25744     25743     25746     25747     25744     25743     25746     25748
     25744     25743     25746     25749     25745     25743     25746     25747
     25745     25743     25746     25748     25745     25743     25746     25749
     25746     25749     25752     25753     25746     25749     25752     25754
     25746     25749     25752     25755     25747     25746     25749     25750
     25747     25746     25749     25751     25747     25746     25749     25752
     25748     25746     25749     25750     25748     25746     25749     25751
     25748     25746     25749     25752     25749     25752     25755     25756
     25749     25752     25755     25757     25749     25752     25755     25758
     25750     25749     25752     25753     25750     25749     25752     25754
     25750     25749     25752     25755     25751     25749     25752     25753
     25751     25749     25752     25754     25751     25749     25752     25755
     25752     25755     25758     25759     25752     25755     25758     25760
     25752     25755     25758     25761     25753     25752     25755     25756
     25753     25752     25755     25757     25753     25752     25755     25758
     25754     25752     25755     25756     25754     25752     25755     25757
     25754     25752     25755     25758     25755     25758     25761     25762
     25755     25758     25761     25763     25755     25758     25761     25764
     25756     25755     25758     25759     25756     25755     25758     25760
     25756     25755     25758     25761     25757     25755     25758     25759
     25757     25755     25758     25760     25757     25755     25758     25761
     25758     25761     25764     25765     25758     25761     25764     25766
     25758     25761     25764     25767     25759     25758     25761     25762
     25759     25758     25761     25763     25759     25758     25761     25764
     25760     25758     25761     25762     25760     25758     25761     25763
     25760     25758     25761     25764     25761     25764     25767     25768
     25761     25764     25767     25769     25761     25764     25767     25770
     25762     25761     25764     25765     25762     25761     25764     25766
     25762     25761     25764     25767     25763     25761     25764     25765
     25763     25761     25764     25766     25763     25761     25764     25767
     25765     25764     25767     25768     25765     25764     25767     25769
     25765     25764     25767     25770     25766     25764     25767     25768
     25766     25764     25767     25769     25766     25764     25767     25770
     25771     25775     25778     25779     25771     25775     25778     25780
     25771     25775     25778     25785     25772     25771     25775     25776
     25772     25771     25775     25777     25772     25771     25775     25778
     25773     25771     25775     25776     25773     25771     25775     25777
     25773     25771     25775     25778     25774     25771     25775     25776
     25774     25771     25775     25777     25774     25771     25775     25778
     25775     25778     25785     25781     25776     25775     25778     25779
     25776     25775     25778     25780     25776     25775     25778     25785
     25777     25775     25778     25779     25777     25775     25778     25780
     25777     25775     25778     25785     25778     25785     25781     25782
     25778     25785     25781     25783     25778     25785     25781     25784
     25779     25778     25785     25781     25780     25778     25785     25781
     25781     25784     25786     25787     25781     25784     25786     25788
     25781     25784     25786     25789     25782     25781     25784     25786
     25783     25781     25784     25786     25784     25786     25789     25790
     25784     25786     25789     25791     25784     25786     25789     25797
     25785     25781     25784     25786     25786     25789     25791     25792
     25786     25789     25797     25798     25786     25789     25797     25799
     25786     25789     25797     25800     25787     25786     25789     25790
     25787     25786     25789     25791     25787     25786     25789     25797
     25788     25786     25789     25790     25788     25786     25789     25791
     25788     25786     25789     25797     25789     25791     25792     25793
     25789     25791     25792     25794     25789     25797     25800     25801
     25790     25789     25791     25792     25790     25789     25797     25798
     25790     25789     25797     25799     25790     25789     25797     25800
     25791     25789     25797     25798     25791     25789     25797     25799
     25791     25789     25797     25800     25791     25792     25794     25795
     25791     25792     25794     25796     25791     25792     25794     25806
     25792     25791     25789     25797     25792     25794     25806     25807
     25792     25794     25806     25808     25792     25794     25806     25809
     25793     25792     25794     25795     25793     25792     25794     25796
     25793     25792     25794     25806     25794     25806     25809     25810
     25794     25806     25809     25811     25794     25806     25809     25812
     25795     25794     25806     25807     25795     25794     25806     25808
     25795     25794     25806     25809     25796     25794     25806     25807
     25796     25794     25806     25808     25796     25794     25806     25809
     25797     25800     25801     25802     25797     25800     25801     25803
     25798     25797     25800     25801     25799     25797     25800     25801
     25800     25801     25803     25804     25800     25801     25803     25805
     25800     25801     25803     25853     25801     25803     25853     25854
     25801     25803     25853     25855     25801     25803     25853     25856
     25802     25801     25803     25804     25802     25801     25803     25805
     25802     25801     25803     25853     25803     25853     25856     25857
     25803     25853     25856     25858     25803     25853     25856     25859
     25804     25803     25853     25854     25804     25803     25853     25855
     25804     25803     25853     25856     25805     25803     25853     25854
     25805     25803     25853     25855     25805     25803     25853     25856
     25806     25809     25812     25813     25806     25809     25812     25814
     25806     25809     25812     25815     25807     25806     25809     25810
     25807     25806     25809     25811     25807     25806     25809     25812
     25808     25806     25809     25810     25808     25806     25809     25811
     25808     25806     25809     25812     25809     25812     25815     25816
     25809     25812     25815     25817     25809     25812     25815     25818
     25810     25809     25812     25813     25810     25809     25812     25814
     25810     25809     25812     25815     25811     25809     25812     25813
     25811     25809     25812     25814     25811     25809     25812     25815
     25812     25815     25818     25819     25812     25815     25818     25820
     25812     25815     25818     25821     25813     25812     25815     25816
     25813     25812     25815     25817     25813     25812     25815     25818
     25814     25812     25815     25816     25814     25812     25815     25817
     25814     25812     25815     25818     25815     25818     25821     25822
     25815     25818     25821     25823     25815     25818     25821     25824
     25816     25815     25818     25819     25816     25815     25818     25820
     25816     25815     25818     25821     25817     25815     25818     25819
     25817     25815     25818     25820     25817     25815     25818     25821
     25818     25821     25824     25825     25818     25821     25824     25826
     25819     25818     25821     25822     25819     25818     25821     25823
     25819     25818     25821     25824     25820     25818     25821     25822
     25820     25818     25821     25823     25820     25818     25821     25824
     25821     25824     25826     25827     25821     25824     25826     25828
     25822     25821     25824     25825     25822     25821     25824     25826
     25823     25821     25824     25825     25823     25821     25824     25826
     25824     25826     25828     25829     25824     25826     25828     25830
     25824     25826     25828     25831     25825     25824     25826     25827
     25825     25824     25826     25828     25826     25828     25831     25832
     25826     25828     25831     25833     25826     25828     25831     25834
     25827     25826     25828     25829     25827     25826     25828     25830
     25827     25826     25828     25831     25828     25831     25834     25835
     25828     25831     25834     25836     25828     25831     25834     25837
     25829     25828     25831     25832     25829     25828     25831     25833
     25829     25828     25831     25834     25830     25828     25831     25832
     25830     25828     25831     25833     25830     25828     25831     25834
     25831     25834     25837     25838     25831     25834     25837     25839
     25831     25834     25837     25840     25832     25831     25834     25835
     25832     25831     25834     25836     25832     25831     25834     25837
     25833     25831     25834     25835     25833     25831     25834     25836
     25833     25831     25834     25837     25834     25837     25840     25841
     25834     25837     25840     25842     25834     25837     25840     25843
     25835     25834     25837     25838     25835     25834     25837     25839
     25835     25834     25837     25840     25836     25834     25837     25838
     25836     25834     25837     25839     25836     25834     25837     25840
     25837     25840     25843     25844     25837     25840     25843     25845
     25837     25840     25843     25846     25838     25837     25840     25841
     25838     25837     25840     25842     25838     25837     25840     25843
     25839     25837     25840     25841     25839     25837     25840     25842
     25839     25837     25840     25843     25840     25843     25846     25847
     25840     25843     25846     25848     25840     25843     25846     25849
     25841     25840     25843     25844     25841     25840     25843     25845
     25841     25840     25843     25846     25842     25840     25843     25844
     25842     25840     25843     25845     25842     25840     25843     25846
     25843     25846     25849     25850     25843     25846     25849     25851
     25843     25846     25849     25852     25844     25843     25846     25847
     25844     25843     25846     25848     25844     25843     25846     25849
     25845     25843     25846     25847     25845     25843     25846     25848
     25845     25843     25846     25849     25847     25846     25849     25850
     25847     25846     25849     25851     25847     25846     25849     25852
     25848     25846     25849     25850     25848     25846     25849     25851
     25848     25846     25849     25852     25853     25856     25859     25860
     25853     25856     25859     25861     25853     25856     25859     25862
     25854     25853     25856     25857     25854     25853     25856     25858
     25854     25853     25856     25859     25855     25853     25856     25857
     25855     25853     25856     25858     25855     25853     25856     25859
     25856     25859     25862     25863     25856     25859     25862     25864
     25856     25859     25862     25865     25857     25856     25859     25860
     25857     25856     25859     25861     25857     25856     25859     25862
     25858     25856     25859     25860     25858     25856     25859     25861
     25858     25856     25859     25862     25859     25862     25865     25866
     25859     25862     25865     25867     25859     25862     25865     25868
     25860     25859     25862     25863     25860     25859     25862     25864
     25860     25859     25862     25865     25861     25859     25862     25863
     25861     25859     25862     25864     25861     25859     25862     25865
     25862     25865     25868     25869     25862     25865     25868     25870
     25862     25865     25868     25871     25863     25862     25865     25866
     25863     25862     25865     25867     25863     25862     25865     25868
     25864     25862     25865     25866     25864     25862     25865     25867
     25864     25862     25865     25868     25865     25868     25871     25872
     25865     25868     25871     25873     25865     25868     25871     25874
     25866     25865     25868     25869     25866     25865     25868     25870
     25866     25865     25868     25871     25867     25865     25868     25869
     25867     25865     25868     25870     25867     25865     25868     25871
     25868     25871     25874     25875     25868     25871     25874     25876
     25868     25871     25874     25877     25869     25868     25871     25872
     25869     25868     25871     25873     25869     25868     25871     25874
     25870     25868     25871     25872     25870     25868     25871     25873
     25870     25868     25871     25874     25871     25874     25877     25878
     25871     25874     25877     25879     25871     25874     25877     25880
     25872     25871     25874     25875     25872     25871     25874     25876
     25872     25871     25874     25877     25873     25871     25874     25875
     25873     25871     25874     25876     25873     25871     25874     25877
     25874     25877     25880     25881     25874     25877     25880     25882
     25874     25877     25880     25883     25875     25874     25877     25878
     25875     25874     25877     25879     25875     25874     25877     25880
     25876     25874     25877     25878     25876     25874     25877     25879
     25876     25874     25877     25880     25877     25880     25883     25884
     25877     25880     25883     25885     25877     25880     25883     25886
     25878     25877     25880     25881     25878     25877     25880     25882
     25878     25877     25880     25883     25879     25877     25880     25881
     25879     25877     25880     25882     25879     25877     25880     25883
     25880     25883     25886     25887     25880     25883     25886     25888
     25880     25883     25886     25889     25881     25880     25883     25884
     25881     25880     25883     25885     25881     25880     25883     25886
     25882     25880     25883     25884     25882     25880     25883     25885
     25882     25880     25883     25886     25883     25886     25889     25890
     25883     25886     25889     25891     25883     25886     25889     25892
     25884     25883     25886     25887     25884     25883     25886     25888
     25884     25883     25886     25889     25885     25883     25886     25887
     25885     25883     25886     25888     25885     25883     25886     25889
     25886     25889     25892     25893     25886     25889     25892     25894
     25886     25889     25892     25895     25887     25886     25889     25890
     25887     25886     25889     25891     25887     25886     25889     25892
     25888     25886     25889     25890     25888     25886     25889     25891
     25888     25886     25889     25892     25890     25889     25892     25893
     25890     25889     25892     25894     25890     25889     25892     25895
     25891     25889     25892     25893     25891     25889     25892     25894
     25891     25889     25892     25895     25896     25900     25903     25904
     25896     25900     25903     25905     25896     25900     25903     25910
     25897     25896     25900     25901     25897     25896     25900     25902
     25897     25896     25900     25903     25898     25896     25900     25901
     25898     25896     25900     25902     25898     25896     25900     25903
     25899     25896     25900     25901     25899     25896     25900     25902
     25899     25896     25900     25903     25900     25903     25910     25906
     25901     25900     25903     25904     25901     25900     25903     25905
     25901     25900     25903     25910     25902     25900     25903     25904
     25902     25900     25903     25905     25902     25900     25903     25910
     25903     25910     25906     25907     25903     25910     25906     25908
     25903     25910     25906     25909     25904     25903     25910     25906
     25905     25903     25910     25906     25906     25909     25911     25912
     25906     25909     25911     25913     25906     25909     25911     25914
     25907     25906     25909     25911     25908     25906     25909     25911
     25909     25911     25914     25915     25909     25911     25914     25916
     25909     25911     25914     25922     25910     25906     25909     25911
     25911     25914     25916     25917     25911     25914     25922     25923
     25911     25914     25922     25924     25911     25914     25922     25925
     25912     25911     25914     25915     25912     25911     25914     25916
     25912     25911     25914     25922     25913     25911     25914     25915
     25913     25911     25914     25916     25913     25911     25914     25922
     25914     25916     25917     25918     25914     25916     25917     25919
     25914     25922     25925     25926     25915     25914     25916     25917
     25915     25914     25922     25923     25915     25914     25922     25924
     25915     25914     25922     25925     25916     25914     25922     25923
     25916     25914     25922     25924     25916     25914     25922     25925
     25916     25917     25919     25920     25916     25917     25919     25921
     25916     25917     25919     25931     25917     25916     25914     25922
     25917     25919     25931     25932     25917     25919     25931     25933
     25917     25919     25931     25934     25918     25917     25919     25920
     25918     25917     25919     25921     25918     25917     25919     25931
     25919     25931     25934     25935     25919     25931     25934     25936
     25919     25931     25934     25937     25920     25919     25931     25932
     25920     25919     25931     25933     25920     25919     25931     25934
     25921     25919     25931     25932     25921     25919     25931     25933
     25921     25919     25931     25934     25922     25925     25926     25927
     25922     25925     25926     25928     25923     25922     25925     25926
     25924     25922     25925     25926     25925     25926     25928     25929
     25925     25926     25928     25930     25925     25926     25928     25978
     25926     25928     25978     25979     25926     25928     25978     25980
     25926     25928     25978     25981     25927     25926     25928     25929
     25927     25926     25928     25930     25927     25926     25928     25978
     25928     25978     25981     25982     25928     25978     25981     25983
     25928     25978     25981     25984     25929     25928     25978     25979
     25929     25928     25978     25980     25929     25928     25978     25981
     25930     25928     25978     25979     25930     25928     25978     25980
     25930     25928     25978     25981     25931     25934     25937     25938
     25931     25934     25937     25939     25931     25934     25937     25940
     25932     25931     25934     25935     25932     25931     25934     25936
     25932     25931     25934     25937     25933     25931     25934     25935
     25933     25931     25934     25936     25933     25931     25934     25937
     25934     25937     25940     25941     25934     25937     25940     25942
     25934     25937     25940     25943     25935     25934     25937     25938
     25935     25934     25937     25939     25935     25934     25937     25940
     25936     25934     25937     25938     25936     25934     25937     25939
     25936     25934     25937     25940     25937     25940     25943     25944
     25937     25940     25943     25945     25937     25940     25943     25946
     25938     25937     25940     25941     25938     25937     25940     25942
     25938     25937     25940     25943     25939     25937     25940     25941
     25939     25937     25940     25942     25939     25937     25940     25943
     25940     25943     25946     25947     25940     25943     25946     25948
     25940     25943     25946     25949     25941     25940     25943     25944
     25941     25940     25943     25945     25941     25940     25943     25946
     25942     25940     25943     25944     25942     25940     25943     25945
     25942     25940     25943     25946     25943     25946     25949     25950
     25943     25946     25949     25951     25944     25943     25946     25947
     25944     25943     25946     25948     25944     25943     25946     25949
     25945     25943     25946     25947     25945     25943     25946     25948
     25945     25943     25946     25949     25946     25949     25951     25952
     25946     25949     25951     25953     25947     25946     25949     25950
     25947     25946     25949     25951     25948     25946     25949     25950
     25948     25946     25949     25951     25949     25951     25953     25954
     25949     25951     25953     25955     25949     25951     25953     25956
     25950     25949     25951     25952     25950     25949     25951     25953
     25951     25953     25956     25957     25951     25953     25956     25958
     25951     25953     25956     25959     25952     25951     25953     25954
     25952     25951     25953     25955     25952     25951     25953     25956
     25953     25956     25959     25960     25953     25956     25959     25961
     25953     25956     25959     25962     25954     25953     25956     25957
     25954     25953     25956     25958     25954     25953     25956     25959
     25955     25953     25956     25957     25955     25953     25956     25958
     25955     25953     25956     25959     25956     25959     25962     25963
     25956     25959     25962     25964     25956     25959     25962     25965
     25957     25956     25959     25960     25957     25956     25959     25961
     25957     25956     25959     25962     25958     25956     25959     25960
     25958     25956     25959     25961     25958     25956     25959     25962
     25959     25962     25965     25966     25959     25962     25965     25967
     25959     25962     25965     25968     25960     25959     25962     25963
     25960     25959     25962     25964     25960     25959     25962     25965
     25961     25959     25962     25963     25961     25959     25962     25964
     25961     25959     25962     25965     25962     25965     25968     25969
     25962     25965     25968     25970     25962     25965     25968     25971
     25963     25962     25965     25966     25963     25962     25965     25967
     25963     25962     25965     25968     25964     25962     25965     25966
     25964     25962     25965     25967     25964     25962     25965     25968
     25965     25968     25971     25972     25965     25968     25971     25973
     25965     25968     25971     25974     25966     25965     25968     25969
     25966     25965     25968     25970     25966     25965     25968     25971
     25967     25965     25968     25969     25967     25965     25968     25970
     25967     25965     25968     25971     25968     25971     25974     25975
     25968     25971     25974     25976     25968     25971     25974     25977
     25969     25968     25971     25972     25969     25968     25971     25973
     25969     25968     25971     25974     25970     25968     25971     25972
     25970     25968     25971     25973     25970     25968     25971     25974
     25972     25971     25974     25975     25972     25971     25974     25976
     25972     25971     25974     25977     25973     25971     25974     25975
     25973     25971     25974     25976     25973     25971     25974     25977
     25978     25981     25984     25985     25978     25981     25984     25986
     25978     25981     25984     25987     25979     25978     25981     25982
     25979     25978     25981     25983     25979     25978     25981     25984
     25980     25978     25981     25982     25980     25978     25981     25983
     25980     25978     25981     25984     25981     25984     25987     25988
     25981     25984     25987     25989     25981     25984     25987     25990
     25982     25981     25984     25985     25982     25981     25984     25986
     25982     25981     25984     25987     25983     25981     25984     25985
     25983     25981     25984     25986     25983     25981     25984     25987
     25984     25987     25990     25991     25984     25987     25990     25992
     25984     25987     25990     25993     25985     25984     25987     25988
     25985     25984     25987     25989     25985     25984     25987     25990
     25986     25984     25987     25988     25986     25984     25987     25989
     25986     25984     25987     25990     25987     25990     25993     25994
     25987     25990     25993     25995     25987     25990     25993     25996
     25988     25987     25990     25991     25988     25987     25990     25992
     25988     25987     25990     25993     25989     25987     25990     25991
     25989     25987     25990     25992     25989     25987     25990     25993
     25990     25993     25996     25997     25990     25993     25996     25998
     25990     25993     25996     25999     25991     25990     25993     25994
     25991     25990     25993     25995     25991     25990     25993     25996
     25992     25990     25993     25994     25992     25990     25993     25995
     25992     25990     25993     25996     25993     25996     25999     26000
     25993     25996     25999     26001     25993     25996     25999     26002
     25994     25993     25996     25997     25994     25993     25996     25998
     25994     25993     25996     25999     25995     25993     25996     25997
     25995     25993     25996     25998     25995     25993     25996     25999
     25996     25999     26002     26003     25996     25999     26002     26004
     25996     25999     26002     26005     25997     25996     25999     26000
     25997     25996     25999     26001     25997     25996     25999     26002
     25998     25996     25999     26000     25998     25996     25999     26001
     25998     25996     25999     26002     25999     26002     26005     26006
     25999     26002     26005     26007     25999     26002     26005     26008
     26000     25999     26002     26003     26000     25999     26002     26004
     26000     25999     26002     26005     26001     25999     26002     26003
     26001     25999     26002     26004     26001     25999     26002     26005
     26002     26005     26008     26009     26002     26005     26008     26010
     26002     26005     26008     26011     26003     26002     26005     26006
     26003     26002     26005     26007     26003     26002     26005     26008
     26004     26002     26005     26006     26004     26002     26005     26007
     26004     26002     26005     26008     26005     26008     26011     26012
     26005     26008     26011     26013     26005     26008     26011     26014
     26006     26005     26008     26009     26006     26005     26008     26010
     26006     26005     26008     26011     26007     26005     26008     26009
     26007     26005     26008     26010     26007     26005     26008     26011
     26008     26011     26014     26015     26008     26011     26014     26016
     26008     26011     26014     26017     26009     26008     26011     26012
     26009     26008     26011     26013     26009     26008     26011     26014
     26010     26008     26011     26012     26010     26008     26011     26013
     26010     26008     26011     26014     26011     26014     26017     26018
     26011     26014     26017     26019     26011     26014     26017     26020
     26012     26011     26014     26015     26012     26011     26014     26016
     26012     26011     26014     26017     26013     26011     26014     26015
     26013     26011     26014     26016     26013     26011     26014     26017
     26015     26014     26017     26018     26015     26014     26017     26019
     26015     26014     26017     26020     26016     26014     26017     26018
     26016     26014     26017     26019     26016     26014     26017     26020
     26021     26025     26028     26029     26021     26025     26028     26030
     26021     26025     26028     26035     26022     26021     26025     26026
     26022     26021     26025     26027     26022     26021     26025     26028
     26023     26021     26025     26026     26023     26021     26025     26027
     26023     26021     26025     26028     26024     26021     26025     26026
     26024     26021     26025     26027     26024     26021     26025     26028
     26025     26028     26035     26031     26026     26025     26028     26029
     26026     26025     26028     26030     26026     26025     26028     26035
     26027     26025     26028     26029     26027     26025     26028     26030
     26027     26025     26028     26035     26028     26035     26031     26032
     26028     26035     26031     26033     26028     26035     26031     26034
     26029     26028     26035     26031     26030     26028     26035     26031
     26031     26034     26036     26037     26031     26034     26036     26038
     26031     26034     26036     26039     26032     26031     26034     26036
     26033     26031     26034     26036     26034     26036     26039     26040
     26034     26036     26039     26041     26034     26036     26039     26047
     26035     26031     26034     26036     26036     26039     26041     26042
     26036     26039     26047     26048     26036     26039     26047     26049
     26036     26039     26047     26050     26037     26036     26039     26040
     26037     26036     26039     26041     26037     26036     26039     26047
     26038     26036     26039     26040     26038     26036     26039     26041
     26038     26036     26039     26047     26039     26041     26042     26043
     26039     26041     26042     26044     26039     26047     26050     26051
     26040     26039     26041     26042     26040     26039     26047     26048
     26040     26039     26047     26049     26040     26039     26047     26050
     26041     26039     26047     26048     26041     26039     26047     26049
     26041     26039     26047     26050     26041     26042     26044     26045
     26041     26042     26044     26046     26041     26042     26044     26056
     26042     26041     26039     26047     26042     26044     26056     26057
     26042     26044     26056     26058     26042     26044     26056     26059
     26043     26042     26044     26045     26043     26042     26044     26046
     26043     26042     26044     26056     26044     26056     26059     26060
     26044     26056     26059     26061     26044     26056     26059     26062
     26045     26044     26056     26057     26045     26044     26056     26058
     26045     26044     26056     26059     26046     26044     26056     26057
     26046     26044     26056     26058     26046     26044     26056     26059
     26047     26050     26051     26052     26047     26050     26051     26053
     26048     26047     26050     26051     26049     26047     26050     26051
     26050     26051     26053     26054     26050     26051     26053     26055
     26050     26051     26053     26103     26051     26053     26103     26104
     26051     26053     26103     26105     26051     26053     26103     26106
     26052     26051     26053     26054     26052     26051     26053     26055
     26052     26051     26053     26103     26053     26103     26106     26107
     26053     26103     26106     26108     26053     26103     26106     26109
     26054     26053     26103     26104     26054     26053     26103     26105
     26054     26053     26103     26106     26055     26053     26103     26104
     26055     26053     26103     26105     26055     26053     26103     26106
     26056     26059     26062     26063     26056     26059     26062     26064
     26056     26059     26062     26065     26057     26056     26059     26060
     26057     26056     26059     26061     26057     26056     26059     26062
     26058     26056     26059     26060     26058     26056     26059     26061
     26058     26056     26059     26062     26059     26062     26065     26066
     26059     26062     26065     26067     26059     26062     26065     26068
     26060     26059     26062     26063     26060     26059     26062     26064
     26060     26059     26062     26065     26061     26059     26062     26063
     26061     26059     26062     26064     26061     26059     26062     26065
     26062     26065     26068     26069     26062     26065     26068     26070
     26062     26065     26068     26071     26063     26062     26065     26066
     26063     26062     26065     26067     26063     26062     26065     26068
     26064     26062     26065     26066     26064     26062     26065     26067
     26064     26062     26065     26068     26065     26068     26071     26072
     26065     26068     26071     26073     26065     26068     26071     26074
     26066     26065     26068     26069     26066     26065     26068     26070
     26066     26065     26068     26071     26067     26065     26068     26069
     26067     26065     26068     26070     26067     26065     26068     26071
     26068     26071     26074     26075     26068     26071     26074     26076
     26069     26068     26071     26072     26069     26068     26071     26073
     26069     26068     26071     26074     26070     26068     26071     26072
     26070     26068     26071     26073     26070     26068     26071     26074
     26071     26074     26076     26077     26071     26074     26076     26078
     26072     26071     26074     26075     26072     26071     26074     26076
     26073     26071     26074     26075     26073     26071     26074     26076
     26074     26076     26078     26079     26074     26076     26078     26080
     26074     26076     26078     26081     26075     26074     26076     26077
     26075     26074     26076     26078     26076     26078     26081     26082
     26076     26078     26081     26083     26076     26078     26081     26084
     26077     26076     26078     26079     26077     26076     26078     26080
     26077     26076     26078     26081     26078     26081     26084     26085
     26078     26081     26084     26086     26078     26081     26084     26087
     26079     26078     26081     26082     26079     26078     26081     26083
     26079     26078     26081     26084     26080     26078     26081     26082
     26080     26078     26081     26083     26080     26078     26081     26084
     26081     26084     26087     26088     26081     26084     26087     26089
     26081     26084     26087     26090     26082     26081     26084     26085
     26082     26081     26084     26086     26082     26081     26084     26087
     26083     26081     26084     26085     26083     26081     26084     26086
     26083     26081     26084     26087     26084     26087     26090     26091
     26084     26087     26090     26092     26084     26087     26090     26093
     26085     26084     26087     26088     26085     26084     26087     26089
     26085     26084     26087     26090     26086     26084     26087     26088
     26086     26084     26087     26089     26086     26084     26087     26090
     26087     26090     26093     26094     26087     26090     26093     26095
     26087     26090     26093     26096     26088     26087     26090     26091
     26088     26087     26090     26092     26088     26087     26090     26093
     26089     26087     26090     26091     26089     26087     26090     26092
     26089     26087     26090     26093     26090     26093     26096     26097
     26090     26093     26096     26098     26090     26093     26096     26099
     26091     26090     26093     26094     26091     26090     26093     26095
     26091     26090     26093     26096     26092     26090     26093     26094
     26092     26090     26093     26095     26092     26090     26093     26096
     26093     26096     26099     26100     26093     26096     26099     26101
     26093     26096     26099     26102     26094     26093     26096     26097
     26094     26093     26096     26098     26094     26093     26096     26099
     26095     26093     26096     26097     26095     26093     26096     26098
     26095     26093     26096     26099     26097     26096     26099     26100
     26097     26096     26099     26101     26097     26096     26099     26102
     26098     26096     26099     26100     26098     26096     26099     26101
     26098     26096     26099     26102     26103     26106     26109     26110
     26103     26106     26109     26111     26103     26106     26109     26112
     26104     26103     26106     26107     26104     26103     26106     26108
     26104     26103     26106     26109     26105     26103     26106     26107
     26105     26103     26106     26108     26105     26103     26106     26109
     26106     26109     26112     26113     26106     26109     26112     26114
     26106     26109     26112     26115     26107     26106     26109     26110
     26107     26106     26109     26111     26107     26106     26109     26112
     26108     26106     26109     26110     26108     26106     26109     26111
     26108     26106     26109     26112     26109     26112     26115     26116
     26109     26112     26115     26117     26109     26112     26115     26118
     26110     26109     26112     26113     26110     26109     26112     26114
     26110     26109     26112     26115     26111     26109     26112     26113
     26111     26109     26112     26114     26111     26109     26112     26115
     26112     26115     26118     26119     26112     26115     26118     26120
     26112     26115     26118     26121     26113     26112     26115     26116
     26113     26112     26115     26117     26113     26112     26115     26118
     26114     26112     26115     26116     26114     26112     26115     26117
     26114     26112     26115     26118     26115     26118     26121     26122
     26115     26118     26121     26123     26115     26118     26121     26124
     26116     26115     26118     26119     26116     26115     26118     26120
     26116     26115     26118     26121     26117     26115     26118     26119
     26117     26115     26118     26120     26117     26115     26118     26121
     26118     26121     26124     26125     26118     26121     26124     26126
     26118     26121     26124     26127     26119     26118     26121     26122
     26119     26118     26121     26123     26119     26118     26121     26124
     26120     26118     26121     26122     26120     26118     26121     26123
     26120     26118     26121     26124     26121     26124     26127     26128
     26121     26124     26127     26129     26121     26124     26127     26130
     26122     26121     26124     26125     26122     26121     26124     26126
     26122     26121     26124     26127     26123     26121     26124     26125
     26123     26121     26124     26126     26123     26121     26124     26127
     26124     26127     26130     26131     26124     26127     26130     26132
     26124     26127     26130     26133     26125     26124     26127     26128
     26125     26124     26127     26129     26125     26124     26127     26130
     26126     26124     26127     26128     26126     26124     26127     26129
     26126     26124     26127     26130     26127     26130     26133     26134
     26127     26130     26133     26135     26127     26130     26133     26136
     26128     26127     26130     26131     26128     26127     26130     26132
     26128     26127     26130     26133     26129     26127     26130     26131
     26129     26127     26130     26132     26129     26127     26130     26133
     26130     26133     26136     26137     26130     26133     26136     26138
     26130     26133     26136     26139     26131     26130     26133     26134
     26131     26130     26133     26135     26131     26130     26133     26136
     26132     26130     26133     26134     26132     26130     26133     26135
     26132     26130     26133     26136     26133     26136     26139     26140
     26133     26136     26139     26141     26133     26136     26139     26142
     26134     26133     26136     26137     26134     26133     26136     26138
     26134     26133     26136     26139     26135     26133     26136     26137
     26135     26133     26136     26138     26135     26133     26136     26139
     26136     26139     26142     26143     26136     26139     26142     26144
     26136     26139     26142     26145     26137     26136     26139     26140
     26137     26136     26139     26141     26137     26136     26139     26142
     26138     26136     26139     26140     26138     26136     26139     26141
     26138     26136     26139     26142     26140     26139     26142     26143
     26140     26139     26142     26144     26140     26139     26142     26145
     26141     26139     26142     26143     26141     26139     26142     26144
     26141     26139     26142     26145     26146     26147     26162     26163
     26146     26147     26162     26164     26146     26147     26162     26168
     26147     26146     26150     26151     26147     26146     26150     26152
     26147     26146     26150     26153     26147     26146     26154     26155
     26147     26146     26154     26156     26147     26146     26154     26157
     26147     26146     26158     26159     26147     26146     26158     26160
     26147     26146     26158     26161     26147     26162     26168     26165
     26148     26147     26146     26150     26148     26147     26146     26154
     26148     26147     26146     26158     26148     26147     26162     26163
     26148     26147     26162     26164     26148     26147     26162     26168
     26149     26147     26146     26150     26149     26147     26146     26154
     26149     26147     26146     26158     26149     26147     26162     26163
     26149     26147     26162     26164     26149     26147     26162     26168
     26150     26146     26147     26162     26150     26146     26154     26155
     26150     26146     26154     26156     26150     26146     26154     26157
     26150     26146     26158     26159     26150     26146     26158     26160
     26150     26146     26158     26161     26151     26150     26146     26154
     26151     26150     26146     26158     26152     26150     26146     26154
     26152     26150     26146     26158     26153     26150     26146     26154
     26153     26150     26146     26158     26154     26146     26147     26162
     26154     26146     26158     26159     26154     26146     26158     26160
     26154     26146     26158     26161     26155     26154     26146     26158
     26156     26154     26146     26158     26157     26154     26146     26158
     26158     26146     26147     26162     26162     26168     26165     26166
     26162     26168     26165     26167     26162     26168     26165     26169
     26163     26162     26168     26165     26164     26162     26168     26165
     26165     26169     26170     26171     26165     26169     26170     26172
     26165     26169     26170     26173     26166     26165     26169     26170
     26167     26165     26169     26170     26168     26165     26169     26170
     26169     26170     26173     26174     26169     26170     26173     26175
     26169     26170     26173     26181     26170     26173     26175     26176
     26170     26173     26181     26182     26170     26173     26181     26183
     26170     26173     26181     26184     26171     26170     26173     26174
     26171     26170     26173     26175     26171     26170     26173     26181
     26172     26170     26173     26174     26172     26170     26173     26175
     26172     26170     26173     26181     26173     26175     26176     26177
     26173     26175     26176     26178     26173     26181     26184     26185
     26174     26173     26175     26176     26174     26173     26181     26182
     26174     26173     26181     26183     26174     26173     26181     26184
     26175     26173     26181     26182     26175     26173     26181     26183
     26175     26173     26181     26184     26175     26176     26178     26179
     26175     26176     26178     26180     26175     26176     26178     26190
     26176     26175     26173     26181     26176     26178     26190     26191
     26176     26178     26190     26192     26176     26178     26190     26193
     26177     26176     26178     26179     26177     26176     26178     26180
     26177     26176     26178     26190     26178     26190     26193     26194
     26178     26190     26193     26195     26178     26190     26193     26196
     26179     26178     26190     26191     26179     26178     26190     26192
     26179     26178     26190     26193     26180     26178     26190     26191
     26180     26178     26190     26192     26180     26178     26190     26193
     26181     26184     26185     26186     26181     26184     26185     26187
     26182     26181     26184     26185     26183     26181     26184     26185
     26184     26185     26187     26188     26184     26185     26187     26189
     26184     26185     26187     26237     26185     26187     26237     26238
     26185     26187     26237     26239     26185     26187     26237     26240
     26186     26185     26187     26188     26186     26185     26187     26189
     26186     26185     26187     26237     26187     26237     26240     26241
     26187     26237     26240     26242     26187     26237     26240     26243
     26188     26187     26237     26238     26188     26187     26237     26239
     26188     26187     26237     26240     26189     26187     26237     26238
     26189     26187     26237     26239     26189     26187     26237     26240
     26190     26193     26196     26197     26190     26193     26196     26198
     26190     26193     26196     26199     26191     26190     26193     26194
     26191     26190     26193     26195     26191     26190     26193     26196
     26192     26190     26193     26194     26192     26190     26193     26195
     26192     26190     26193     26196     26193     26196     26199     26200
     26193     26196     26199     26201     26193     26196     26199     26202
     26194     26193     26196     26197     26194     26193     26196     26198
     26194     26193     26196     26199     26195     26193     26196     26197
     26195     26193     26196     26198     26195     26193     26196     26199
     26196     26199     26202     26203     26196     26199     26202     26204
     26196     26199     26202     26205     26197     26196     26199     26200
     26197     26196     26199     26201     26197     26196     26199     26202
     26198     26196     26199     26200     26198     26196     26199     26201
     26198     26196     26199     26202     26199     26202     26205     26206
     26199     26202     26205     26207     26199     26202     26205     26208
     26200     26199     26202     26203     26200     26199     26202     26204
     26200     26199     26202     26205     26201     26199     26202     26203
     26201     26199     26202     26204     26201     26199     26202     26205
     26202     26205     26208     26209     26202     26205     26208     26210
     26203     26202     26205     26206     26203     26202     26205     26207
     26203     26202     26205     26208     26204     26202     26205     26206
     26204     26202     26205     26207     26204     26202     26205     26208
     26205     26208     26210     26211     26205     26208     26210     26212
     26206     26205     26208     26209     26206     26205     26208     26210
     26207     26205     26208     26209     26207     26205     26208     26210
     26208     26210     26212     26213     26208     26210     26212     26214
     26208     26210     26212     26215     26209     26208     26210     26211
     26209     26208     26210     26212     26210     26212     26215     26216
     26210     26212     26215     26217     26210     26212     26215     26218
     26211     26210     26212     26213     26211     26210     26212     26214
     26211     26210     26212     26215     26212     26215     26218     26219
     26212     26215     26218     26220     26212     26215     26218     26221
     26213     26212     26215     26216     26213     26212     26215     26217
     26213     26212     26215     26218     26214     26212     26215     26216
     26214     26212     26215     26217     26214     26212     26215     26218
     26215     26218     26221     26222     26215     26218     26221     26223
     26215     26218     26221     26224     26216     26215     26218     26219
     26216     26215     26218     26220     26216     26215     26218     26221
     26217     26215     26218     26219     26217     26215     26218     26220
     26217     26215     26218     26221     26218     26221     26224     26225
     26218     26221     26224     26226     26218     26221     26224     26227
     26219     26218     26221     26222     26219     26218     26221     26223
     26219     26218     26221     26224     26220     26218     26221     26222
     26220     26218     26221     26223     26220     26218     26221     26224
     26221     26224     26227     26228     26221     26224     26227     26229
     26221     26224     26227     26230     26222     26221     26224     26225
     26222     26221     26224     26226     26222     26221     26224     26227
     26223     26221     26224     26225     26223     26221     26224     26226
     26223     26221     26224     26227     26224     26227     26230     26231
     26224     26227     26230     26232     26224     26227     26230     26233
     26225     26224     26227     26228     26225     26224     26227     26229
     26225     26224     26227     26230     26226     26224     26227     26228
     26226     26224     26227     26229     26226     26224     26227     26230
     26227     26230     26233     26234     26227     26230     26233     26235
     26227     26230     26233     26236     26228     26227     26230     26231
     26228     26227     26230     26232     26228     26227     26230     26233
     26229     26227     26230     26231     26229     26227     26230     26232
     26229     26227     26230     26233     26231     26230     26233     26234
     26231     26230     26233     26235     26231     26230     26233     26236
     26232     26230     26233     26234     26232     26230     26233     26235
     26232     26230     26233     26236     26237     26240     26243     26244
     26237     26240     26243     26245     26237     26240     26243     26246
     26238     26237     26240     26241     26238     26237     26240     26242
     26238     26237     26240     26243     26239     26237     26240     26241
     26239     26237     26240     26242     26239     26237     26240     26243
     26240     26243     26246     26247     26240     26243     26246     26248
     26240     26243     26246     26249     26241     26240     26243     26244
     26241     26240     26243     26245     26241     26240     26243     26246
     26242     26240     26243     26244     26242     26240     26243     26245
     26242     26240     26243     26246     26243     26246     26249     26250
     26243     26246     26249     26251     26243     26246     26249     26252
     26244     26243     26246     26247     26244     26243     26246     26248
     26244     26243     26246     26249     26245     26243     26246     26247
     26245     26243     26246     26248     26245     26243     26246     26249
     26246     26249     26252     26253     26246     26249     26252     26254
     26246     26249     26252     26255     26247     26246     26249     26250
     26247     26246     26249     26251     26247     26246     26249     26252
     26248     26246     26249     26250     26248     26246     26249     26251
     26248     26246     26249     26252     26249     26252     26255     26256
     26249     26252     26255     26257     26249     26252     26255     26258
     26250     26249     26252     26253     26250     26249     26252     26254
     26250     26249     26252     26255     26251     26249     26252     26253
     26251     26249     26252     26254     26251     26249     26252     26255
     26252     26255     26258     26259     26252     26255     26258     26260
     26252     26255     26258     26261     26253     26252     26255     26256
     26253     26252     26255     26257     26253     26252     26255     26258
     26254     26252     26255     26256     26254     26252     26255     26257
     26254     26252     26255     26258     26255     26258     26261     26262
     26255     26258     26261     26263     26255     26258     26261     26264
     26256     26255     26258     26259     26256     26255     26258     26260
     26256     26255     26258     26261     26257     26255     26258     26259
     26257     26255     26258     26260     26257     26255     26258     26261
     26258     26261     26264     26265     26258     26261     26264     26266
     26258     26261     26264     26267     26259     26258     26261     26262
     26259     26258     26261     26263     26259     26258     26261     26264
     26260     26258     26261     26262     26260     26258     26261     26263
     26260     26258     26261     26264     26261     26264     26267     26268
     26261     26264     26267     26269     26261     26264     26267     26270
     26262     26261     26264     26265     26262     26261     26264     26266
     26262     26261     26264     26267     26263     26261     26264     26265
     26263     26261     26264     26266     26263     26261     26264     26267
     26264     26267     26270     26271     26264     26267     26270     26272
     26264     26267     26270     26273     26265     26264     26267     26268
     26265     26264     26267     26269     26265     26264     26267     26270
     26266     26264     26267     26268     26266     26264     26267     26269
     26266     26264     26267     26270     26267     26270     26273     26274
     26267     26270     26273     26275     26267     26270     26273     26276
     26268     26267     26270     26271     26268     26267     26270     26272
     26268     26267     26270     26273     26269     26267     26270     26271
     26269     26267     26270     26272     26269     26267     26270     26273
     26270     26273     26276     26277     26270     26273     26276     26278
     26270     26273     26276     26279     26271     26270     26273     26274
     26271     26270     26273     26275     26271     26270     26273     26276
     26272     26270     26273     26274     26272     26270     26273     26275
     26272     26270     26273     26276     26274     26273     26276     26277
     26274     26273     26276     26278     26274     26273     26276     26279
     26275     26273     26276     26277     26275     26273     26276     26278
     26275     26273     26276     26279     26280     26281     26296     26297
     26280     26281     26296     26298     26280     26281     26296     26302
     26281     26280     26284     26285     26281     26280     26284     26286
     26281     26280     26284     26287     26281     26280     26288     26289
     26281     26280     26288     26290     26281     26280     26288     26291
     26281     26280     26292     26293     26281     26280     26292     26294
     26281     26280     26292     26295     26281     26296     26302     26299
     26282     26281     26280     26284     26282     26281     26280     26288
     26282     26281     26280     26292     26282     26281     26296     26297
     26282     26281     26296     26298     26282     26281     26296     26302
     26283     26281     26280     26284     26283     26281     26280     26288
     26283     26281     26280     26292     26283     26281     26296     26297
     26283     26281     26296     26298     26283     26281     26296     26302
     26284     26280     26281     26296     26284     26280     26288     26289
     26284     26280     26288     26290     26284     26280     26288     26291
     26284     26280     26292     26293     26284     26280     26292     26294
     26284     26280     26292     26295     26285     26284     26280     26288
     26285     26284     26280     26292     26286     26284     26280     26288
     26286     26284     26280     26292     26287     26284     26280     26288
     26287     26284     26280     26292     26288     26280     26281     26296
     26288     26280     26292     26293     26288     26280     26292     26294
     26288     26280     26292     26295     26289     26288     26280     26292
     26290     26288     26280     26292     26291     26288     26280     26292
     26292     26280     26281     26296     26296     26302     26299     26300
     26296     26302     26299     26301     26296     26302     26299     26303
     26297     26296     26302     26299     26298     26296     26302     26299
     26299     26303     26304     26305     26299     26303     26304     26306
     26299     26303     26304     26307     26300     26299     26303     26304
     26301     26299     26303     26304     26302     26299     26303     26304
     26303     26304     26307     26308     26303     26304     26307     26309
     26303     26304     26307     26315     26304     26307     26309     26310
     26304     26307     26315     26316     26304     26307     26315     26317
     26304     26307     26315     26318     26305     26304     26307     26308
     26305     26304     26307     26309     26305     26304     26307     26315
     26306     26304     26307     26308     26306     26304     26307     26309
     26306     26304     26307     26315     26307     26309     26310     26311
     26307     26309     26310     26312     26307     26315     26318     26319
     26308     26307     26309     26310     26308     26307     26315     26316
     26308     26307     26315     26317     26308     26307     26315     26318
     26309     26307     26315     26316     26309     26307     26315     26317
     26309     26307     26315     26318     26309     26310     26312     26313
     26309     26310     26312     26314     26309     26310     26312     26324
     26310     26309     26307     26315     26310     26312     26324     26325
     26310     26312     26324     26326     26310     26312     26324     26327
     26311     26310     26312     26313     26311     26310     26312     26314
     26311     26310     26312     26324     26312     26324     26327     26328
     26312     26324     26327     26329     26312     26324     26327     26330
     26313     26312     26324     26325     26313     26312     26324     26326
     26313     26312     26324     26327     26314     26312     26324     26325
     26314     26312     26324     26326     26314     26312     26324     26327
     26315     26318     26319     26320     26315     26318     26319     26321
     26316     26315     26318     26319     26317     26315     26318     26319
     26318     26319     26321     26322     26318     26319     26321     26323
     26318     26319     26321     26371     26319     26321     26371     26372
     26319     26321     26371     26373     26319     26321     26371     26374
     26320     26319     26321     26322     26320     26319     26321     26323
     26320     26319     26321     26371     26321     26371     26374     26375
     26321     26371     26374     26376     26321     26371     26374     26377
     26322     26321     26371     26372     26322     26321     26371     26373
     26322     26321     26371     26374     26323     26321     26371     26372
     26323     26321     26371     26373     26323     26321     26371     26374
     26324     26327     26330     26331     26324     26327     26330     26332
     26324     26327     26330     26333     26325     26324     26327     26328
     26325     26324     26327     26329     26325     26324     26327     26330
     26326     26324     26327     26328     26326     26324     26327     26329
     26326     26324     26327     26330     26327     26330     26333     26334
     26327     26330     26333     26335     26327     26330     26333     26336
     26328     26327     26330     26331     26328     26327     26330     26332
     26328     26327     26330     26333     26329     26327     26330     26331
     26329     26327     26330     26332     26329     26327     26330     26333
     26330     26333     26336     26337     26330     26333     26336     26338
     26330     26333     26336     26339     26331     26330     26333     26334
     26331     26330     26333     26335     26331     26330     26333     26336
     26332     26330     26333     26334     26332     26330     26333     26335
     26332     26330     26333     26336     26333     26336     26339     26340
     26333     26336     26339     26341     26333     26336     26339     26342
     26334     26333     26336     26337     26334     26333     26336     26338
     26334     26333     26336     26339     26335     26333     26336     26337
     26335     26333     26336     26338     26335     26333     26336     26339
     26336     26339     26342     26343     26336     26339     26342     26344
     26337     26336     26339     26340     26337     26336     26339     26341
     26337     26336     26339     26342     26338     26336     26339     26340
     26338     26336     26339     26341     26338     26336     26339     26342
     26339     26342     26344     26345     26339     26342     26344     26346
     26340     26339     26342     26343     26340     26339     26342     26344
     26341     26339     26342     26343     26341     26339     26342     26344
     26342     26344     26346     26347     26342     26344     26346     26348
     26342     26344     26346     26349     26343     26342     26344     26345
     26343     26342     26344     26346     26344     26346     26349     26350
     26344     26346     26349     26351     26344     26346     26349     26352
     26345     26344     26346     26347     26345     26344     26346     26348
     26345     26344     26346     26349     26346     26349     26352     26353
     26346     26349     26352     26354     26346     26349     26352     26355
     26347     26346     26349     26350     26347     26346     26349     26351
     26347     26346     26349     26352     26348     26346     26349     26350
     26348     26346     26349     26351     26348     26346     26349     26352
     26349     26352     26355     26356     26349     26352     26355     26357
     26349     26352     26355     26358     26350     26349     26352     26353
     26350     26349     26352     26354     26350     26349     26352     26355
     26351     26349     26352     26353     26351     26349     26352     26354
     26351     26349     26352     26355     26352     26355     26358     26359
     26352     26355     26358     26360     26352     26355     26358     26361
     26353     26352     26355     26356     26353     26352     26355     26357
     26353     26352     26355     26358     26354     26352     26355     26356
     26354     26352     26355     26357     26354     26352     26355     26358
     26355     26358     26361     26362     26355     26358     26361     26363
     26355     26358     26361     26364     26356     26355     26358     26359
     26356     26355     26358     26360     26356     26355     26358     26361
     26357     26355     26358     26359     26357     26355     26358     26360
     26357     26355     26358     26361     26358     26361     26364     26365
     26358     26361     26364     26366     26358     26361     26364     26367
     26359     26358     26361     26362     26359     26358     26361     26363
     26359     26358     26361     26364     26360     26358     26361     26362
     26360     26358     26361     26363     26360     26358     26361     26364
     26361     26364     26367     26368     26361     26364     26367     26369
     26361     26364     26367     26370     26362     26361     26364     26365
     26362     26361     26364     26366     26362     26361     26364     26367
     26363     26361     26364     26365     26363     26361     26364     26366
     26363     26361     26364     26367     26365     26364     26367     26368
     26365     26364     26367     26369     26365     26364     26367     26370
     26366     26364     26367     26368     26366     26364     26367     26369
     26366     26364     26367     26370     26371     26374     26377     26378
     26371     26374     26377     26379     26371     26374     26377     26380
     26372     26371     26374     26375     26372     26371     26374     26376
     26372     26371     26374     26377     26373     26371     26374     26375
     26373     26371     26374     26376     26373     26371     26374     26377
     26374     26377     26380     26381     26374     26377     26380     26382
     26374     26377     26380     26383     26375     26374     26377     26378
     26375     26374     26377     26379     26375     26374     26377     26380
     26376     26374     26377     26378     26376     26374     26377     26379
     26376     26374     26377     26380     26377     26380     26383     26384
     26377     26380     26383     26385     26377     26380     26383     26386
     26378     26377     26380     26381     26378     26377     26380     26382
     26378     26377     26380     26383     26379     26377     26380     26381
     26379     26377     26380     26382     26379     26377     26380     26383
     26380     26383     26386     26387     26380     26383     26386     26388
     26380     26383     26386     26389     26381     26380     26383     26384
     26381     26380     26383     26385     26381     26380     26383     26386
     26382     26380     26383     26384     26382     26380     26383     26385
     26382     26380     26383     26386     26383     26386     26389     26390
     26383     26386     26389     26391     26383     26386     26389     26392
     26384     26383     26386     26387     26384     26383     26386     26388
     26384     26383     26386     26389     26385     26383     26386     26387
     26385     26383     26386     26388     26385     26383     26386     26389
     26386     26389     26392     26393     26386     26389     26392     26394
     26386     26389     26392     26395     26387     26386     26389     26390
     26387     26386     26389     26391     26387     26386     26389     26392
     26388     26386     26389     26390     26388     26386     26389     26391
     26388     26386     26389     26392     26389     26392     26395     26396
     26389     26392     26395     26397     26389     26392     26395     26398
     26390     26389     26392     26393     26390     26389     26392     26394
     26390     26389     26392     26395     26391     26389     26392     26393
     26391     26389     26392     26394     26391     26389     26392     26395
     26392     26395     26398     26399     26392     26395     26398     26400
     26392     26395     26398     26401     26393     26392     26395     26396
     26393     26392     26395     26397     26393     26392     26395     26398
     26394     26392     26395     26396     26394     26392     26395     26397
     26394     26392     26395     26398     26395     26398     26401     26402
     26395     26398     26401     26403     26395     26398     26401     26404
     26396     26395     26398     26399     26396     26395     26398     26400
     26396     26395     26398     26401     26397     26395     26398     26399
     26397     26395     26398     26400     26397     26395     26398     26401
     26398     26401     26404     26405     26398     26401     26404     26406
     26398     26401     26404     26407     26399     26398     26401     26402
     26399     26398     26401     26403     26399     26398     26401     26404
     26400     26398     26401     26402     26400     26398     26401     26403
     26400     26398     26401     26404     26401     26404     26407     26408
     26401     26404     26407     26409     26401     26404     26407     26410
     26402     26401     26404     26405     26402     26401     26404     26406
     26402     26401     26404     26407     26403     26401     26404     26405
     26403     26401     26404     26406     26403     26401     26404     26407
     26404     26407     26410     26411     26404     26407     26410     26412
     26404     26407     26410     26413     26405     26404     26407     26408
     26405     26404     26407     26409     26405     26404     26407     26410
     26406     26404     26407     26408     26406     26404     26407     26409
     26406     26404     26407     26410     26408     26407     26410     26411
     26408     26407     26410     26412     26408     26407     26410     26413
     26409     26407     26410     26411     26409     26407     26410     26412
     26409     26407     26410     26413     26414     26418     26421     26422
     26414     26418     26421     26423     26414     26418     26421     26428
     26415     26414     26418     26419     26415     26414     26418     26420
     26415     26414     26418     26421     26416     26414     26418     26419
     26416     26414     26418     26420     26416     26414     26418     26421
     26417     26414     26418     26419     26417     26414     26418     26420
     26417     26414     26418     26421     26418     26421     26428     26424
     26419     26418     26421     26422     26419     26418     26421     26423
     26419     26418     26421     26428     26420     26418     26421     26422
     26420     26418     26421     26423     26420     26418     26421     26428
     26421     26428     26424     26425     26421     26428     26424     26426
     26421     26428     26424     26427     26422     26421     26428     26424
     26423     26421     26428     26424     26424     26427     26429     26430
     26424     26427     26429     26431     26424     26427     26429     26432
     26425     26424     26427     26429     26426     26424     26427     26429
     26427     26429     26432     26433     26427     26429     26432     26434
     26427     26429     26432     26440     26428     26424     26427     26429
     26429     26432     26434     26435     26429     26432     26440     26441
     26429     26432     26440     26442     26429     26432     26440     26443
     26430     26429     26432     26433     26430     26429     26432     26434
     26430     26429     26432     26440     26431     26429     26432     26433
     26431     26429     26432     26434     26431     26429     26432     26440
     26432     26434     26435     26436     26432     26434     26435     26437
     26432     26440     26443     26444     26433     26432     26434     26435
     26433     26432     26440     26441     26433     26432     26440     26442
     26433     26432     26440     26443     26434     26432     26440     26441
     26434     26432     26440     26442     26434     26432     26440     26443
     26434     26435     26437     26438     26434     26435     26437     26439
     26434     26435     26437     26449     26435     26434     26432     26440
     26435     26437     26449     26450     26435     26437     26449     26451
     26435     26437     26449     26452     26436     26435     26437     26438
     26436     26435     26437     26439     26436     26435     26437     26449
     26437     26449     26452     26453     26437     26449     26452     26454
     26437     26449     26452     26455     26438     26437     26449     26450
     26438     26437     26449     26451     26438     26437     26449     26452
     26439     26437     26449     26450     26439     26437     26449     26451
     26439     26437     26449     26452     26440     26443     26444     26445
     26440     26443     26444     26446     26441     26440     26443     26444
     26442     26440     26443     26444     26443     26444     26446     26447
     26443     26444     26446     26448     26443     26444     26446     26496
     26444     26446     26496     26497     26444     26446     26496     26498
     26444     26446     26496     26499     26445     26444     26446     26447
     26445     26444     26446     26448     26445     26444     26446     26496
     26446     26496     26499     26500     26446     26496     26499     26501
     26446     26496     26499     26502     26447     26446     26496     26497
     26447     26446     26496     26498     26447     26446     26496     26499
     26448     26446     26496     26497     26448     26446     26496     26498
     26448     26446     26496     26499     26449     26452     26455     26456
     26449     26452     26455     26457     26449     26452     26455     26458
     26450     26449     26452     26453     26450     26449     26452     26454
     26450     26449     26452     26455     26451     26449     26452     26453
     26451     26449     26452     26454     26451     26449     26452     26455
     26452     26455     26458     26459     26452     26455     26458     26460
     26452     26455     26458     26461     26453     26452     26455     26456
     26453     26452     26455     26457     26453     26452     26455     26458
     26454     26452     26455     26456     26454     26452     26455     26457
     26454     26452     26455     26458     26455     26458     26461     26462
     26455     26458     26461     26463     26455     26458     26461     26464
     26456     26455     26458     26459     26456     26455     26458     26460
     26456     26455     26458     26461     26457     26455     26458     26459
     26457     26455     26458     26460     26457     26455     26458     26461
     26458     26461     26464     26465     26458     26461     26464     26466
     26458     26461     26464     26467     26459     26458     26461     26462
     26459     26458     26461     26463     26459     26458     26461     26464
     26460     26458     26461     26462     26460     26458     26461     26463
     26460     26458     26461     26464     26461     26464     26467     26468
     26461     26464     26467     26469     26462     26461     26464     26465
     26462     26461     26464     26466     26462     26461     26464     26467
     26463     26461     26464     26465     26463     26461     26464     26466
     26463     26461     26464     26467     26464     26467     26469     26470
     26464     26467     26469     26471     26465     26464     26467     26468
     26465     26464     26467     26469     26466     26464     26467     26468
     26466     26464     26467     26469     26467     26469     26471     26472
     26467     26469     26471     26473     26467     26469     26471     26474
     26468     26467     26469     26470     26468     26467     26469     26471
     26469     26471     26474     26475     26469     26471     26474     26476
     26469     26471     26474     26477     26470     26469     26471     26472
     26470     26469     26471     26473     26470     26469     26471     26474
     26471     26474     26477     26478     26471     26474     26477     26479
     26471     26474     26477     26480     26472     26471     26474     26475
     26472     26471     26474     26476     26472     26471     26474     26477
     26473     26471     26474     26475     26473     26471     26474     26476
     26473     26471     26474     26477     26474     26477     26480     26481
     26474     26477     26480     26482     26474     26477     26480     26483
     26475     26474     26477     26478     26475     26474     26477     26479
     26475     26474     26477     26480     26476     26474     26477     26478
     26476     26474     26477     26479     26476     26474     26477     26480
     26477     26480     26483     26484     26477     26480     26483     26485
     26477     26480     26483     26486     26478     26477     26480     26481
     26478     26477     26480     26482     26478     26477     26480     26483
     26479     26477     26480     26481     26479     26477     26480     26482
     26479     26477     26480     26483     26480     26483     26486     26487
     26480     26483     26486     26488     26480     26483     26486     26489
     26481     26480     26483     26484     26481     26480     26483     26485
     26481     26480     26483     26486     26482     26480     26483     26484
     26482     26480     26483     26485     26482     26480     26483     26486
     26483     26486     26489     26490     26483     26486     26489     26491
     26483     26486     26489     26492     26484     26483     26486     26487
     26484     26483     26486     26488     26484     26483     26486     26489
     26485     26483     26486     26487     26485     26483     26486     26488
     26485     26483     26486     26489     26486     26489     26492     26493
     26486     26489     26492     26494     26486     26489     26492     26495
     26487     26486     26489     26490     26487     26486     26489     26491
     26487     26486     26489     26492     26488     26486     26489     26490
     26488     26486     26489     26491     26488     26486     26489     26492
     26490     26489     26492     26493     26490     26489     26492     26494
     26490     26489     26492     26495     26491     26489     26492     26493
     26491     26489     26492     26494     26491     26489     26492     26495
     26496     26499     26502     26503     26496     26499     26502     26504
     26496     26499     26502     26505     26497     26496     26499     26500
     26497     26496     26499     26501     26497     26496     26499     26502
     26498     26496     26499     26500     26498     26496     26499     26501
     26498     26496     26499     26502     26499     26502     26505     26506
     26499     26502     26505     26507     26499     26502     26505     26508
     26500     26499     26502     26503     26500     26499     26502     26504
     26500     26499     26502     26505     26501     26499     26502     26503
     26501     26499     26502     26504     26501     26499     26502     26505
     26502     26505     26508     26509     26502     26505     26508     26510
     26502     26505     26508     26511     26503     26502     26505     26506
     26503     26502     26505     26507     26503     26502     26505     26508
     26504     26502     26505     26506     26504     26502     26505     26507
     26504     26502     26505     26508     26505     26508     26511     26512
     26505     26508     26511     26513     26505     26508     26511     26514
     26506     26505     26508     26509     26506     26505     26508     26510
     26506     26505     26508     26511     26507     26505     26508     26509
     26507     26505     26508     26510     26507     26505     26508     26511
     26508     26511     26514     26515     26508     26511     26514     26516
     26508     26511     26514     26517     26509     26508     26511     26512
     26509     26508     26511     26513     26509     26508     26511     26514
     26510     26508     26511     26512     26510     26508     26511     26513
     26510     26508     26511     26514     26511     26514     26517     26518
     26511     26514     26517     26519     26511     26514     26517     26520
     26512     26511     26514     26515     26512     26511     26514     26516
     26512     26511     26514     26517     26513     26511     26514     26515
     26513     26511     26514     26516     26513     26511     26514     26517
     26514     26517     26520     26521     26514     26517     26520     26522
     26514     26517     26520     26523     26515     26514     26517     26518
     26515     26514     26517     26519     26515     26514     26517     26520
     26516     26514     26517     26518     26516     26514     26517     26519
     26516     26514     26517     26520     26517     26520     26523     26524
     26517     26520     26523     26525     26517     26520     26523     26526
     26518     26517     26520     26521     26518     26517     26520     26522
     26518     26517     26520     26523     26519     26517     26520     26521
     26519     26517     26520     26522     26519     26517     26520     26523
     26520     26523     26526     26527     26520     26523     26526     26528
     26520     26523     26526     26529     26521     26520     26523     26524
     26521     26520     26523     26525     26521     26520     26523     26526
     26522     26520     26523     26524     26522     26520     26523     26525
     26522     26520     26523     26526     26523     26526     26529     26530
     26523     26526     26529     26531     26523     26526     26529     26532
     26524     26523     26526     26527     26524     26523     26526     26528
     26524     26523     26526     26529     26525     26523     26526     26527
     26525     26523     26526     26528     26525     26523     26526     26529
     26526     26529     26532     26533     26526     26529     26532     26534
     26526     26529     26532     26535     26527     26526     26529     26530
     26527     26526     26529     26531     26527     26526     26529     26532
     26528     26526     26529     26530     26528     26526     26529     26531
     26528     26526     26529     26532     26529     26532     26535     26536
     26529     26532     26535     26537     26529     26532     26535     26538
     26530     26529     26532     26533     26530     26529     26532     26534
     26530     26529     26532     26535     26531     26529     26532     26533
     26531     26529     26532     26534     26531     26529     26532     26535
     26533     26532     26535     26536     26533     26532     26535     26537
     26533     26532     26535     26538     26534     26532     26535     26536
     26534     26532     26535     26537     26534     26532     26535     26538
     26539     26543     26546     26547     26539     26543     26546     26548
     26539     26543     26546     26553     26540     26539     26543     26544
     26540     26539     26543     26545     26540     26539     26543     26546
     26541     26539     26543     26544     26541     26539     26543     26545
     26541     26539     26543     26546     26542     26539     26543     26544
     26542     26539     26543     26545     26542     26539     26543     26546
     26543     26546     26553     26549     26544     26543     26546     26547
     26544     26543     26546     26548     26544     26543     26546     26553
     26545     26543     26546     26547     26545     26543     26546     26548
     26545     26543     26546     26553     26546     26553     26549     26550
     26546     26553     26549     26551     26546     26553     26549     26552
     26547     26546     26553     26549     26548     26546     26553     26549
     26549     26552     26554     26555     26549     26552     26554     26556
     26549     26552     26554     26557     26550     26549     26552     26554
     26551     26549     26552     26554     26552     26554     26557     26558
     26552     26554     26557     26559     26552     26554     26557     26565
     26553     26549     26552     26554     26554     26557     26559     26560
     26554     26557     26565     26566     26554     26557     26565     26567
     26554     26557     26565     26568     26555     26554     26557     26558
     26555     26554     26557     26559     26555     26554     26557     26565
     26556     26554     26557     26558     26556     26554     26557     26559
     26556     26554     26557     26565     26557     26559     26560     26561
     26557     26559     26560     26562     26557     26565     26568     26569
     26558     26557     26559     26560     26558     26557     26565     26566
     26558     26557     26565     26567     26558     26557     26565     26568
     26559     26557     26565     26566     26559     26557     26565     26567
     26559     26557     26565     26568     26559     26560     26562     26563
     26559     26560     26562     26564     26559     26560     26562     26574
     26560     26559     26557     26565     26560     26562     26574     26575
     26560     26562     26574     26576     26560     26562     26574     26577
     26561     26560     26562     26563     26561     26560     26562     26564
     26561     26560     26562     26574     26562     26574     26577     26578
     26562     26574     26577     26579     26562     26574     26577     26580
     26563     26562     26574     26575     26563     26562     26574     26576
     26563     26562     26574     26577     26564     26562     26574     26575
     26564     26562     26574     26576     26564     26562     26574     26577
     26565     26568     26569     26570     26565     26568     26569     26571
     26566     26565     26568     26569     26567     26565     26568     26569
     26568     26569     26571     26572     26568     26569     26571     26573
     26568     26569     26571     26621     26569     26571     26621     26622
     26569     26571     26621     26623     26569     26571     26621     26624
     26570     26569     26571     26572     26570     26569     26571     26573
     26570     26569     26571     26621     26571     26621     26624     26625
     26571     26621     26624     26626     26571     26621     26624     26627
     26572     26571     26621     26622     26572     26571     26621     26623
     26572     26571     26621     26624     26573     26571     26621     26622
     26573     26571     26621     26623     26573     26571     26621     26624
     26574     26577     26580     26581     26574     26577     26580     26582
     26574     26577     26580     26583     26575     26574     26577     26578
     26575     26574     26577     26579     26575     26574     26577     26580
     26576     26574     26577     26578     26576     26574     26577     26579
     26576     26574     26577     26580     26577     26580     26583     26584
     26577     26580     26583     26585     26577     26580     26583     26586
     26578     26577     26580     26581     26578     26577     26580     26582
     26578     26577     26580     26583     26579     26577     26580     26581
     26579     26577     26580     26582     26579     26577     26580     26583
     26580     26583     26586     26587     26580     26583     26586     26588
     26580     26583     26586     26589     26581     26580     26583     26584
     26581     26580     26583     26585     26581     26580     26583     26586
     26582     26580     26583     26584     26582     26580     26583     26585
     26582     26580     26583     26586     26583     26586     26589     26590
     26583     26586     26589     26591     26583     26586     26589     26592
     26584     26583     26586     26587     26584     26583     26586     26588
     26584     26583     26586     26589     26585     26583     26586     26587
     26585     26583     26586     26588     26585     26583     26586     26589
     26586     26589     26592     26593     26586     26589     26592     26594
     26587     26586     26589     26590     26587     26586     26589     26591
     26587     26586     26589     26592     26588     26586     26589     26590
     26588     26586     26589     26591     26588     26586     26589     26592
     26589     26592     26594     26595     26589     26592     26594     26596
     26590     26589     26592     26593     26590     26589     26592     26594
     26591     26589     26592     26593     26591     26589     26592     26594
     26592     26594     26596     26597     26592     26594     26596     26598
     26592     26594     26596     26599     26593     26592     26594     26595
     26593     26592     26594     26596     26594     26596     26599     26600
     26594     26596     26599     26601     26594     26596     26599     26602
     26595     26594     26596     26597     26595     26594     26596     26598
     26595     26594     26596     26599     26596     26599     26602     26603
     26596     26599     26602     26604     26596     26599     26602     26605
     26597     26596     26599     26600     26597     26596     26599     26601
     26597     26596     26599     26602     26598     26596     26599     26600
     26598     26596     26599     26601     26598     26596     26599     26602
     26599     26602     26605     26606     26599     26602     26605     26607
     26599     26602     26605     26608     26600     26599     26602     26603
     26600     26599     26602     26604     26600     26599     26602     26605
     26601     26599     26602     26603     26601     26599     26602     26604
     26601     26599     26602     26605     26602     26605     26608     26609
     26602     26605     26608     26610     26602     26605     26608     26611
     26603     26602     26605     26606     26603     26602     26605     26607
     26603     26602     26605     26608     26604     26602     26605     26606
     26604     26602     26605     26607     26604     26602     26605     26608
     26605     26608     26611     26612     26605     26608     26611     26613
     26605     26608     26611     26614     26606     26605     26608     26609
     26606     26605     26608     26610     26606     26605     26608     26611
     26607     26605     26608     26609     26607     26605     26608     26610
     26607     26605     26608     26611     26608     26611     26614     26615
     26608     26611     26614     26616     26608     26611     26614     26617
     26609     26608     26611     26612     26609     26608     26611     26613
     26609     26608     26611     26614     26610     26608     26611     26612
     26610     26608     26611     26613     26610     26608     26611     26614
     26611     26614     26617     26618     26611     26614     26617     26619
     26611     26614     26617     26620     26612     26611     26614     26615
     26612     26611     26614     26616     26612     26611     26614     26617
     26613     26611     26614     26615     26613     26611     26614     26616
     26613     26611     26614     26617     26615     26614     26617     26618
     26615     26614     26617     26619     26615     26614     26617     26620
     26616     26614     26617     26618     26616     26614     26617     26619
     26616     26614     26617     26620     26621     26624     26627     26628
     26621     26624     26627     26629     26621     26624     26627     26630
     26622     26621     26624     26625     26622     26621     26624     26626
     26622     26621     26624     26627     26623     26621     26624     26625
     26623     26621     26624     26626     26623     26621     26624     26627
     26624     26627     26630     26631     26624     26627     26630     26632
     26624     26627     26630     26633     26625     26624     26627     26628
     26625     26624     26627     26629     26625     26624     26627     26630
     26626     26624     26627     26628     26626     26624     26627     26629
     26626     26624     26627     26630     26627     26630     26633     26634
     26627     26630     26633     26635     26627     26630     26633     26636
     26628     26627     26630     26631     26628     26627     26630     26632
     26628     26627     26630     26633     26629     26627     26630     26631
     26629     26627     26630     26632     26629     26627     26630     26633
     26630     26633     26636     26637     26630     26633     26636     26638
     26630     26633     26636     26639     26631     26630     26633     26634
     26631     26630     26633     26635     26631     26630     26633     26636
     26632     26630     26633     26634     26632     26630     26633     26635
     26632     26630     26633     26636     26633     26636     26639     26640
     26633     26636     26639     26641     26633     26636     26639     26642
     26634     26633     26636     26637     26634     26633     26636     26638
     26634     26633     26636     26639     26635     26633     26636     26637
     26635     26633     26636     26638     26635     26633     26636     26639
     26636     26639     26642     26643     26636     26639     26642     26644
     26636     26639     26642     26645     26637     26636     26639     26640
     26637     26636     26639     26641     26637     26636     26639     26642
     26638     26636     26639     26640     26638     26636     26639     26641
     26638     26636     26639     26642     26639     26642     26645     26646
     26639     26642     26645     26647     26639     26642     26645     26648
     26640     26639     26642     26643     26640     26639     26642     26644
     26640     26639     26642     26645     26641     26639     26642     26643
     26641     26639     26642     26644     26641     26639     26642     26645
     26642     26645     26648     26649     26642     26645     26648     26650
     26642     26645     26648     26651     26643     26642     26645     26646
     26643     26642     26645     26647     26643     26642     26645     26648
     26644     26642     26645     26646     26644     26642     26645     26647
     26644     26642     26645     26648     26645     26648     26651     26652
     26645     26648     26651     26653     26645     26648     26651     26654
     26646     26645     26648     26649     26646     26645     26648     26650
     26646     26645     26648     26651     26647     26645     26648     26649
     26647     26645     26648     26650     26647     26645     26648     26651
     26648     26651     26654     26655     26648     26651     26654     26656
     26648     26651     26654     26657     26649     26648     26651     26652
     26649     26648     26651     26653     26649     26648     26651     26654
     26650     26648     26651     26652     26650     26648     26651     26653
     26650     26648     26651     26654     26651     26654     26657     26658
     26651     26654     26657     26659     26651     26654     26657     26660
     26652     26651     26654     26655     26652     26651     26654     26656
     26652     26651     26654     26657     26653     26651     26654     26655
     26653     26651     26654     26656     26653     26651     26654     26657
     26654     26657     26660     26661     26654     26657     26660     26662
     26654     26657     26660     26663     26655     26654     26657     26658
     26655     26654     26657     26659     26655     26654     26657     26660
     26656     26654     26657     26658     26656     26654     26657     26659
     26656     26654     26657     26660     26658     26657     26660     26661
     26658     26657     26660     26662     26658     26657     26660     26663
     26659     26657     26660     26661     26659     26657     26660     26662
     26659     26657     26660     26663     26664     26668     26671     26672
     26664     26668     26671     26673     26664     26668     26671     26678
     26665     26664     26668     26669     26665     26664     26668     26670
     26665     26664     26668     26671     26666     26664     26668     26669
     26666     26664     26668     26670     26666     26664     26668     26671
     26667     26664     26668     26669     26667     26664     26668     26670
     26667     26664     26668     26671     26668     26671     26678     26674
     26669     26668     26671     26672     26669     26668     26671     26673
     26669     26668     26671     26678     26670     26668     26671     26672
     26670     26668     26671     26673     26670     26668     26671     26678
     26671     26678     26674     26675     26671     26678     26674     26676
     26671     26678     26674     26677     26672     26671     26678     26674
     26673     26671     26678     26674     26674     26677     26679     26680
     26674     26677     26679     26681     26674     26677     26679     26682
     26675     26674     26677     26679     26676     26674     26677     26679
     26677     26679     26682     26683     26677     26679     26682     26684
     26677     26679     26682     26690     26678     26674     26677     26679
     26679     26682     26684     26685     26679     26682     26690     26691
     26679     26682     26690     26692     26679     26682     26690     26693
     26680     26679     26682     26683     26680     26679     26682     26684
     26680     26679     26682     26690     26681     26679     26682     26683
     26681     26679     26682     26684     26681     26679     26682     26690
     26682     26684     26685     26686     26682     26684     26685     26687
     26682     26690     26693     26694     26683     26682     26684     26685
     26683     26682     26690     26691     26683     26682     26690     26692
     26683     26682     26690     26693     26684     26682     26690     26691
     26684     26682     26690     26692     26684     26682     26690     26693
     26684     26685     26687     26688     26684     26685     26687     26689
     26684     26685     26687     26699     26685     26684     26682     26690
     26685     26687     26699     26700     26685     26687     26699     26701
     26685     26687     26699     26702     26686     26685     26687     26688
     26686     26685     26687     26689     26686     26685     26687     26699
     26687     26699     26702     26703     26687     26699     26702     26704
     26687     26699     26702     26705     26688     26687     26699     26700
     26688     26687     26699     26701     26688     26687     26699     26702
     26689     26687     26699     26700     26689     26687     26699     26701
     26689     26687     26699     26702     26690     26693     26694     26695
     26690     26693     26694     26696     26691     26690     26693     26694
     26692     26690     26693     26694     26693     26694     26696     26697
     26693     26694     26696     26698     26693     26694     26696     26746
     26694     26696     26746     26747     26694     26696     26746     26748
     26694     26696     26746     26749     26695     26694     26696     26697
     26695     26694     26696     26698     26695     26694     26696     26746
     26696     26746     26749     26750     26696     26746     26749     26751
     26696     26746     26749     26752     26697     26696     26746     26747
     26697     26696     26746     26748     26697     26696     26746     26749
     26698     26696     26746     26747     26698     26696     26746     26748
     26698     26696     26746     26749     26699     26702     26705     26706
     26699     26702     26705     26707     26699     26702     26705     26708
     26700     26699     26702     26703     26700     26699     26702     26704
     26700     26699     26702     26705     26701     26699     26702     26703
     26701     26699     26702     26704     26701     26699     26702     26705
     26702     26705     26708     26709     26702     26705     26708     26710
     26702     26705     26708     26711     26703     26702     26705     26706
     26703     26702     26705     26707     26703     26702     26705     26708
     26704     26702     26705     26706     26704     26702     26705     26707
     26704     26702     26705     26708     26705     26708     26711     26712
     26705     26708     26711     26713     26705     26708     26711     26714
     26706     26705     26708     26709     26706     26705     26708     26710
     26706     26705     26708     26711     26707     26705     26708     26709
     26707     26705     26708     26710     26707     26705     26708     26711
     26708     26711     26714     26715     26708     26711     26714     26716
     26708     26711     26714     26717     26709     26708     26711     26712
     26709     26708     26711     26713     26709     26708     26711     26714
     26710     26708     26711     26712     26710     26708     26711     26713
     26710     26708     26711     26714     26711     26714     26717     26718
     26711     26714     26717     26719     26712     26711     26714     26715
     26712     26711     26714     26716     26712     26711     26714     26717
     26713     26711     26714     26715     26713     26711     26714     26716
     26713     26711     26714     26717     26714     26717     26719     26720
     26714     26717     26719     26721     26715     26714     26717     26718
     26715     26714     26717     26719     26716     26714     26717     26718
     26716     26714     26717     26719     26717     26719     26721     26722
     26717     26719     26721     26723     26717     26719     26721     26724
     26718     26717     26719     26720     26718     26717     26719     26721
     26719     26721     26724     26725     26719     26721     26724     26726
     26719     26721     26724     26727     26720     26719     26721     26722
     26720     26719     26721     26723     26720     26719     26721     26724
     26721     26724     26727     26728     26721     26724     26727     26729
     26721     26724     26727     26730     26722     26721     26724     26725
     26722     26721     26724     26726     26722     26721     26724     26727
     26723     26721     26724     26725     26723     26721     26724     26726
     26723     26721     26724     26727     26724     26727     26730     26731
     26724     26727     26730     26732     26724     26727     26730     26733
     26725     26724     26727     26728     26725     26724     26727     26729
     26725     26724     26727     26730     26726     26724     26727     26728
     26726     26724     26727     26729     26726     26724     26727     26730
     26727     26730     26733     26734     26727     26730     26733     26735
     26727     26730     26733     26736     26728     26727     26730     26731
     26728     26727     26730     26732     26728     26727     26730     26733
     26729     26727     26730     26731     26729     26727     26730     26732
     26729     26727     26730     26733     26730     26733     26736     26737
     26730     26733     26736     26738     26730     26733     26736     26739
     26731     26730     26733     26734     26731     26730     26733     26735
     26731     26730     26733     26736     26732     26730     26733     26734
     26732     26730     26733     26735     26732     26730     26733     26736
     26733     26736     26739     26740     26733     26736     26739     26741
     26733     26736     26739     26742     26734     26733     26736     26737
     26734     26733     26736     26738     26734     26733     26736     26739
     26735     26733     26736     26737     26735     26733     26736     26738
     26735     26733     26736     26739     26736     26739     26742     26743
     26736     26739     26742     26744     26736     26739     26742     26745
     26737     26736     26739     26740     26737     26736     26739     26741
     26737     26736     26739     26742     26738     26736     26739     26740
     26738     26736     26739     26741     26738     26736     26739     26742
     26740     26739     26742     26743     26740     26739     26742     26744
     26740     26739     26742     26745     26741     26739     26742     26743
     26741     26739     26742     26744     26741     26739     26742     26745
     26746     26749     26752     26753     26746     26749     26752     26754
     26746     26749     26752     26755     26747     26746     26749     26750
     26747     26746     26749     26751     26747     26746     26749     26752
     26748     26746     26749     26750     26748     26746     26749     26751
     26748     26746     26749     26752     26749     26752     26755     26756
     26749     26752     26755     26757     26749     26752     26755     26758
     26750     26749     26752     26753     26750     26749     26752     26754
     26750     26749     26752     26755     26751     26749     26752     26753
     26751     26749     26752     26754     26751     26749     26752     26755
     26752     26755     26758     26759     26752     26755     26758     26760
     26752     26755     26758     26761     26753     26752     26755     26756
     26753     26752     26755     26757     26753     26752     26755     26758
     26754     26752     26755     26756     26754     26752     26755     26757
     26754     26752     26755     26758     26755     26758     26761     26762
     26755     26758     26761     26763     26755     26758     26761     26764
     26756     26755     26758     26759     26756     26755     26758     26760
     26756     26755     26758     26761     26757     26755     26758     26759
     26757     26755     26758     26760     26757     26755     26758     26761
     26758     26761     26764     26765     26758     26761     26764     26766
     26758     26761     26764     26767     26759     26758     26761     26762
     26759     26758     26761     26763     26759     26758     26761     26764
     26760     26758     26761     26762     26760     26758     26761     26763
     26760     26758     26761     26764     26761     26764     26767     26768
     26761     26764     26767     26769     26761     26764     26767     26770
     26762     26761     26764     26765     26762     26761     26764     26766
     26762     26761     26764     26767     26763     26761     26764     26765
     26763     26761     26764     26766     26763     26761     26764     26767
     26764     26767     26770     26771     26764     26767     26770     26772
     26764     26767     26770     26773     26765     26764     26767     26768
     26765     26764     26767     26769     26765     26764     26767     26770
     26766     26764     26767     26768     26766     26764     26767     26769
     26766     26764     26767     26770     26767     26770     26773     26774
     26767     26770     26773     26775     26767     26770     26773     26776
     26768     26767     26770     26771     26768     26767     26770     26772
     26768     26767     26770     26773     26769     26767     26770     26771
     26769     26767     26770     26772     26769     26767     26770     26773
     26770     26773     26776     26777     26770     26773     26776     26778
     26770     26773     26776     26779     26771     26770     26773     26774
     26771     26770     26773     26775     26771     26770     26773     26776
     26772     26770     26773     26774     26772     26770     26773     26775
     26772     26770     26773     26776     26773     26776     26779     26780
     26773     26776     26779     26781     26773     26776     26779     26782
     26774     26773     26776     26777     26774     26773     26776     26778
     26774     26773     26776     26779     26775     26773     26776     26777
     26775     26773     26776     26778     26775     26773     26776     26779
     26776     26779     26782     26783     26776     26779     26782     26784
     26776     26779     26782     26785     26777     26776     26779     26780
     26777     26776     26779     26781     26777     26776     26779     26782
     26778     26776     26779     26780     26778     26776     26779     26781
     26778     26776     26779     26782     26779     26782     26785     26786
     26779     26782     26785     26787     26779     26782     26785     26788
     26780     26779     26782     26783     26780     26779     26782     26784
     26780     26779     26782     26785     26781     26779     26782     26783
     26781     26779     26782     26784     26781     26779     26782     26785
     26783     26782     26785     26786     26783     26782     26785     26787
     26783     26782     26785     26788     26784     26782     26785     26786
     26784     26782     26785     26787     26784     26782     26785     26788
     26789     26793     26796     26797     26789     26793     26796     26798
     26789     26793     26796     26803     26790     26789     26793     26794
     26790     26789     26793     26795     26790     26789     26793     26796
     26791     26789     26793     26794     26791     26789     26793     26795
     26791     26789     26793     26796     26792     26789     26793     26794
     26792     26789     26793     26795     26792     26789     26793     26796
     26793     26796     26803     26799     26794     26793     26796     26797
     26794     26793     26796     26798     26794     26793     26796     26803
     26795     26793     26796     26797     26795     26793     26796     26798
     26795     26793     26796     26803     26796     26803     26799     26800
     26796     26803     26799     26801     26796     26803     26799     26802
     26797     26796     26803     26799     26798     26796     26803     26799
     26799     26802     26804     26805     26799     26802     26804     26806
     26799     26802     26804     26807     26800     26799     26802     26804
     26801     26799     26802     26804     26802     26804     26807     26808
     26802     26804     26807     26809     26802     26804     26807     26815
     26803     26799     26802     26804     26804     26807     26809     26810
     26804     26807     26815     26816     26804     26807     26815     26817
     26804     26807     26815     26818     26805     26804     26807     26808
     26805     26804     26807     26809     26805     26804     26807     26815
     26806     26804     26807     26808     26806     26804     26807     26809
     26806     26804     26807     26815     26807     26809     26810     26811
     26807     26809     26810     26812     26807     26815     26818     26819
     26808     26807     26809     26810     26808     26807     26815     26816
     26808     26807     26815     26817     26808     26807     26815     26818
     26809     26807     26815     26816     26809     26807     26815     26817
     26809     26807     26815     26818     26809     26810     26812     26813
     26809     26810     26812     26814     26809     26810     26812     26824
     26810     26809     26807     26815     26810     26812     26824     26825
     26810     26812     26824     26826     26810     26812     26824     26827
     26811     26810     26812     26813     26811     26810     26812     26814
     26811     26810     26812     26824     26812     26824     26827     26828
     26812     26824     26827     26829     26812     26824     26827     26830
     26813     26812     26824     26825     26813     26812     26824     26826
     26813     26812     26824     26827     26814     26812     26824     26825
     26814     26812     26824     26826     26814     26812     26824     26827
     26815     26818     26819     26820     26815     26818     26819     26821
     26816     26815     26818     26819     26817     26815     26818     26819
     26818     26819     26821     26822     26818     26819     26821     26823
     26818     26819     26821     26871     26819     26821     26871     26872
     26819     26821     26871     26873     26819     26821     26871     26874
     26820     26819     26821     26822     26820     26819     26821     26823
     26820     26819     26821     26871     26821     26871     26874     26875
     26821     26871     26874     26876     26821     26871     26874     26877
     26822     26821     26871     26872     26822     26821     26871     26873
     26822     26821     26871     26874     26823     26821     26871     26872
     26823     26821     26871     26873     26823     26821     26871     26874
     26824     26827     26830     26831     26824     26827     26830     26832
     26824     26827     26830     26833     26825     26824     26827     26828
     26825     26824     26827     26829     26825     26824     26827     26830
     26826     26824     26827     26828     26826     26824     26827     26829
     26826     26824     26827     26830     26827     26830     26833     26834
     26827     26830     26833     26835     26827     26830     26833     26836
     26828     26827     26830     26831     26828     26827     26830     26832
     26828     26827     26830     26833     26829     26827     26830     26831
     26829     26827     26830     26832     26829     26827     26830     26833
     26830     26833     26836     26837     26830     26833     26836     26838
     26830     26833     26836     26839     26831     26830     26833     26834
     26831     26830     26833     26835     26831     26830     26833     26836
     26832     26830     26833     26834     26832     26830     26833     26835
     26832     26830     26833     26836     26833     26836     26839     26840
     26833     26836     26839     26841     26833     26836     26839     26842
     26834     26833     26836     26837     26834     26833     26836     26838
     26834     26833     26836     26839     26835     26833     26836     26837
     26835     26833     26836     26838     26835     26833     26836     26839
     26836     26839     26842     26843     26836     26839     26842     26844
     26837     26836     26839     26840     26837     26836     26839     26841
     26837     26836     26839     26842     26838     26836     26839     26840
     26838     26836     26839     26841     26838     26836     26839     26842
     26839     26842     26844     26845     26839     26842     26844     26846
     26840     26839     26842     26843     26840     26839     26842     26844
     26841     26839     26842     26843     26841     26839     26842     26844
     26842     26844     26846     26847     26842     26844     26846     26848
     26842     26844     26846     26849     26843     26842     26844     26845
     26843     26842     26844     26846     26844     26846     26849     26850
     26844     26846     26849     26851     26844     26846     26849     26852
     26845     26844     26846     26847     26845     26844     26846     26848
     26845     26844     26846     26849     26846     26849     26852     26853
     26846     26849     26852     26854     26846     26849     26852     26855
     26847     26846     26849     26850     26847     26846     26849     26851
     26847     26846     26849     26852     26848     26846     26849     26850
     26848     26846     26849     26851     26848     26846     26849     26852
     26849     26852     26855     26856     26849     26852     26855     26857
     26849     26852     26855     26858     26850     26849     26852     26853
     26850     26849     26852     26854     26850     26849     26852     26855
     26851     26849     26852     26853     26851     26849     26852     26854
     26851     26849     26852     26855     26852     26855     26858     26859
     26852     26855     26858     26860     26852     26855     26858     26861
     26853     26852     26855     26856     26853     26852     26855     26857
     26853     26852     26855     26858     26854     26852     26855     26856
     26854     26852     26855     26857     26854     26852     26855     26858
     26855     26858     26861     26862     26855     26858     26861     26863
     26855     26858     26861     26864     26856     26855     26858     26859
     26856     26855     26858     26860     26856     26855     26858     26861
     26857     26855     26858     26859     26857     26855     26858     26860
     26857     26855     26858     26861     26858     26861     26864     26865
     26858     26861     26864     26866     26858     26861     26864     26867
     26859     26858     26861     26862     26859     26858     26861     26863
     26859     26858     26861     26864     26860     26858     26861     26862
     26860     26858     26861     26863     26860     26858     26861     26864
     26861     26864     26867     26868     26861     26864     26867     26869
     26861     26864     26867     26870     26862     26861     26864     26865
     26862     26861     26864     26866     26862     26861     26864     26867
     26863     26861     26864     26865     26863     26861     26864     26866
     26863     26861     26864     26867     26865     26864     26867     26868
     26865     26864     26867     26869     26865     26864     26867     26870
     26866     26864     26867     26868     26866     26864     26867     26869
     26866     26864     26867     26870     26871     26874     26877     26878
     26871     26874     26877     26879     26871     26874     26877     26880
     26872     26871     26874     26875     26872     26871     26874     26876
     26872     26871     26874     26877     26873     26871     26874     26875
     26873     26871     26874     26876     26873     26871     26874     26877
     26874     26877     26880     26881     26874     26877     26880     26882
     26874     26877     26880     26883     26875     26874     26877     26878
     26875     26874     26877     26879     26875     26874     26877     26880
     26876     26874     26877     26878     26876     26874     26877     26879
     26876     26874     26877     26880     26877     26880     26883     26884
     26877     26880     26883     26885     26877     26880     26883     26886
     26878     26877     26880     26881     26878     26877     26880     26882
     26878     26877     26880     26883     26879     26877     26880     26881
     26879     26877     26880     26882     26879     26877     26880     26883
     26880     26883     26886     26887     26880     26883     26886     26888
     26880     26883     26886     26889     26881     26880     26883     26884
     26881     26880     26883     26885     26881     26880     26883     26886
     26882     26880     26883     26884     26882     26880     26883     26885
     26882     26880     26883     26886     26883     26886     26889     26890
     26883     26886     26889     26891     26883     26886     26889     26892
     26884     26883     26886     26887     26884     26883     26886     26888
     26884     26883     26886     26889     26885     26883     26886     26887
     26885     26883     26886     26888     26885     26883     26886     26889
     26886     26889     26892     26893     26886     26889     26892     26894
     26886     26889     26892     26895     26887     26886     26889     26890
     26887     26886     26889     26891     26887     26886     26889     26892
     26888     26886     26889     26890     26888     26886     26889     26891
     26888     26886     26889     26892     26889     26892     26895     26896
     26889     26892     26895     26897     26889     26892     26895     26898
     26890     26889     26892     26893     26890     26889     26892     26894
     26890     26889     26892     26895     26891     26889     26892     26893
     26891     26889     26892     26894     26891     26889     26892     26895
     26892     26895     26898     26899     26892     26895     26898     26900
     26892     26895     26898     26901     26893     26892     26895     26896
     26893     26892     26895     26897     26893     26892     26895     26898
     26894     26892     26895     26896     26894     26892     26895     26897
     26894     26892     26895     26898     26895     26898     26901     26902
     26895     26898     26901     26903     26895     26898     26901     26904
     26896     26895     26898     26899     26896     26895     26898     26900
     26896     26895     26898     26901     26897     26895     26898     26899
     26897     26895     26898     26900     26897     26895     26898     26901
     26898     26901     26904     26905     26898     26901     26904     26906
     26898     26901     26904     26907     26899     26898     26901     26902
     26899     26898     26901     26903     26899     26898     26901     26904
     26900     26898     26901     26902     26900     26898     26901     26903
     26900     26898     26901     26904     26901     26904     26907     26908
     26901     26904     26907     26909     26901     26904     26907     26910
     26902     26901     26904     26905     26902     26901     26904     26906
     26902     26901     26904     26907     26903     26901     26904     26905
     26903     26901     26904     26906     26903     26901     26904     26907
     26904     26907     26910     26911     26904     26907     26910     26912
     26904     26907     26910     26913     26905     26904     26907     26908
     26905     26904     26907     26909     26905     26904     26907     26910
     26906     26904     26907     26908     26906     26904     26907     26909
     26906     26904     26907     26910     26908     26907     26910     26911
     26908     26907     26910     26912     26908     26907     26910     26913
     26909     26907     26910     26911     26909     26907     26910     26912
     26909     26907     26910     26913     26914     26915     26930     26931
     26914     26915     26930     26932     26914     26915     26930     26936
     26915     26914     26918     26919     26915     26914     26918     26920
     26915     26914     26918     26921     26915     26914     26922     26923
     26915     26914     26922     26924     26915     26914     26922     26925
     26915     26914     26926     26927     26915     26914     26926     26928
     26915     26914     26926     26929     26915     26930     26936     26933
     26916     26915     26914     26918     26916     26915     26914     26922
     26916     26915     26914     26926     26916     26915     26930     26931
     26916     26915     26930     26932     26916     26915     26930     26936
     26917     26915     26914     26918     26917     26915     26914     26922
     26917     26915     26914     26926     26917     26915     26930     26931
     26917     26915     26930     26932     26917     26915     26930     26936
     26918     26914     26915     26930     26918     26914     26922     26923
     26918     26914     26922     26924     26918     26914     26922     26925
     26918     26914     26926     26927     26918     26914     26926     26928
     26918     26914     26926     26929     26919     26918     26914     26922
     26919     26918     26914     26926     26920     26918     26914     26922
     26920     26918     26914     26926     26921     26918     26914     26922
     26921     26918     26914     26926     26922     26914     26915     26930
     26922     26914     26926     26927     26922     26914     26926     26928
     26922     26914     26926     26929     26923     26922     26914     26926
     26924     26922     26914     26926     26925     26922     26914     26926
     26926     26914     26915     26930     26930     26936     26933     26934
     26930     26936     26933     26935     26930     26936     26933     26937
     26931     26930     26936     26933     26932     26930     26936     26933
     26933     26937     26938     26939     26933     26937     26938     26940
     26933     26937     26938     26941     26934     26933     26937     26938
     26935     26933     26937     26938     26936     26933     26937     26938
     26937     26938     26941     26942     26937     26938     26941     26943
     26937     26938     26941     26949     26938     26941     26943     26944
     26938     26941     26949     26950     26938     26941     26949     26951
     26938     26941     26949     26952     26939     26938     26941     26942
     26939     26938     26941     26943     26939     26938     26941     26949
     26940     26938     26941     26942     26940     26938     26941     26943
     26940     26938     26941     26949     26941     26943     26944     26945
     26941     26943     26944     26946     26941     26949     26952     26953
     26942     26941     26943     26944     26942     26941     26949     26950
     26942     26941     26949     26951     26942     26941     26949     26952
     26943     26941     26949     26950     26943     26941     26949     26951
     26943     26941     26949     26952     26943     26944     26946     26947
     26943     26944     26946     26948     26943     26944     26946     26958
     26944     26943     26941     26949     26944     26946     26958     26959
     26944     26946     26958     26960     26944     26946     26958     26961
     26945     26944     26946     26947     26945     26944     26946     26948
     26945     26944     26946     26958     26946     26958     26961     26962
     26946     26958     26961     26963     26946     26958     26961     26964
     26947     26946     26958     26959     26947     26946     26958     26960
     26947     26946     26958     26961     26948     26946     26958     26959
     26948     26946     26958     26960     26948     26946     26958     26961
     26949     26952     26953     26954     26949     26952     26953     26955
     26950     26949     26952     26953     26951     26949     26952     26953
     26952     26953     26955     26956     26952     26953     26955     26957
     26952     26953     26955     27005     26953     26955     27005     27006
     26953     26955     27005     27007     26953     26955     27005     27008
     26954     26953     26955     26956     26954     26953     26955     26957
     26954     26953     26955     27005     26955     27005     27008     27009
     26955     27005     27008     27010     26955     27005     27008     27011
     26956     26955     27005     27006     26956     26955     27005     27007
     26956     26955     27005     27008     26957     26955     27005     27006
     26957     26955     27005     27007     26957     26955     27005     27008
     26958     26961     26964     26965     26958     26961     26964     26966
     26958     26961     26964     26967     26959     26958     26961     26962
     26959     26958     26961     26963     26959     26958     26961     26964
     26960     26958     26961     26962     26960     26958     26961     26963
     26960     26958     26961     26964     26961     26964     26967     26968
     26961     26964     26967     26969     26961     26964     26967     26970
     26962     26961     26964     26965     26962     26961     26964     26966
     26962     26961     26964     26967     26963     26961     26964     26965
     26963     26961     26964     26966     26963     26961     26964     26967
     26964     26967     26970     26971     26964     26967     26970     26972
     26964     26967     26970     26973     26965     26964     26967     26968
     26965     26964     26967     26969     26965     26964     26967     26970
     26966     26964     26967     26968     26966     26964     26967     26969
     26966     26964     26967     26970     26967     26970     26973     26974
     26967     26970     26973     26975     26967     26970     26973     26976
     26968     26967     26970     26971     26968     26967     26970     26972
     26968     26967     26970     26973     26969     26967     26970     26971
     26969     26967     26970     26972     26969     26967     26970     26973
     26970     26973     26976     26977     26970     26973     26976     26978
     26971     26970     26973     26974     26971     26970     26973     26975
     26971     26970     26973     26976     26972     26970     26973     26974
     26972     26970     26973     26975     26972     26970     26973     26976
     26973     26976     26978     26979     26973     26976     26978     26980
     26974     26973     26976     26977     26974     26973     26976     26978
     26975     26973     26976     26977     26975     26973     26976     26978
     26976     26978     26980     26981     26976     26978     26980     26982
     26976     26978     26980     26983     26977     26976     26978     26979
     26977     26976     26978     26980     26978     26980     26983     26984
     26978     26980     26983     26985     26978     26980     26983     26986
     26979     26978     26980     26981     26979     26978     26980     26982
     26979     26978     26980     26983     26980     26983     26986     26987
     26980     26983     26986     26988     26980     26983     26986     26989
     26981     26980     26983     26984     26981     26980     26983     26985
     26981     26980     26983     26986     26982     26980     26983     26984
     26982     26980     26983     26985     26982     26980     26983     26986
     26983     26986     26989     26990     26983     26986     26989     26991
     26983     26986     26989     26992     26984     26983     26986     26987
     26984     26983     26986     26988     26984     26983     26986     26989
     26985     26983     26986     26987     26985     26983     26986     26988
     26985     26983     26986     26989     26986     26989     26992     26993
     26986     26989     26992     26994     26986     26989     26992     26995
     26987     26986     26989     26990     26987     26986     26989     26991
     26987     26986     26989     26992     26988     26986     26989     26990
     26988     26986     26989     26991     26988     26986     26989     26992
     26989     26992     26995     26996     26989     26992     26995     26997
     26989     26992     26995     26998     26990     26989     26992     26993
     26990     26989     26992     26994     26990     26989     26992     26995
     26991     26989     26992     26993     26991     26989     26992     26994
     26991     26989     26992     26995     26992     26995     26998     26999
     26992     26995     26998     27000     26992     26995     26998     27001
     26993     26992     26995     26996     26993     26992     26995     26997
     26993     26992     26995     26998     26994     26992     26995     26996
     26994     26992     26995     26997     26994     26992     26995     26998
     26995     26998     27001     27002     26995     26998     27001     27003
     26995     26998     27001     27004     26996     26995     26998     26999
     26996     26995     26998     27000     26996     26995     26998     27001
     26997     26995     26998     26999     26997     26995     26998     27000
     26997     26995     26998     27001     26999     26998     27001     27002
     26999     26998     27001     27003     26999     26998     27001     27004
     27000     26998     27001     27002     27000     26998     27001     27003
     27000     26998     27001     27004     27005     27008     27011     27012
     27005     27008     27011     27013     27005     27008     27011     27014
     27006     27005     27008     27009     27006     27005     27008     27010
     27006     27005     27008     27011     27007     27005     27008     27009
     27007     27005     27008     27010     27007     27005     27008     27011
     27008     27011     27014     27015     27008     27011     27014     27016
     27008     27011     27014     27017     27009     27008     27011     27012
     27009     27008     27011     27013     27009     27008     27011     27014
     27010     27008     27011     27012     27010     27008     27011     27013
     27010     27008     27011     27014     27011     27014     27017     27018
     27011     27014     27017     27019     27011     27014     27017     27020
     27012     27011     27014     27015     27012     27011     27014     27016
     27012     27011     27014     27017     27013     27011     27014     27015
     27013     27011     27014     27016     27013     27011     27014     27017
     27014     27017     27020     27021     27014     27017     27020     27022
     27014     27017     27020     27023     27015     27014     27017     27018
     27015     27014     27017     27019     27015     27014     27017     27020
     27016     27014     27017     27018     27016     27014     27017     27019
     27016     27014     27017     27020     27017     27020     27023     27024
     27017     27020     27023     27025     27017     27020     27023     27026
     27018     27017     27020     27021     27018     27017     27020     27022
     27018     27017     27020     27023     27019     27017     27020     27021
     27019     27017     27020     27022     27019     27017     27020     27023
     27020     27023     27026     27027     27020     27023     27026     27028
     27020     27023     27026     27029     27021     27020     27023     27024
     27021     27020     27023     27025     27021     27020     27023     27026
     27022     27020     27023     27024     27022     27020     27023     27025
     27022     27020     27023     27026     27023     27026     27029     27030
     27023     27026     27029     27031     27023     27026     27029     27032
     27024     27023     27026     27027     27024     27023     27026     27028
     27024     27023     27026     27029     27025     27023     27026     27027
     27025     27023     27026     27028     27025     27023     27026     27029
     27026     27029     27032     27033     27026     27029     27032     27034
     27026     27029     27032     27035     27027     27026     27029     27030
     27027     27026     27029     27031     27027     27026     27029     27032
     27028     27026     27029     27030     27028     27026     27029     27031
     27028     27026     27029     27032     27029     27032     27035     27036
     27029     27032     27035     27037     27029     27032     27035     27038
     27030     27029     27032     27033     27030     27029     27032     27034
     27030     27029     27032     27035     27031     27029     27032     27033
     27031     27029     27032     27034     27031     27029     27032     27035
     27032     27035     27038     27039     27032     27035     27038     27040
     27032     27035     27038     27041     27033     27032     27035     27036
     27033     27032     27035     27037     27033     27032     27035     27038
     27034     27032     27035     27036     27034     27032     27035     27037
     27034     27032     27035     27038     27035     27038     27041     27042
     27035     27038     27041     27043     27035     27038     27041     27044
     27036     27035     27038     27039     27036     27035     27038     27040
     27036     27035     27038     27041     27037     27035     27038     27039
     27037     27035     27038     27040     27037     27035     27038     27041
     27038     27041     27044     27045     27038     27041     27044     27046
     27038     27041     27044     27047     27039     27038     27041     27042
     27039     27038     27041     27043     27039     27038     27041     27044
     27040     27038     27041     27042     27040     27038     27041     27043
     27040     27038     27041     27044     27042     27041     27044     27045
     27042     27041     27044     27046     27042     27041     27044     27047
     27043     27041     27044     27045     27043     27041     27044     27046
     27043     27041     27044     27047     27048     27049     27064     27065
     27048     27049     27064     27066     27048     27049     27064     27070
     27049     27048     27052     27053     27049     27048     27052     27054
     27049     27048     27052     27055     27049     27048     27056     27057
     27049     27048     27056     27058     27049     27048     27056     27059
     27049     27048     27060     27061     27049     27048     27060     27062
     27049     27048     27060     27063     27049     27064     27070     27067
     27050     27049     27048     27052     27050     27049     27048     27056
     27050     27049     27048     27060     27050     27049     27064     27065
     27050     27049     27064     27066     27050     27049     27064     27070
     27051     27049     27048     27052     27051     27049     27048     27056
     27051     27049     27048     27060     27051     27049     27064     27065
     27051     27049     27064     27066     27051     27049     27064     27070
     27052     27048     27049     27064     27052     27048     27056     27057
     27052     27048     27056     27058     27052     27048     27056     27059
     27052     27048     27060     27061     27052     27048     27060     27062
     27052     27048     27060     27063     27053     27052     27048     27056
     27053     27052     27048     27060     27054     27052     27048     27056
     27054     27052     27048     27060     27055     27052     27048     27056
     27055     27052     27048     27060     27056     27048     27049     27064
     27056     27048     27060     27061     27056     27048     27060     27062
     27056     27048     27060     27063     27057     27056     27048     27060
     27058     27056     27048     27060     27059     27056     27048     27060
     27060     27048     27049     27064     27064     27070     27067     27068
     27064     27070     27067     27069     27064     27070     27067     27071
     27065     27064     27070     27067     27066     27064     27070     27067
     27067     27071     27072     27073     27067     27071     27072     27074
     27067     27071     27072     27075     27068     27067     27071     27072
     27069     27067     27071     27072     27070     27067     27071     27072
     27071     27072     27075     27076     27071     27072     27075     27077
     27071     27072     27075     27083     27072     27075     27077     27078
     27072     27075     27083     27084     27072     27075     27083     27085
     27072     27075     27083     27086     27073     27072     27075     27076
     27073     27072     27075     27077     27073     27072     27075     27083
     27074     27072     27075     27076     27074     27072     27075     27077
     27074     27072     27075     27083     27075     27077     27078     27079
     27075     27077     27078     27080     27075     27083     27086     27087
     27076     27075     27077     27078     27076     27075     27083     27084
     27076     27075     27083     27085     27076     27075     27083     27086
     27077     27075     27083     27084     27077     27075     27083     27085
     27077     27075     27083     27086     27077     27078     27080     27081
     27077     27078     27080     27082     27077     27078     27080     27092
     27078     27077     27075     27083     27078     27080     27092     27093
     27078     27080     27092     27094     27078     27080     27092     27095
     27079     27078     27080     27081     27079     27078     27080     27082
     27079     27078     27080     27092     27080     27092     27095     27096
     27080     27092     27095     27097     27080     27092     27095     27098
     27081     27080     27092     27093     27081     27080     27092     27094
     27081     27080     27092     27095     27082     27080     27092     27093
     27082     27080     27092     27094     27082     27080     27092     27095
     27083     27086     27087     27088     27083     27086     27087     27089
     27084     27083     27086     27087     27085     27083     27086     27087
     27086     27087     27089     27090     27086     27087     27089     27091
     27086     27087     27089     27139     27087     27089     27139     27140
     27087     27089     27139     27141     27087     27089     27139     27142
     27088     27087     27089     27090     27088     27087     27089     27091
     27088     27087     27089     27139     27089     27139     27142     27143
     27089     27139     27142     27144     27089     27139     27142     27145
     27090     27089     27139     27140     27090     27089     27139     27141
     27090     27089     27139     27142     27091     27089     27139     27140
     27091     27089     27139     27141     27091     27089     27139     27142
     27092     27095     27098     27099     27092     27095     27098     27100
     27092     27095     27098     27101     27093     27092     27095     27096
     27093     27092     27095     27097     27093     27092     27095     27098
     27094     27092     27095     27096     27094     27092     27095     27097
     27094     27092     27095     27098     27095     27098     27101     27102
     27095     27098     27101     27103     27095     27098     27101     27104
     27096     27095     27098     27099     27096     27095     27098     27100
     27096     27095     27098     27101     27097     27095     27098     27099
     27097     27095     27098     27100     27097     27095     27098     27101
     27098     27101     27104     27105     27098     27101     27104     27106
     27098     27101     27104     27107     27099     27098     27101     27102
     27099     27098     27101     27103     27099     27098     27101     27104
     27100     27098     27101     27102     27100     27098     27101     27103
     27100     27098     27101     27104     27101     27104     27107     27108
     27101     27104     27107     27109     27101     27104     27107     27110
     27102     27101     27104     27105     27102     27101     27104     27106
     27102     27101     27104     27107     27103     27101     27104     27105
     27103     27101     27104     27106     27103     27101     27104     27107
     27104     27107     27110     27111     27104     27107     27110     27112
     27105     27104     27107     27108     27105     27104     27107     27109
     27105     27104     27107     27110     27106     27104     27107     27108
     27106     27104     27107     27109     27106     27104     27107     27110
     27107     27110     27112     27113     27107     27110     27112     27114
     27108     27107     27110     27111     27108     27107     27110     27112
     27109     27107     27110     27111     27109     27107     27110     27112
     27110     27112     27114     27115     27110     27112     27114     27116
     27110     27112     27114     27117     27111     27110     27112     27113
     27111     27110     27112     27114     27112     27114     27117     27118
     27112     27114     27117     27119     27112     27114     27117     27120
     27113     27112     27114     27115     27113     27112     27114     27116
     27113     27112     27114     27117     27114     27117     27120     27121
     27114     27117     27120     27122     27114     27117     27120     27123
     27115     27114     27117     27118     27115     27114     27117     27119
     27115     27114     27117     27120     27116     27114     27117     27118
     27116     27114     27117     27119     27116     27114     27117     27120
     27117     27120     27123     27124     27117     27120     27123     27125
     27117     27120     27123     27126     27118     27117     27120     27121
     27118     27117     27120     27122     27118     27117     27120     27123
     27119     27117     27120     27121     27119     27117     27120     27122
     27119     27117     27120     27123     27120     27123     27126     27127
     27120     27123     27126     27128     27120     27123     27126     27129
     27121     27120     27123     27124     27121     27120     27123     27125
     27121     27120     27123     27126     27122     27120     27123     27124
     27122     27120     27123     27125     27122     27120     27123     27126
     27123     27126     27129     27130     27123     27126     27129     27131
     27123     27126     27129     27132     27124     27123     27126     27127
     27124     27123     27126     27128     27124     27123     27126     27129
     27125     27123     27126     27127     27125     27123     27126     27128
     27125     27123     27126     27129     27126     27129     27132     27133
     27126     27129     27132     27134     27126     27129     27132     27135
     27127     27126     27129     27130     27127     27126     27129     27131
     27127     27126     27129     27132     27128     27126     27129     27130
     27128     27126     27129     27131     27128     27126     27129     27132
     27129     27132     27135     27136     27129     27132     27135     27137
     27129     27132     27135     27138     27130     27129     27132     27133
     27130     27129     27132     27134     27130     27129     27132     27135
     27131     27129     27132     27133     27131     27129     27132     27134
     27131     27129     27132     27135     27133     27132     27135     27136
     27133     27132     27135     27137     27133     27132     27135     27138
     27134     27132     27135     27136     27134     27132     27135     27137
     27134     27132     27135     27138     27139     27142     27145     27146
     27139     27142     27145     27147     27139     27142     27145     27148
     27140     27139     27142     27143     27140     27139     27142     27144
     27140     27139     27142     27145     27141     27139     27142     27143
     27141     27139     27142     27144     27141     27139     27142     27145
     27142     27145     27148     27149     27142     27145     27148     27150
     27142     27145     27148     27151     27143     27142     27145     27146
     27143     27142     27145     27147     27143     27142     27145     27148
     27144     27142     27145     27146     27144     27142     27145     27147
     27144     27142     27145     27148     27145     27148     27151     27152
     27145     27148     27151     27153     27145     27148     27151     27154
     27146     27145     27148     27149     27146     27145     27148     27150
     27146     27145     27148     27151     27147     27145     27148     27149
     27147     27145     27148     27150     27147     27145     27148     27151
     27148     27151     27154     27155     27148     27151     27154     27156
     27148     27151     27154     27157     27149     27148     27151     27152
     27149     27148     27151     27153     27149     27148     27151     27154
     27150     27148     27151     27152     27150     27148     27151     27153
     27150     27148     27151     27154     27151     27154     27157     27158
     27151     27154     27157     27159     27151     27154     27157     27160
     27152     27151     27154     27155     27152     27151     27154     27156
     27152     27151     27154     27157     27153     27151     27154     27155
     27153     27151     27154     27156     27153     27151     27154     27157
     27154     27157     27160     27161     27154     27157     27160     27162
     27154     27157     27160     27163     27155     27154     27157     27158
     27155     27154     27157     27159     27155     27154     27157     27160
     27156     27154     27157     27158     27156     27154     27157     27159
     27156     27154     27157     27160     27157     27160     27163     27164
     27157     27160     27163     27165     27157     27160     27163     27166
     27158     27157     27160     27161     27158     27157     27160     27162
     27158     27157     27160     27163     27159     27157     27160     27161
     27159     27157     27160     27162     27159     27157     27160     27163
     27160     27163     27166     27167     27160     27163     27166     27168
     27160     27163     27166     27169     27161     27160     27163     27164
     27161     27160     27163     27165     27161     27160     27163     27166
     27162     27160     27163     27164     27162     27160     27163     27165
     27162     27160     27163     27166     27163     27166     27169     27170
     27163     27166     27169     27171     27163     27166     27169     27172
     27164     27163     27166     27167     27164     27163     27166     27168
     27164     27163     27166     27169     27165     27163     27166     27167
     27165     27163     27166     27168     27165     27163     27166     27169
     27166     27169     27172     27173     27166     27169     27172     27174
     27166     27169     27172     27175     27167     27166     27169     27170
     27167     27166     27169     27171     27167     27166     27169     27172
     27168     27166     27169     27170     27168     27166     27169     27171
     27168     27166     27169     27172     27169     27172     27175     27176
     27169     27172     27175     27177     27169     27172     27175     27178
     27170     27169     27172     27173     27170     27169     27172     27174
     27170     27169     27172     27175     27171     27169     27172     27173
     27171     27169     27172     27174     27171     27169     27172     27175
     27172     27175     27178     27179     27172     27175     27178     27180
     27172     27175     27178     27181     27173     27172     27175     27176
     27173     27172     27175     27177     27173     27172     27175     27178
     27174     27172     27175     27176     27174     27172     27175     27177
     27174     27172     27175     27178     27176     27175     27178     27179
     27176     27175     27178     27180     27176     27175     27178     27181
     27177     27175     27178     27179     27177     27175     27178     27180
     27177     27175     27178     27181     27182     27183     27198     27199
     27182     27183     27198     27200     27182     27183     27198     27204
     27183     27182     27186     27187     27183     27182     27186     27188
     27183     27182     27186     27189     27183     27182     27190     27191
     27183     27182     27190     27192     27183     27182     27190     27193
     27183     27182     27194     27195     27183     27182     27194     27196
     27183     27182     27194     27197     27183     27198     27204     27201
     27184     27183     27182     27186     27184     27183     27182     27190
     27184     27183     27182     27194     27184     27183     27198     27199
     27184     27183     27198     27200     27184     27183     27198     27204
     27185     27183     27182     27186     27185     27183     27182     27190
     27185     27183     27182     27194     27185     27183     27198     27199
     27185     27183     27198     27200     27185     27183     27198     27204
     27186     27182     27183     27198     27186     27182     27190     27191
     27186     27182     27190     27192     27186     27182     27190     27193
     27186     27182     27194     27195     27186     27182     27194     27196
     27186     27182     27194     27197     27187     27186     27182     27190
     27187     27186     27182     27194     27188     27186     27182     27190
     27188     27186     27182     27194     27189     27186     27182     27190
     27189     27186     27182     27194     27190     27182     27183     27198
     27190     27182     27194     27195     27190     27182     27194     27196
     27190     27182     27194     27197     27191     27190     27182     27194
     27192     27190     27182     27194     27193     27190     27182     27194
     27194     27182     27183     27198     27198     27204     27201     27202
     27198     27204     27201     27203     27198     27204     27201     27205
     27199     27198     27204     27201     27200     27198     27204     27201
     27201     27205     27206     27207     27201     27205     27206     27208
     27201     27205     27206     27209     27202     27201     27205     27206
     27203     27201     27205     27206     27204     27201     27205     27206
     27205     27206     27209     27210     27205     27206     27209     27211
     27205     27206     27209     27217     27206     27209     27211     27212
     27206     27209     27217     27218     27206     27209     27217     27219
     27206     27209     27217     27220     27207     27206     27209     27210
     27207     27206     27209     27211     27207     27206     27209     27217
     27208     27206     27209     27210     27208     27206     27209     27211
     27208     27206     27209     27217     27209     27211     27212     27213
     27209     27211     27212     27214     27209     27217     27220     27221
     27210     27209     27211     27212     27210     27209     27217     27218
     27210     27209     27217     27219     27210     27209     27217     27220
     27211     27209     27217     27218     27211     27209     27217     27219
     27211     27209     27217     27220     27211     27212     27214     27215
     27211     27212     27214     27216     27211     27212     27214     27226
     27212     27211     27209     27217     27212     27214     27226     27227
     27212     27214     27226     27228     27212     27214     27226     27229
     27213     27212     27214     27215     27213     27212     27214     27216
     27213     27212     27214     27226     27214     27226     27229     27230
     27214     27226     27229     27231     27214     27226     27229     27232
     27215     27214     27226     27227     27215     27214     27226     27228
     27215     27214     27226     27229     27216     27214     27226     27227
     27216     27214     27226     27228     27216     27214     27226     27229
     27217     27220     27221     27222     27217     27220     27221     27223
     27218     27217     27220     27221     27219     27217     27220     27221
     27220     27221     27223     27224     27220     27221     27223     27225
     27220     27221     27223     27273     27221     27223     27273     27274
     27221     27223     27273     27275     27221     27223     27273     27276
     27222     27221     27223     27224     27222     27221     27223     27225
     27222     27221     27223     27273     27223     27273     27276     27277
     27223     27273     27276     27278     27223     27273     27276     27279
     27224     27223     27273     27274     27224     27223     27273     27275
     27224     27223     27273     27276     27225     27223     27273     27274
     27225     27223     27273     27275     27225     27223     27273     27276
     27226     27229     27232     27233     27226     27229     27232     27234
     27226     27229     27232     27235     27227     27226     27229     27230
     27227     27226     27229     27231     27227     27226     27229     27232
     27228     27226     27229     27230     27228     27226     27229     27231
     27228     27226     27229     27232     27229     27232     27235     27236
     27229     27232     27235     27237     27229     27232     27235     27238
     27230     27229     27232     27233     27230     27229     27232     27234
     27230     27229     27232     27235     27231     27229     27232     27233
     27231     27229     27232     27234     27231     27229     27232     27235
     27232     27235     27238     27239     27232     27235     27238     27240
     27232     27235     27238     27241     27233     27232     27235     27236
     27233     27232     27235     27237     27233     27232     27235     27238
     27234     27232     27235     27236     27234     27232     27235     27237
     27234     27232     27235     27238     27235     27238     27241     27242
     27235     27238     27241     27243     27235     27238     27241     27244
     27236     27235     27238     27239     27236     27235     27238     27240
     27236     27235     27238     27241     27237     27235     27238     27239
     27237     27235     27238     27240     27237     27235     27238     27241
     27238     27241     27244     27245     27238     27241     27244     27246
     27239     27238     27241     27242     27239     27238     27241     27243
     27239     27238     27241     27244     27240     27238     27241     27242
     27240     27238     27241     27243     27240     27238     27241     27244
     27241     27244     27246     27247     27241     27244     27246     27248
     27242     27241     27244     27245     27242     27241     27244     27246
     27243     27241     27244     27245     27243     27241     27244     27246
     27244     27246     27248     27249     27244     27246     27248     27250
     27244     27246     27248     27251     27245     27244     27246     27247
     27245     27244     27246     27248     27246     27248     27251     27252
     27246     27248     27251     27253     27246     27248     27251     27254
     27247     27246     27248     27249     27247     27246     27248     27250
     27247     27246     27248     27251     27248     27251     27254     27255
     27248     27251     27254     27256     27248     27251     27254     27257
     27249     27248     27251     27252     27249     27248     27251     27253
     27249     27248     27251     27254     27250     27248     27251     27252
     27250     27248     27251     27253     27250     27248     27251     27254
     27251     27254     27257     27258     27251     27254     27257     27259
     27251     27254     27257     27260     27252     27251     27254     27255
     27252     27251     27254     27256     27252     27251     27254     27257
     27253     27251     27254     27255     27253     27251     27254     27256
     27253     27251     27254     27257     27254     27257     27260     27261
     27254     27257     27260     27262     27254     27257     27260     27263
     27255     27254     27257     27258     27255     27254     27257     27259
     27255     27254     27257     27260     27256     27254     27257     27258
     27256     27254     27257     27259     27256     27254     27257     27260
     27257     27260     27263     27264     27257     27260     27263     27265
     27257     27260     27263     27266     27258     27257     27260     27261
     27258     27257     27260     27262     27258     27257     27260     27263
     27259     27257     27260     27261     27259     27257     27260     27262
     27259     27257     27260     27263     27260     27263     27266     27267
     27260     27263     27266     27268     27260     27263     27266     27269
     27261     27260     27263     27264     27261     27260     27263     27265
     27261     27260     27263     27266     27262     27260     27263     27264
     27262     27260     27263     27265     27262     27260     27263     27266
     27263     27266     27269     27270     27263     27266     27269     27271
     27263     27266     27269     27272     27264     27263     27266     27267
     27264     27263     27266     27268     27264     27263     27266     27269
     27265     27263     27266     27267     27265     27263     27266     27268
     27265     27263     27266     27269     27267     27266     27269     27270
     27267     27266     27269     27271     27267     27266     27269     27272
     27268     27266     27269     27270     27268     27266     27269     27271
     27268     27266     27269     27272     27273     27276     27279     27280
     27273     27276     27279     27281     27273     27276     27279     27282
     27274     27273     27276     27277     27274     27273     27276     27278
     27274     27273     27276     27279     27275     27273     27276     27277
     27275     27273     27276     27278     27275     27273     27276     27279
     27276     27279     27282     27283     27276     27279     27282     27284
     27276     27279     27282     27285     27277     27276     27279     27280
     27277     27276     27279     27281     27277     27276     27279     27282
     27278     27276     27279     27280     27278     27276     27279     27281
     27278     27276     27279     27282     27279     27282     27285     27286
     27279     27282     27285     27287     27279     27282     27285     27288
     27280     27279     27282     27283     27280     27279     27282     27284
     27280     27279     27282     27285     27281     27279     27282     27283
     27281     27279     27282     27284     27281     27279     27282     27285
     27282     27285     27288     27289     27282     27285     27288     27290
     27282     27285     27288     27291     27283     27282     27285     27286
     27283     27282     27285     27287     27283     27282     27285     27288
     27284     27282     27285     27286     27284     27282     27285     27287
     27284     27282     27285     27288     27285     27288     27291     27292
     27285     27288     27291     27293     27285     27288     27291     27294
     27286     27285     27288     27289     27286     27285     27288     27290
     27286     27285     27288     27291     27287     27285     27288     27289
     27287     27285     27288     27290     27287     27285     27288     27291
     27288     27291     27294     27295     27288     27291     27294     27296
     27288     27291     27294     27297     27289     27288     27291     27292
     27289     27288     27291     27293     27289     27288     27291     27294
     27290     27288     27291     27292     27290     27288     27291     27293
     27290     27288     27291     27294     27291     27294     27297     27298
     27291     27294     27297     27299     27291     27294     27297     27300
     27292     27291     27294     27295     27292     27291     27294     27296
     27292     27291     27294     27297     27293     27291     27294     27295
     27293     27291     27294     27296     27293     27291     27294     27297
     27294     27297     27300     27301     27294     27297     27300     27302
     27294     27297     27300     27303     27295     27294     27297     27298
     27295     27294     27297     27299     27295     27294     27297     27300
     27296     27294     27297     27298     27296     27294     27297     27299
     27296     27294     27297     27300     27297     27300     27303     27304
     27297     27300     27303     27305     27297     27300     27303     27306
     27298     27297     27300     27301     27298     27297     27300     27302
     27298     27297     27300     27303     27299     27297     27300     27301
     27299     27297     27300     27302     27299     27297     27300     27303
     27300     27303     27306     27307     27300     27303     27306     27308
     27300     27303     27306     27309     27301     27300     27303     27304
     27301     27300     27303     27305     27301     27300     27303     27306
     27302     27300     27303     27304     27302     27300     27303     27305
     27302     27300     27303     27306     27303     27306     27309     27310
     27303     27306     27309     27311     27303     27306     27309     27312
     27304     27303     27306     27307     27304     27303     27306     27308
     27304     27303     27306     27309     27305     27303     27306     27307
     27305     27303     27306     27308     27305     27303     27306     27309
     27306     27309     27312     27313     27306     27309     27312     27314
     27306     27309     27312     27315     27307     27306     27309     27310
     27307     27306     27309     27311     27307     27306     27309     27312
     27308     27306     27309     27310     27308     27306     27309     27311
     27308     27306     27309     27312     27310     27309     27312     27313
     27310     27309     27312     27314     27310     27309     27312     27315
     27311     27309     27312     27313     27311     27309     27312     27314
     27311     27309     27312     27315     27316     27317     27332     27333
     27316     27317     27332     27334     27316     27317     27332     27338
     27317     27316     27320     27321     27317     27316     27320     27322
     27317     27316     27320     27323     27317     27316     27324     27325
     27317     27316     27324     27326     27317     27316     27324     27327
     27317     27316     27328     27329     27317     27316     27328     27330
     27317     27316     27328     27331     27317     27332     27338     27335
     27318     27317     27316     27320     27318     27317     27316     27324
     27318     27317     27316     27328     27318     27317     27332     27333
     27318     27317     27332     27334     27318     27317     27332     27338
     27319     27317     27316     27320     27319     27317     27316     27324
     27319     27317     27316     27328     27319     27317     27332     27333
     27319     27317     27332     27334     27319     27317     27332     27338
     27320     27316     27317     27332     27320     27316     27324     27325
     27320     27316     27324     27326     27320     27316     27324     27327
     27320     27316     27328     27329     27320     27316     27328     27330
     27320     27316     27328     27331     27321     27320     27316     27324
     27321     27320     27316     27328     27322     27320     27316     27324
     27322     27320     27316     27328     27323     27320     27316     27324
     27323     27320     27316     27328     27324     27316     27317     27332
     27324     27316     27328     27329     27324     27316     27328     27330
     27324     27316     27328     27331     27325     27324     27316     27328
     27326     27324     27316     27328     27327     27324     27316     27328
     27328     27316     27317     27332     27332     27338     27335     27336
     27332     27338     27335     27337     27332     27338     27335     27339
     27333     27332     27338     27335     27334     27332     27338     27335
     27335     27339     27340     27341     27335     27339     27340     27342
     27335     27339     27340     27343     27336     27335     27339     27340
     27337     27335     27339     27340     27338     27335     27339     27340
     27339     27340     27343     27344     27339     27340     27343     27345
     27339     27340     27343     27351     27340     27343     27345     27346
     27340     27343     27351     27352     27340     27343     27351     27353
     27340     27343     27351     27354     27341     27340     27343     27344
     27341     27340     27343     27345     27341     27340     27343     27351
     27342     27340     27343     27344     27342     27340     27343     27345
     27342     27340     27343     27351     27343     27345     27346     27347
     27343     27345     27346     27348     27343     27351     27354     27355
     27344     27343     27345     27346     27344     27343     27351     27352
     27344     27343     27351     27353     27344     27343     27351     27354
     27345     27343     27351     27352     27345     27343     27351     27353
     27345     27343     27351     27354     27345     27346     27348     27349
     27345     27346     27348     27350     27345     27346     27348     27360
     27346     27345     27343     27351     27346     27348     27360     27361
     27346     27348     27360     27362     27346     27348     27360     27363
     27347     27346     27348     27349     27347     27346     27348     27350
     27347     27346     27348     27360     27348     27360     27363     27364
     27348     27360     27363     27365     27348     27360     27363     27366
     27349     27348     27360     27361     27349     27348     27360     27362
     27349     27348     27360     27363     27350     27348     27360     27361
     27350     27348     27360     27362     27350     27348     27360     27363
     27351     27354     27355     27356     27351     27354     27355     27357
     27352     27351     27354     27355     27353     27351     27354     27355
     27354     27355     27357     27358     27354     27355     27357     27359
     27354     27355     27357     27407     27355     27357     27407     27408
     27355     27357     27407     27409     27355     27357     27407     27410
     27356     27355     27357     27358     27356     27355     27357     27359
     27356     27355     27357     27407     27357     27407     27410     27411
     27357     27407     27410     27412     27357     27407     27410     27413
     27358     27357     27407     27408     27358     27357     27407     27409
     27358     27357     27407     27410     27359     27357     27407     27408
     27359     27357     27407     27409     27359     27357     27407     27410
     27360     27363     27366     27367     27360     27363     27366     27368
     27360     27363     27366     27369     27361     27360     27363     27364
     27361     27360     27363     27365     27361     27360     27363     27366
     27362     27360     27363     27364     27362     27360     27363     27365
     27362     27360     27363     27366     27363     27366     27369     27370
     27363     27366     27369     27371     27363     27366     27369     27372
     27364     27363     27366     27367     27364     27363     27366     27368
     27364     27363     27366     27369     27365     27363     27366     27367
     27365     27363     27366     27368     27365     27363     27366     27369
     27366     27369     27372     27373     27366     27369     27372     27374
     27366     27369     27372     27375     27367     27366     27369     27370
     27367     27366     27369     27371     27367     27366     27369     27372
     27368     27366     27369     27370     27368     27366     27369     27371
     27368     27366     27369     27372     27369     27372     27375     27376
     27369     27372     27375     27377     27369     27372     27375     27378
     27370     27369     27372     27373     27370     27369     27372     27374
     27370     27369     27372     27375     27371     27369     27372     27373
     27371     27369     27372     27374     27371     27369     27372     27375
     27372     27375     27378     27379     27372     27375     27378     27380
     27373     27372     27375     27376     27373     27372     27375     27377
     27373     27372     27375     27378     27374     27372     27375     27376
     27374     27372     27375     27377     27374     27372     27375     27378
     27375     27378     27380     27381     27375     27378     27380     27382
     27376     27375     27378     27379     27376     27375     27378     27380
     27377     27375     27378     27379     27377     27375     27378     27380
     27378     27380     27382     27383     27378     27380     27382     27384
     27378     27380     27382     27385     27379     27378     27380     27381
     27379     27378     27380     27382     27380     27382     27385     27386
     27380     27382     27385     27387     27380     27382     27385     27388
     27381     27380     27382     27383     27381     27380     27382     27384
     27381     27380     27382     27385     27382     27385     27388     27389
     27382     27385     27388     27390     27382     27385     27388     27391
     27383     27382     27385     27386     27383     27382     27385     27387
     27383     27382     27385     27388     27384     27382     27385     27386
     27384     27382     27385     27387     27384     27382     27385     27388
     27385     27388     27391     27392     27385     27388     27391     27393
     27385     27388     27391     27394     27386     27385     27388     27389
     27386     27385     27388     27390     27386     27385     27388     27391
     27387     27385     27388     27389     27387     27385     27388     27390
     27387     27385     27388     27391     27388     27391     27394     27395
     27388     27391     27394     27396     27388     27391     27394     27397
     27389     27388     27391     27392     27389     27388     27391     27393
     27389     27388     27391     27394     27390     27388     27391     27392
     27390     27388     27391     27393     27390     27388     27391     27394
     27391     27394     27397     27398     27391     27394     27397     27399
     27391     27394     27397     27400     27392     27391     27394     27395
     27392     27391     27394     27396     27392     27391     27394     27397
     27393     27391     27394     27395     27393     27391     27394     27396
     27393     27391     27394     27397     27394     27397     27400     27401
     27394     27397     27400     27402     27394     27397     27400     27403
     27395     27394     27397     27398     27395     27394     27397     27399
     27395     27394     27397     27400     27396     27394     27397     27398
     27396     27394     27397     27399     27396     27394     27397     27400
     27397     27400     27403     27404     27397     27400     27403     27405
     27397     27400     27403     27406     27398     27397     27400     27401
     27398     27397     27400     27402     27398     27397     27400     27403
     27399     27397     27400     27401     27399     27397     27400     27402
     27399     27397     27400     27403     27401     27400     27403     27404
     27401     27400     27403     27405     27401     27400     27403     27406
     27402     27400     27403     27404     27402     27400     27403     27405
     27402     27400     27403     27406     27407     27410     27413     27414
     27407     27410     27413     27415     27407     27410     27413     27416
     27408     27407     27410     27411     27408     27407     27410     27412
     27408     27407     27410     27413     27409     27407     27410     27411
     27409     27407     27410     27412     27409     27407     27410     27413
     27410     27413     27416     27417     27410     27413     27416     27418
     27410     27413     27416     27419     27411     27410     27413     27414
     27411     27410     27413     27415     27411     27410     27413     27416
     27412     27410     27413     27414     27412     27410     27413     27415
     27412     27410     27413     27416     27413     27416     27419     27420
     27413     27416     27419     27421     27413     27416     27419     27422
     27414     27413     27416     27417     27414     27413     27416     27418
     27414     27413     27416     27419     27415     27413     27416     27417
     27415     27413     27416     27418     27415     27413     27416     27419
     27416     27419     27422     27423     27416     27419     27422     27424
     27416     27419     27422     27425     27417     27416     27419     27420
     27417     27416     27419     27421     27417     27416     27419     27422
     27418     27416     27419     27420     27418     27416     27419     27421
     27418     27416     27419     27422     27419     27422     27425     27426
     27419     27422     27425     27427     27419     27422     27425     27428
     27420     27419     27422     27423     27420     27419     27422     27424
     27420     27419     27422     27425     27421     27419     27422     27423
     27421     27419     27422     27424     27421     27419     27422     27425
     27422     27425     27428     27429     27422     27425     27428     27430
     27422     27425     27428     27431     27423     27422     27425     27426
     27423     27422     27425     27427     27423     27422     27425     27428
     27424     27422     27425     27426     27424     27422     27425     27427
     27424     27422     27425     27428     27425     27428     27431     27432
     27425     27428     27431     27433     27425     27428     27431     27434
     27426     27425     27428     27429     27426     27425     27428     27430
     27426     27425     27428     27431     27427     27425     27428     27429
     27427     27425     27428     27430     27427     27425     27428     27431
     27428     27431     27434     27435     27428     27431     27434     27436
     27428     27431     27434     27437     27429     27428     27431     27432
     27429     27428     27431     27433     27429     27428     27431     27434
     27430     27428     27431     27432     27430     27428     27431     27433
     27430     27428     27431     27434     27431     27434     27437     27438
     27431     27434     27437     27439     27431     27434     27437     27440
     27432     27431     27434     27435     27432     27431     27434     27436
     27432     27431     27434     27437     27433     27431     27434     27435
     27433     27431     27434     27436     27433     27431     27434     27437
     27434     27437     27440     27441     27434     27437     27440     27442
     27434     27437     27440     27443     27435     27434     27437     27438
     27435     27434     27437     27439     27435     27434     27437     27440
     27436     27434     27437     27438     27436     27434     27437     27439
     27436     27434     27437     27440     27437     27440     27443     27444
     27437     27440     27443     27445     27437     27440     27443     27446
     27438     27437     27440     27441     27438     27437     27440     27442
     27438     27437     27440     27443     27439     27437     27440     27441
     27439     27437     27440     27442     27439     27437     27440     27443
     27440     27443     27446     27447     27440     27443     27446     27448
     27440     27443     27446     27449     27441     27440     27443     27444
     27441     27440     27443     27445     27441     27440     27443     27446
     27442     27440     27443     27444     27442     27440     27443     27445
     27442     27440     27443     27446     27444     27443     27446     27447
     27444     27443     27446     27448     27444     27443     27446     27449
     27445     27443     27446     27447     27445     27443     27446     27448
     27445     27443     27446     27449     27450     27451     27466     27467
     27450     27451     27466     27468     27450     27451     27466     27472
     27451     27450     27454     27455     27451     27450     27454     27456
     27451     27450     27454     27457     27451     27450     27458     27459
     27451     27450     27458     27460     27451     27450     27458     27461
     27451     27450     27462     27463     27451     27450     27462     27464
     27451     27450     27462     27465     27451     27466     27472     27469
     27452     27451     27450     27454     27452     27451     27450     27458
     27452     27451     27450     27462     27452     27451     27466     27467
     27452     27451     27466     27468     27452     27451     27466     27472
     27453     27451     27450     27454     27453     27451     27450     27458
     27453     27451     27450     27462     27453     27451     27466     27467
     27453     27451     27466     27468     27453     27451     27466     27472
     27454     27450     27451     27466     27454     27450     27458     27459
     27454     27450     27458     27460     27454     27450     27458     27461
     27454     27450     27462     27463     27454     27450     27462     27464
     27454     27450     27462     27465     27455     27454     27450     27458
     27455     27454     27450     27462     27456     27454     27450     27458
     27456     27454     27450     27462     27457     27454     27450     27458
     27457     27454     27450     27462     27458     27450     27451     27466
     27458     27450     27462     27463     27458     27450     27462     27464
     27458     27450     27462     27465     27459     27458     27450     27462
     27460     27458     27450     27462     27461     27458     27450     27462
     27462     27450     27451     27466     27466     27472     27469     27470
     27466     27472     27469     27471     27466     27472     27469     27473
     27467     27466     27472     27469     27468     27466     27472     27469
     27469     27473     27474     27475     27469     27473     27474     27476
     27469     27473     27474     27477     27470     27469     27473     27474
     27471     27469     27473     27474     27472     27469     27473     27474
     27473     27474     27477     27478     27473     27474     27477     27479
     27473     27474     27477     27485     27474     27477     27479     27480
     27474     27477     27485     27486     27474     27477     27485     27487
     27474     27477     27485     27488     27475     27474     27477     27478
     27475     27474     27477     27479     27475     27474     27477     27485
     27476     27474     27477     27478     27476     27474     27477     27479
     27476     27474     27477     27485     27477     27479     27480     27481
     27477     27479     27480     27482     27477     27485     27488     27489
     27478     27477     27479     27480     27478     27477     27485     27486
     27478     27477     27485     27487     27478     27477     27485     27488
     27479     27477     27485     27486     27479     27477     27485     27487
     27479     27477     27485     27488     27479     27480     27482     27483
     27479     27480     27482     27484     27479     27480     27482     27494
     27480     27479     27477     27485     27480     27482     27494     27495
     27480     27482     27494     27496     27480     27482     27494     27497
     27481     27480     27482     27483     27481     27480     27482     27484
     27481     27480     27482     27494     27482     27494     27497     27498
     27482     27494     27497     27499     27482     27494     27497     27500
     27483     27482     27494     27495     27483     27482     27494     27496
     27483     27482     27494     27497     27484     27482     27494     27495
     27484     27482     27494     27496     27484     27482     27494     27497
     27485     27488     27489     27490     27485     27488     27489     27491
     27486     27485     27488     27489     27487     27485     27488     27489
     27488     27489     27491     27492     27488     27489     27491     27493
     27488     27489     27491     27541     27489     27491     27541     27542
     27489     27491     27541     27543     27489     27491     27541     27544
     27490     27489     27491     27492     27490     27489     27491     27493
     27490     27489     27491     27541     27491     27541     27544     27545
     27491     27541     27544     27546     27491     27541     27544     27547
     27492     27491     27541     27542     27492     27491     27541     27543
     27492     27491     27541     27544     27493     27491     27541     27542
     27493     27491     27541     27543     27493     27491     27541     27544
     27494     27497     27500     27501     27494     27497     27500     27502
     27494     27497     27500     27503     27495     27494     27497     27498
     27495     27494     27497     27499     27495     27494     27497     27500
     27496     27494     27497     27498     27496     27494     27497     27499
     27496     27494     27497     27500     27497     27500     27503     27504
     27497     27500     27503     27505     27497     27500     27503     27506
     27498     27497     27500     27501     27498     27497     27500     27502
     27498     27497     27500     27503     27499     27497     27500     27501
     27499     27497     27500     27502     27499     27497     27500     27503
     27500     27503     27506     27507     27500     27503     27506     27508
     27500     27503     27506     27509     27501     27500     27503     27504
     27501     27500     27503     27505     27501     27500     27503     27506
     27502     27500     27503     27504     27502     27500     27503     27505
     27502     27500     27503     27506     27503     27506     27509     27510
     27503     27506     27509     27511     27503     27506     27509     27512
     27504     27503     27506     27507     27504     27503     27506     27508
     27504     27503     27506     27509     27505     27503     27506     27507
     27505     27503     27506     27508     27505     27503     27506     27509
     27506     27509     27512     27513     27506     27509     27512     27514
     27507     27506     27509     27510     27507     27506     27509     27511
     27507     27506     27509     27512     27508     27506     27509     27510
     27508     27506     27509     27511     27508     27506     27509     27512
     27509     27512     27514     27515     27509     27512     27514     27516
     27510     27509     27512     27513     27510     27509     27512     27514
     27511     27509     27512     27513     27511     27509     27512     27514
     27512     27514     27516     27517     27512     27514     27516     27518
     27512     27514     27516     27519     27513     27512     27514     27515
     27513     27512     27514     27516     27514     27516     27519     27520
     27514     27516     27519     27521     27514     27516     27519     27522
     27515     27514     27516     27517     27515     27514     27516     27518
     27515     27514     27516     27519     27516     27519     27522     27523
     27516     27519     27522     27524     27516     27519     27522     27525
     27517     27516     27519     27520     27517     27516     27519     27521
     27517     27516     27519     27522     27518     27516     27519     27520
     27518     27516     27519     27521     27518     27516     27519     27522
     27519     27522     27525     27526     27519     27522     27525     27527
     27519     27522     27525     27528     27520     27519     27522     27523
     27520     27519     27522     27524     27520     27519     27522     27525
     27521     27519     27522     27523     27521     27519     27522     27524
     27521     27519     27522     27525     27522     27525     27528     27529
     27522     27525     27528     27530     27522     27525     27528     27531
     27523     27522     27525     27526     27523     27522     27525     27527
     27523     27522     27525     27528     27524     27522     27525     27526
     27524     27522     27525     27527     27524     27522     27525     27528
     27525     27528     27531     27532     27525     27528     27531     27533
     27525     27528     27531     27534     27526     27525     27528     27529
     27526     27525     27528     27530     27526     27525     27528     27531
     27527     27525     27528     27529     27527     27525     27528     27530
     27527     27525     27528     27531     27528     27531     27534     27535
     27528     27531     27534     27536     27528     27531     27534     27537
     27529     27528     27531     27532     27529     27528     27531     27533
     27529     27528     27531     27534     27530     27528     27531     27532
     27530     27528     27531     27533     27530     27528     27531     27534
     27531     27534     27537     27538     27531     27534     27537     27539
     27531     27534     27537     27540     27532     27531     27534     27535
     27532     27531     27534     27536     27532     27531     27534     27537
     27533     27531     27534     27535     27533     27531     27534     27536
     27533     27531     27534     27537     27535     27534     27537     27538
     27535     27534     27537     27539     27535     27534     27537     27540
     27536     27534     27537     27538     27536     27534     27537     27539
     27536     27534     27537     27540     27541     27544     27547     27548
     27541     27544     27547     27549     27541     27544     27547     27550
     27542     27541     27544     27545     27542     27541     27544     27546
     27542     27541     27544     27547     27543     27541     27544     27545
     27543     27541     27544     27546     27543     27541     27544     27547
     27544     27547     27550     27551     27544     27547     27550     27552
     27544     27547     27550     27553     27545     27544     27547     27548
     27545     27544     27547     27549     27545     27544     27547     27550
     27546     27544     27547     27548     27546     27544     27547     27549
     27546     27544     27547     27550     27547     27550     27553     27554
     27547     27550     27553     27555     27547     27550     27553     27556
     27548     27547     27550     27551     27548     27547     27550     27552
     27548     27547     27550     27553     27549     27547     27550     27551
     27549     27547     27550     27552     27549     27547     27550     27553
     27550     27553     27556     27557     27550     27553     27556     27558
     27550     27553     27556     27559     27551     27550     27553     27554
     27551     27550     27553     27555     27551     27550     27553     27556
     27552     27550     27553     27554     27552     27550     27553     27555
     27552     27550     27553     27556     27553     27556     27559     27560
     27553     27556     27559     27561     27553     27556     27559     27562
     27554     27553     27556     27557     27554     27553     27556     27558
     27554     27553     27556     27559     27555     27553     27556     27557
     27555     27553     27556     27558     27555     27553     27556     27559
     27556     27559     27562     27563     27556     27559     27562     27564
     27556     27559     27562     27565     27557     27556     27559     27560
     27557     27556     27559     27561     27557     27556     27559     27562
     27558     27556     27559     27560     27558     27556     27559     27561
     27558     27556     27559     27562     27559     27562     27565     27566
     27559     27562     27565     27567     27559     27562     27565     27568
     27560     27559     27562     27563     27560     27559     27562     27564
     27560     27559     27562     27565     27561     27559     27562     27563
     27561     27559     27562     27564     27561     27559     27562     27565
     27562     27565     27568     27569     27562     27565     27568     27570
     27562     27565     27568     27571     27563     27562     27565     27566
     27563     27562     27565     27567     27563     27562     27565     27568
     27564     27562     27565     27566     27564     27562     27565     27567
     27564     27562     27565     27568     27565     27568     27571     27572
     27565     27568     27571     27573     27565     27568     27571     27574
     27566     27565     27568     27569     27566     27565     27568     27570
     27566     27565     27568     27571     27567     27565     27568     27569
     27567     27565     27568     27570     27567     27565     27568     27571
     27568     27571     27574     27575     27568     27571     27574     27576
     27568     27571     27574     27577     27569     27568     27571     27572
     27569     27568     27571     27573     27569     27568     27571     27574
     27570     27568     27571     27572     27570     27568     27571     27573
     27570     27568     27571     27574     27571     27574     27577     27578
     27571     27574     27577     27579     27571     27574     27577     27580
     27572     27571     27574     27575     27572     27571     27574     27576
     27572     27571     27574     27577     27573     27571     27574     27575
     27573     27571     27574     27576     27573     27571     27574     27577
     27574     27577     27580     27581     27574     27577     27580     27582
     27574     27577     27580     27583     27575     27574     27577     27578
     27575     27574     27577     27579     27575     27574     27577     27580
     27576     27574     27577     27578     27576     27574     27577     27579
     27576     27574     27577     27580     27578     27577     27580     27581
     27578     27577     27580     27582     27578     27577     27580     27583
     27579     27577     27580     27581     27579     27577     27580     27582
     27579     27577     27580     27583     27584     27588     27591     27592
     27584     27588     27591     27593     27584     27588     27591     27598
     27585     27584     27588     27589     27585     27584     27588     27590
     27585     27584     27588     27591     27586     27584     27588     27589
     27586     27584     27588     27590     27586     27584     27588     27591
     27587     27584     27588     27589     27587     27584     27588     27590
     27587     27584     27588     27591     27588     27591     27598     27594
     27589     27588     27591     27592     27589     27588     27591     27593
     27589     27588     27591     27598     27590     27588     27591     27592
     27590     27588     27591     27593     27590     27588     27591     27598
     27591     27598     27594     27595     27591     27598     27594     27596
     27591     27598     27594     27597     27592     27591     27598     27594
     27593     27591     27598     27594     27594     27597     27599     27600
     27594     27597     27599     27601     27594     27597     27599     27602
     27595     27594     27597     27599     27596     27594     27597     27599
     27597     27599     27602     27603     27597     27599     27602     27604
     27597     27599     27602     27610     27598     27594     27597     27599
     27599     27602     27604     27605     27599     27602     27610     27611
     27599     27602     27610     27612     27599     27602     27610     27613
     27600     27599     27602     27603     27600     27599     27602     27604
     27600     27599     27602     27610     27601     27599     27602     27603
     27601     27599     27602     27604     27601     27599     27602     27610
     27602     27604     27605     27606     27602     27604     27605     27607
     27602     27610     27613     27614     27603     27602     27604     27605
     27603     27602     27610     27611     27603     27602     27610     27612
     27603     27602     27610     27613     27604     27602     27610     27611
     27604     27602     27610     27612     27604     27602     27610     27613
     27604     27605     27607     27608     27604     27605     27607     27609
     27604     27605     27607     27619     27605     27604     27602     27610
     27605     27607     27619     27620     27605     27607     27619     27621
     27605     27607     27619     27622     27606     27605     27607     27608
     27606     27605     27607     27609     27606     27605     27607     27619
     27607     27619     27622     27623     27607     27619     27622     27624
     27607     27619     27622     27625     27608     27607     27619     27620
     27608     27607     27619     27621     27608     27607     27619     27622
     27609     27607     27619     27620     27609     27607     27619     27621
     27609     27607     27619     27622     27610     27613     27614     27615
     27610     27613     27614     27616     27611     27610     27613     27614
     27612     27610     27613     27614     27613     27614     27616     27617
     27613     27614     27616     27618     27613     27614     27616     27666
     27614     27616     27666     27667     27614     27616     27666     27668
     27614     27616     27666     27669     27615     27614     27616     27617
     27615     27614     27616     27618     27615     27614     27616     27666
     27616     27666     27669     27670     27616     27666     27669     27671
     27616     27666     27669     27672     27617     27616     27666     27667
     27617     27616     27666     27668     27617     27616     27666     27669
     27618     27616     27666     27667     27618     27616     27666     27668
     27618     27616     27666     27669     27619     27622     27625     27626
     27619     27622     27625     27627     27619     27622     27625     27628
     27620     27619     27622     27623     27620     27619     27622     27624
     27620     27619     27622     27625     27621     27619     27622     27623
     27621     27619     27622     27624     27621     27619     27622     27625
     27622     27625     27628     27629     27622     27625     27628     27630
     27622     27625     27628     27631     27623     27622     27625     27626
     27623     27622     27625     27627     27623     27622     27625     27628
     27624     27622     27625     27626     27624     27622     27625     27627
     27624     27622     27625     27628     27625     27628     27631     27632
     27625     27628     27631     27633     27625     27628     27631     27634
     27626     27625     27628     27629     27626     27625     27628     27630
     27626     27625     27628     27631     27627     27625     27628     27629
     27627     27625     27628     27630     27627     27625     27628     27631
     27628     27631     27634     27635     27628     27631     27634     27636
     27628     27631     27634     27637     27629     27628     27631     27632
     27629     27628     27631     27633     27629     27628     27631     27634
     27630     27628     27631     27632     27630     27628     27631     27633
     27630     27628     27631     27634     27631     27634     27637     27638
     27631     27634     27637     27639     27632     27631     27634     27635
     27632     27631     27634     27636     27632     27631     27634     27637
     27633     27631     27634     27635     27633     27631     27634     27636
     27633     27631     27634     27637     27634     27637     27639     27640
     27634     27637     27639     27641     27635     27634     27637     27638
     27635     27634     27637     27639     27636     27634     27637     27638
     27636     27634     27637     27639     27637     27639     27641     27642
     27637     27639     27641     27643     27637     27639     27641     27644
     27638     27637     27639     27640     27638     27637     27639     27641
     27639     27641     27644     27645     27639     27641     27644     27646
     27639     27641     27644     27647     27640     27639     27641     27642
     27640     27639     27641     27643     27640     27639     27641     27644
     27641     27644     27647     27648     27641     27644     27647     27649
     27641     27644     27647     27650     27642     27641     27644     27645
     27642     27641     27644     27646     27642     27641     27644     27647
     27643     27641     27644     27645     27643     27641     27644     27646
     27643     27641     27644     27647     27644     27647     27650     27651
     27644     27647     27650     27652     27644     27647     27650     27653
     27645     27644     27647     27648     27645     27644     27647     27649
     27645     27644     27647     27650     27646     27644     27647     27648
     27646     27644     27647     27649     27646     27644     27647     27650
     27647     27650     27653     27654     27647     27650     27653     27655
     27647     27650     27653     27656     27648     27647     27650     27651
     27648     27647     27650     27652     27648     27647     27650     27653
     27649     27647     27650     27651     27649     27647     27650     27652
     27649     27647     27650     27653     27650     27653     27656     27657
     27650     27653     27656     27658     27650     27653     27656     27659
     27651     27650     27653     27654     27651     27650     27653     27655
     27651     27650     27653     27656     27652     27650     27653     27654
     27652     27650     27653     27655     27652     27650     27653     27656
     27653     27656     27659     27660     27653     27656     27659     27661
     27653     27656     27659     27662     27654     27653     27656     27657
     27654     27653     27656     27658     27654     27653     27656     27659
     27655     27653     27656     27657     27655     27653     27656     27658
     27655     27653     27656     27659     27656     27659     27662     27663
     27656     27659     27662     27664     27656     27659     27662     27665
     27657     27656     27659     27660     27657     27656     27659     27661
     27657     27656     27659     27662     27658     27656     27659     27660
     27658     27656     27659     27661     27658     27656     27659     27662
     27660     27659     27662     27663     27660     27659     27662     27664
     27660     27659     27662     27665     27661     27659     27662     27663
     27661     27659     27662     27664     27661     27659     27662     27665
     27666     27669     27672     27673     27666     27669     27672     27674
     27666     27669     27672     27675     27667     27666     27669     27670
     27667     27666     27669     27671     27667     27666     27669     27672
     27668     27666     27669     27670     27668     27666     27669     27671
     27668     27666     27669     27672     27669     27672     27675     27676
     27669     27672     27675     27677     27669     27672     27675     27678
     27670     27669     27672     27673     27670     27669     27672     27674
     27670     27669     27672     27675     27671     27669     27672     27673
     27671     27669     27672     27674     27671     27669     27672     27675
     27672     27675     27678     27679     27672     27675     27678     27680
     27672     27675     27678     27681     27673     27672     27675     27676
     27673     27672     27675     27677     27673     27672     27675     27678
     27674     27672     27675     27676     27674     27672     27675     27677
     27674     27672     27675     27678     27675     27678     27681     27682
     27675     27678     27681     27683     27675     27678     27681     27684
     27676     27675     27678     27679     27676     27675     27678     27680
     27676     27675     27678     27681     27677     27675     27678     27679
     27677     27675     27678     27680     27677     27675     27678     27681
     27678     27681     27684     27685     27678     27681     27684     27686
     27678     27681     27684     27687     27679     27678     27681     27682
     27679     27678     27681     27683     27679     27678     27681     27684
     27680     27678     27681     27682     27680     27678     27681     27683
     27680     27678     27681     27684     27681     27684     27687     27688
     27681     27684     27687     27689     27681     27684     27687     27690
     27682     27681     27684     27685     27682     27681     27684     27686
     27682     27681     27684     27687     27683     27681     27684     27685
     27683     27681     27684     27686     27683     27681     27684     27687
     27684     27687     27690     27691     27684     27687     27690     27692
     27684     27687     27690     27693     27685     27684     27687     27688
     27685     27684     27687     27689     27685     27684     27687     27690
     27686     27684     27687     27688     27686     27684     27687     27689
     27686     27684     27687     27690     27687     27690     27693     27694
     27687     27690     27693     27695     27687     27690     27693     27696
     27688     27687     27690     27691     27688     27687     27690     27692
     27688     27687     27690     27693     27689     27687     27690     27691
     27689     27687     27690     27692     27689     27687     27690     27693
     27690     27693     27696     27697     27690     27693     27696     27698
     27690     27693     27696     27699     27691     27690     27693     27694
     27691     27690     27693     27695     27691     27690     27693     27696
     27692     27690     27693     27694     27692     27690     27693     27695
     27692     27690     27693     27696     27693     27696     27699     27700
     27693     27696     27699     27701     27693     27696     27699     27702
     27694     27693     27696     27697     27694     27693     27696     27698
     27694     27693     27696     27699     27695     27693     27696     27697
     27695     27693     27696     27698     27695     27693     27696     27699
     27696     27699     27702     27703     27696     27699     27702     27704
     27696     27699     27702     27705     27697     27696     27699     27700
     27697     27696     27699     27701     27697     27696     27699     27702
     27698     27696     27699     27700     27698     27696     27699     27701
     27698     27696     27699     27702     27699     27702     27705     27706
     27699     27702     27705     27707     27699     27702     27705     27708
     27700     27699     27702     27703     27700     27699     27702     27704
     27700     27699     27702     27705     27701     27699     27702     27703
     27701     27699     27702     27704     27701     27699     27702     27705
     27703     27702     27705     27706     27703     27702     27705     27707
     27703     27702     27705     27708     27704     27702     27705     27706
     27704     27702     27705     27707     27704     27702     27705     27708
     27709     27713     27716     27717     27709     27713     27716     27718
     27709     27713     27716     27723     27710     27709     27713     27714
     27710     27709     27713     27715     27710     27709     27713     27716
     27711     27709     27713     27714     27711     27709     27713     27715
     27711     27709     27713     27716     27712     27709     27713     27714
     27712     27709     27713     27715     27712     27709     27713     27716
     27713     27716     27723     27719     27714     27713     27716     27717
     27714     27713     27716     27718     27714     27713     27716     27723
     27715     27713     27716     27717     27715     27713     27716     27718
     27715     27713     27716     27723     27716     27723     27719     27720
     27716     27723     27719     27721     27716     27723     27719     27722
     27717     27716     27723     27719     27718     27716     27723     27719
     27719     27722     27724     27725     27719     27722     27724     27726
     27719     27722     27724     27727     27720     27719     27722     27724
     27721     27719     27722     27724     27722     27724     27727     27728
     27722     27724     27727     27729     27722     27724     27727     27735
     27723     27719     27722     27724     27724     27727     27729     27730
     27724     27727     27735     27736     27724     27727     27735     27737
     27724     27727     27735     27738     27725     27724     27727     27728
     27725     27724     27727     27729     27725     27724     27727     27735
     27726     27724     27727     27728     27726     27724     27727     27729
     27726     27724     27727     27735     27727     27729     27730     27731
     27727     27729     27730     27732     27727     27735     27738     27739
     27728     27727     27729     27730     27728     27727     27735     27736
     27728     27727     27735     27737     27728     27727     27735     27738
     27729     27727     27735     27736     27729     27727     27735     27737
     27729     27727     27735     27738     27729     27730     27732     27733
     27729     27730     27732     27734     27729     27730     27732     27744
     27730     27729     27727     27735     27730     27732     27744     27745
     27730     27732     27744     27746     27730     27732     27744     27747
     27731     27730     27732     27733     27731     27730     27732     27734
     27731     27730     27732     27744     27732     27744     27747     27748
     27732     27744     27747     27749     27732     27744     27747     27750
     27733     27732     27744     27745     27733     27732     27744     27746
     27733     27732     27744     27747     27734     27732     27744     27745
     27734     27732     27744     27746     27734     27732     27744     27747
     27735     27738     27739     27740     27735     27738     27739     27741
     27736     27735     27738     27739     27737     27735     27738     27739
     27738     27739     27741     27742     27738     27739     27741     27743
     27738     27739     27741     27791     27739     27741     27791     27792
     27739     27741     27791     27793     27739     27741     27791     27794
     27740     27739     27741     27742     27740     27739     27741     27743
     27740     27739     27741     27791     27741     27791     27794     27795
     27741     27791     27794     27796     27741     27791     27794     27797
     27742     27741     27791     27792     27742     27741     27791     27793
     27742     27741     27791     27794     27743     27741     27791     27792
     27743     27741     27791     27793     27743     27741     27791     27794
     27744     27747     27750     27751     27744     27747     27750     27752
     27744     27747     27750     27753     27745     27744     27747     27748
     27745     27744     27747     27749     27745     27744     27747     27750
     27746     27744     27747     27748     27746     27744     27747     27749
     27746     27744     27747     27750     27747     27750     27753     27754
     27747     27750     27753     27755     27747     27750     27753     27756
     27748     27747     27750     27751     27748     27747     27750     27752
     27748     27747     27750     27753     27749     27747     27750     27751
     27749     27747     27750     27752     27749     27747     27750     27753
     27750     27753     27756     27757     27750     27753     27756     27758
     27750     27753     27756     27759     27751     27750     27753     27754
     27751     27750     27753     27755     27751     27750     27753     27756
     27752     27750     27753     27754     27752     27750     27753     27755
     27752     27750     27753     27756     27753     27756     27759     27760
     27753     27756     27759     27761     27753     27756     27759     27762
     27754     27753     27756     27757     27754     27753     27756     27758
     27754     27753     27756     27759     27755     27753     27756     27757
     27755     27753     27756     27758     27755     27753     27756     27759
     27756     27759     27762     27763     27756     27759     27762     27764
     27757     27756     27759     27760     27757     27756     27759     27761
     27757     27756     27759     27762     27758     27756     27759     27760
     27758     27756     27759     27761     27758     27756     27759     27762
     27759     27762     27764     27765     27759     27762     27764     27766
     27760     27759     27762     27763     27760     27759     27762     27764
     27761     27759     27762     27763     27761     27759     27762     27764
     27762     27764     27766     27767     27762     27764     27766     27768
     27762     27764     27766     27769     27763     27762     27764     27765
     27763     27762     27764     27766     27764     27766     27769     27770
     27764     27766     27769     27771     27764     27766     27769     27772
     27765     27764     27766     27767     27765     27764     27766     27768
     27765     27764     27766     27769     27766     27769     27772     27773
     27766     27769     27772     27774     27766     27769     27772     27775
     27767     27766     27769     27770     27767     27766     27769     27771
     27767     27766     27769     27772     27768     27766     27769     27770
     27768     27766     27769     27771     27768     27766     27769     27772
     27769     27772     27775     27776     27769     27772     27775     27777
     27769     27772     27775     27778     27770     27769     27772     27773
     27770     27769     27772     27774     27770     27769     27772     27775
     27771     27769     27772     27773     27771     27769     27772     27774
     27771     27769     27772     27775     27772     27775     27778     27779
     27772     27775     27778     27780     27772     27775     27778     27781
     27773     27772     27775     27776     27773     27772     27775     27777
     27773     27772     27775     27778     27774     27772     27775     27776
     27774     27772     27775     27777     27774     27772     27775     27778
     27775     27778     27781     27782     27775     27778     27781     27783
     27775     27778     27781     27784     27776     27775     27778     27779
     27776     27775     27778     27780     27776     27775     27778     27781
     27777     27775     27778     27779     27777     27775     27778     27780
     27777     27775     27778     27781     27778     27781     27784     27785
     27778     27781     27784     27786     27778     27781     27784     27787
     27779     27778     27781     27782     27779     27778     27781     27783
     27779     27778     27781     27784     27780     27778     27781     27782
     27780     27778     27781     27783     27780     27778     27781     27784
     27781     27784     27787     27788     27781     27784     27787     27789
     27781     27784     27787     27790     27782     27781     27784     27785
     27782     27781     27784     27786     27782     27781     27784     27787
     27783     27781     27784     27785     27783     27781     27784     27786
     27783     27781     27784     27787     27785     27784     27787     27788
     27785     27784     27787     27789     27785     27784     27787     27790
     27786     27784     27787     27788     27786     27784     27787     27789
     27786     27784     27787     27790     27791     27794     27797     27798
     27791     27794     27797     27799     27791     27794     27797     27800
     27792     27791     27794     27795     27792     27791     27794     27796
     27792     27791     27794     27797     27793     27791     27794     27795
     27793     27791     27794     27796     27793     27791     27794     27797
     27794     27797     27800     27801     27794     27797     27800     27802
     27794     27797     27800     27803     27795     27794     27797     27798
     27795     27794     27797     27799     27795     27794     27797     27800
     27796     27794     27797     27798     27796     27794     27797     27799
     27796     27794     27797     27800     27797     27800     27803     27804
     27797     27800     27803     27805     27797     27800     27803     27806
     27798     27797     27800     27801     27798     27797     27800     27802
     27798     27797     27800     27803     27799     27797     27800     27801
     27799     27797     27800     27802     27799     27797     27800     27803
     27800     27803     27806     27807     27800     27803     27806     27808
     27800     27803     27806     27809     27801     27800     27803     27804
     27801     27800     27803     27805     27801     27800     27803     27806
     27802     27800     27803     27804     27802     27800     27803     27805
     27802     27800     27803     27806     27803     27806     27809     27810
     27803     27806     27809     27811     27803     27806     27809     27812
     27804     27803     27806     27807     27804     27803     27806     27808
     27804     27803     27806     27809     27805     27803     27806     27807
     27805     27803     27806     27808     27805     27803     27806     27809
     27806     27809     27812     27813     27806     27809     27812     27814
     27806     27809     27812     27815     27807     27806     27809     27810
     27807     27806     27809     27811     27807     27806     27809     27812
     27808     27806     27809     27810     27808     27806     27809     27811
     27808     27806     27809     27812     27809     27812     27815     27816
     27809     27812     27815     27817     27809     27812     27815     27818
     27810     27809     27812     27813     27810     27809     27812     27814
     27810     27809     27812     27815     27811     27809     27812     27813
     27811     27809     27812     27814     27811     27809     27812     27815
     27812     27815     27818     27819     27812     27815     27818     27820
     27812     27815     27818     27821     27813     27812     27815     27816
     27813     27812     27815     27817     27813     27812     27815     27818
     27814     27812     27815     27816     27814     27812     27815     27817
     27814     27812     27815     27818     27815     27818     27821     27822
     27815     27818     27821     27823     27815     27818     27821     27824
     27816     27815     27818     27819     27816     27815     27818     27820
     27816     27815     27818     27821     27817     27815     27818     27819
     27817     27815     27818     27820     27817     27815     27818     27821
     27818     27821     27824     27825     27818     27821     27824     27826
     27818     27821     27824     27827     27819     27818     27821     27822
     27819     27818     27821     27823     27819     27818     27821     27824
     27820     27818     27821     27822     27820     27818     27821     27823
     27820     27818     27821     27824     27821     27824     27827     27828
     27821     27824     27827     27829     27821     27824     27827     27830
     27822     27821     27824     27825     27822     27821     27824     27826
     27822     27821     27824     27827     27823     27821     27824     27825
     27823     27821     27824     27826     27823     27821     27824     27827
     27824     27827     27830     27831     27824     27827     27830     27832
     27824     27827     27830     27833     27825     27824     27827     27828
     27825     27824     27827     27829     27825     27824     27827     27830
     27826     27824     27827     27828     27826     27824     27827     27829
     27826     27824     27827     27830     27828     27827     27830     27831
     27828     27827     27830     27832     27828     27827     27830     27833
     27829     27827     27830     27831     27829     27827     27830     27832
     27829     27827     27830     27833     27834     27838     27841     27842
     27834     27838     27841     27843     27834     27838     27841     27848
     27835     27834     27838     27839     27835     27834     27838     27840
     27835     27834     27838     27841     27836     27834     27838     27839
     27836     27834     27838     27840     27836     27834     27838     27841
     27837     27834     27838     27839     27837     27834     27838     27840
     27837     27834     27838     27841     27838     27841     27848     27844
     27839     27838     27841     27842     27839     27838     27841     27843
     27839     27838     27841     27848     27840     27838     27841     27842
     27840     27838     27841     27843     27840     27838     27841     27848
     27841     27848     27844     27845     27841     27848     27844     27846
     27841     27848     27844     27847     27842     27841     27848     27844
     27843     27841     27848     27844     27844     27847     27849     27850
     27844     27847     27849     27851     27844     27847     27849     27852
     27845     27844     27847     27849     27846     27844     27847     27849
     27847     27849     27852     27853     27847     27849     27852     27854
     27847     27849     27852     27860     27848     27844     27847     27849
     27849     27852     27854     27855     27849     27852     27860     27861
     27849     27852     27860     27862     27849     27852     27860     27863
     27850     27849     27852     27853     27850     27849     27852     27854
     27850     27849     27852     27860     27851     27849     27852     27853
     27851     27849     27852     27854     27851     27849     27852     27860
     27852     27854     27855     27856     27852     27854     27855     27857
     27852     27860     27863     27864     27853     27852     27854     27855
     27853     27852     27860     27861     27853     27852     27860     27862
     27853     27852     27860     27863     27854     27852     27860     27861
     27854     27852     27860     27862     27854     27852     27860     27863
     27854     27855     27857     27858     27854     27855     27857     27859
     27854     27855     27857     27869     27855     27854     27852     27860
     27855     27857     27869     27870     27855     27857     27869     27871
     27855     27857     27869     27872     27856     27855     27857     27858
     27856     27855     27857     27859     27856     27855     27857     27869
     27857     27869     27872     27873     27857     27869     27872     27874
     27857     27869     27872     27875     27858     27857     27869     27870
     27858     27857     27869     27871     27858     27857     27869     27872
     27859     27857     27869     27870     27859     27857     27869     27871
     27859     27857     27869     27872     27860     27863     27864     27865
     27860     27863     27864     27866     27861     27860     27863     27864
     27862     27860     27863     27864     27863     27864     27866     27867
     27863     27864     27866     27868     27863     27864     27866     27916
     27864     27866     27916     27917     27864     27866     27916     27918
     27864     27866     27916     27919     27865     27864     27866     27867
     27865     27864     27866     27868     27865     27864     27866     27916
     27866     27916     27919     27920     27866     27916     27919     27921
     27866     27916     27919     27922     27867     27866     27916     27917
     27867     27866     27916     27918     27867     27866     27916     27919
     27868     27866     27916     27917     27868     27866     27916     27918
     27868     27866     27916     27919     27869     27872     27875     27876
     27869     27872     27875     27877     27869     27872     27875     27878
     27870     27869     27872     27873     27870     27869     27872     27874
     27870     27869     27872     27875     27871     27869     27872     27873
     27871     27869     27872     27874     27871     27869     27872     27875
     27872     27875     27878     27879     27872     27875     27878     27880
     27872     27875     27878     27881     27873     27872     27875     27876
     27873     27872     27875     27877     27873     27872     27875     27878
     27874     27872     27875     27876     27874     27872     27875     27877
     27874     27872     27875     27878     27875     27878     27881     27882
     27875     27878     27881     27883     27875     27878     27881     27884
     27876     27875     27878     27879     27876     27875     27878     27880
     27876     27875     27878     27881     27877     27875     27878     27879
     27877     27875     27878     27880     27877     27875     27878     27881
     27878     27881     27884     27885     27878     27881     27884     27886
     27878     27881     27884     27887     27879     27878     27881     27882
     27879     27878     27881     27883     27879     27878     27881     27884
     27880     27878     27881     27882     27880     27878     27881     27883
     27880     27878     27881     27884     27881     27884     27887     27888
     27881     27884     27887     27889     27882     27881     27884     27885
     27882     27881     27884     27886     27882     27881     27884     27887
     27883     27881     27884     27885     27883     27881     27884     27886
     27883     27881     27884     27887     27884     27887     27889     27890
     27884     27887     27889     27891     27885     27884     27887     27888
     27885     27884     27887     27889     27886     27884     27887     27888
     27886     27884     27887     27889     27887     27889     27891     27892
     27887     27889     27891     27893     27887     27889     27891     27894
     27888     27887     27889     27890     27888     27887     27889     27891
     27889     27891     27894     27895     27889     27891     27894     27896
     27889     27891     27894     27897     27890     27889     27891     27892
     27890     27889     27891     27893     27890     27889     27891     27894
     27891     27894     27897     27898     27891     27894     27897     27899
     27891     27894     27897     27900     27892     27891     27894     27895
     27892     27891     27894     27896     27892     27891     27894     27897
     27893     27891     27894     27895     27893     27891     27894     27896
     27893     27891     27894     27897     27894     27897     27900     27901
     27894     27897     27900     27902     27894     27897     27900     27903
     27895     27894     27897     27898     27895     27894     27897     27899
     27895     27894     27897     27900     27896     27894     27897     27898
     27896     27894     27897     27899     27896     27894     27897     27900
     27897     27900     27903     27904     27897     27900     27903     27905
     27897     27900     27903     27906     27898     27897     27900     27901
     27898     27897     27900     27902     27898     27897     27900     27903
     27899     27897     27900     27901     27899     27897     27900     27902
     27899     27897     27900     27903     27900     27903     27906     27907
     27900     27903     27906     27908     27900     27903     27906     27909
     27901     27900     27903     27904     27901     27900     27903     27905
     27901     27900     27903     27906     27902     27900     27903     27904
     27902     27900     27903     27905     27902     27900     27903     27906
     27903     27906     27909     27910     27903     27906     27909     27911
     27903     27906     27909     27912     27904     27903     27906     27907
     27904     27903     27906     27908     27904     27903     27906     27909
     27905     27903     27906     27907     27905     27903     27906     27908
     27905     27903     27906     27909     27906     27909     27912     27913
     27906     27909     27912     27914     27906     27909     27912     27915
     27907     27906     27909     27910     27907     27906     27909     27911
     27907     27906     27909     27912     27908     27906     27909     27910
     27908     27906     27909     27911     27908     27906     27909     27912
     27910     27909     27912     27913     27910     27909     27912     27914
     27910     27909     27912     27915     27911     27909     27912     27913
     27911     27909     27912     27914     27911     27909     27912     27915
     27916     27919     27922     27923     27916     27919     27922     27924
     27916     27919     27922     27925     27917     27916     27919     27920
     27917     27916     27919     27921     27917     27916     27919     27922
     27918     27916     27919     27920     27918     27916     27919     27921
     27918     27916     27919     27922     27919     27922     27925     27926
     27919     27922     27925     27927     27919     27922     27925     27928
     27920     27919     27922     27923     27920     27919     27922     27924
     27920     27919     27922     27925     27921     27919     27922     27923
     27921     27919     27922     27924     27921     27919     27922     27925
     27922     27925     27928     27929     27922     27925     27928     27930
     27922     27925     27928     27931     27923     27922     27925     27926
     27923     27922     27925     27927     27923     27922     27925     27928
     27924     27922     27925     27926     27924     27922     27925     27927
     27924     27922     27925     27928     27925     27928     27931     27932
     27925     27928     27931     27933     27925     27928     27931     27934
     27926     27925     27928     27929     27926     27925     27928     27930
     27926     27925     27928     27931     27927     27925     27928     27929
     27927     27925     27928     27930     27927     27925     27928     27931
     27928     27931     27934     27935     27928     27931     27934     27936
     27928     27931     27934     27937     27929     27928     27931     27932
     27929     27928     27931     27933     27929     27928     27931     27934
     27930     27928     27931     27932     27930     27928     27931     27933
     27930     27928     27931     27934     27931     27934     27937     27938
     27931     27934     27937     27939     27931     27934     27937     27940
     27932     27931     27934     27935     27932     27931     27934     27936
     27932     27931     27934     27937     27933     27931     27934     27935
     27933     27931     27934     27936     27933     27931     27934     27937
     27934     27937     27940     27941     27934     27937     27940     27942
     27934     27937     27940     27943     27935     27934     27937     27938
     27935     27934     27937     27939     27935     27934     27937     27940
     27936     27934     27937     27938     27936     27934     27937     27939
     27936     27934     27937     27940     27937     27940     27943     27944
     27937     27940     27943     27945     27937     27940     27943     27946
     27938     27937     27940     27941     27938     27937     27940     27942
     27938     27937     27940     27943     27939     27937     27940     27941
     27939     27937     27940     27942     27939     27937     27940     27943
     27940     27943     27946     27947     27940     27943     27946     27948
     27940     27943     27946     27949     27941     27940     27943     27944
     27941     27940     27943     27945     27941     27940     27943     27946
     27942     27940     27943     27944     27942     27940     27943     27945
     27942     27940     27943     27946     27943     27946     27949     27950
     27943     27946     27949     27951     27943     27946     27949     27952
     27944     27943     27946     27947     27944     27943     27946     27948
     27944     27943     27946     27949     27945     27943     27946     27947
     27945     27943     27946     27948     27945     27943     27946     27949
     27946     27949     27952     27953     27946     27949     27952     27954
     27946     27949     27952     27955     27947     27946     27949     27950
     27947     27946     27949     27951     27947     27946     27949     27952
     27948     27946     27949     27950     27948     27946     27949     27951
     27948     27946     27949     27952     27949     27952     27955     27956
     27949     27952     27955     27957     27949     27952     27955     27958
     27950     27949     27952     27953     27950     27949     27952     27954
     27950     27949     27952     27955     27951     27949     27952     27953
     27951     27949     27952     27954     27951     27949     27952     27955
     27953     27952     27955     27956     27953     27952     27955     27957
     27953     27952     27955     27958     27954     27952     27955     27956
     27954     27952     27955     27957     27954     27952     27955     27958
     27959     27960     27975     27976     27959     27960     27975     27977
     27959     27960     27975     27981     27960     27959     27963     27964
     27960     27959     27963     27965     27960     27959     27963     27966
     27960     27959     27967     27968     27960     27959     27967     27969
     27960     27959     27967     27970     27960     27959     27971     27972
     27960     27959     27971     27973     27960     27959     27971     27974
     27960     27975     27981     27978     27961     27960     27959     27963
     27961     27960     27959     27967     27961     27960     27959     27971
     27961     27960     27975     27976     27961     27960     27975     27977
     27961     27960     27975     27981     27962     27960     27959     27963
     27962     27960     27959     27967     27962     27960     27959     27971
     27962     27960     27975     27976     27962     27960     27975     27977
     27962     27960     27975     27981     27963     27959     27960     27975
     27963     27959     27967     27968     27963     27959     27967     27969
     27963     27959     27967     27970     27963     27959     27971     27972
     27963     27959     27971     27973     27963     27959     27971     27974
     27964     27963     27959     27967     27964     27963     27959     27971
     27965     27963     27959     27967     27965     27963     27959     27971
     27966     27963     27959     27967     27966     27963     27959     27971
     27967     27959     27960     27975     27967     27959     27971     27972
     27967     27959     27971     27973     27967     27959     27971     27974
     27968     27967     27959     27971     27969     27967     27959     27971
     27970     27967     27959     27971     27971     27959     27960     27975
     27975     27981     27978     27979     27975     27981     27978     27980
     27975     27981     27978     27982     27976     27975     27981     27978
     27977     27975     27981     27978     27978     27982     27983     27984
     27978     27982     27983     27985     27978     27982     27983     27986
     27979     27978     27982     27983     27980     27978     27982     27983
     27981     27978     27982     27983     27982     27983     27986     27987
     27982     27983     27986     27988     27982     27983     27986     27994
     27983     27986     27988     27989     27983     27986     27994     27995
     27983     27986     27994     27996     27983     27986     27994     27997
     27984     27983     27986     27987     27984     27983     27986     27988
     27984     27983     27986     27994     27985     27983     27986     27987
     27985     27983     27986     27988     27985     27983     27986     27994
     27986     27988     27989     27990     27986     27988     27989     27991
     27986     27994     27997     27998     27987     27986     27988     27989
     27987     27986     27994     27995     27987     27986     27994     27996
     27987     27986     27994     27997     27988     27986     27994     27995
     27988     27986     27994     27996     27988     27986     27994     27997
     27988     27989     27991     27992     27988     27989     27991     27993
     27988     27989     27991     28003     27989     27988     27986     27994
     27989     27991     28003     28004     27989     27991     28003     28005
     27989     27991     28003     28006     27990     27989     27991     27992
     27990     27989     27991     27993     27990     27989     27991     28003
     27991     28003     28006     28007     27991     28003     28006     28008
     27991     28003     28006     28009     27992     27991     28003     28004
     27992     27991     28003     28005     27992     27991     28003     28006
     27993     27991     28003     28004     27993     27991     28003     28005
     27993     27991     28003     28006     27994     27997     27998     27999
     27994     27997     27998     28000     27995     27994     27997     27998
     27996     27994     27997     27998     27997     27998     28000     28001
     27997     27998     28000     28002     27997     27998     28000     28050
     27998     28000     28050     28051     27998     28000     28050     28052
     27998     28000     28050     28053     27999     27998     28000     28001
     27999     27998     28000     28002     27999     27998     28000     28050
     28000     28050     28053     28054     28000     28050     28053     28055
     28000     28050     28053     28056     28001     28000     28050     28051
     28001     28000     28050     28052     28001     28000     28050     28053
     28002     28000     28050     28051     28002     28000     28050     28052
     28002     28000     28050     28053     28003     28006     28009     28010
     28003     28006     28009     28011     28003     28006     28009     28012
     28004     28003     28006     28007     28004     28003     28006     28008
     28004     28003     28006     28009     28005     28003     28006     28007
     28005     28003     28006     28008     28005     28003     28006     28009
     28006     28009     28012     28013     28006     28009     28012     28014
     28006     28009     28012     28015     28007     28006     28009     28010
     28007     28006     28009     28011     28007     28006     28009     28012
     28008     28006     28009     28010     28008     28006     28009     28011
     28008     28006     28009     28012     28009     28012     28015     28016
     28009     28012     28015     28017     28009     28012     28015     28018
     28010     28009     28012     28013     28010     28009     28012     28014
     28010     28009     28012     28015     28011     28009     28012     28013
     28011     28009     28012     28014     28011     28009     28012     28015
     28012     28015     28018     28019     28012     28015     28018     28020
     28012     28015     28018     28021     28013     28012     28015     28016
     28013     28012     28015     28017     28013     28012     28015     28018
     28014     28012     28015     28016     28014     28012     28015     28017
     28014     28012     28015     28018     28015     28018     28021     28022
     28015     28018     28021     28023     28016     28015     28018     28019
     28016     28015     28018     28020     28016     28015     28018     28021
     28017     28015     28018     28019     28017     28015     28018     28020
     28017     28015     28018     28021     28018     28021     28023     28024
     28018     28021     28023     28025     28019     28018     28021     28022
     28019     28018     28021     28023     28020     28018     28021     28022
     28020     28018     28021     28023     28021     28023     28025     28026
     28021     28023     28025     28027     28021     28023     28025     28028
     28022     28021     28023     28024     28022     28021     28023     28025
     28023     28025     28028     28029     28023     28025     28028     28030
     28023     28025     28028     28031     28024     28023     28025     28026
     28024     28023     28025     28027     28024     28023     28025     28028
     28025     28028     28031     28032     28025     28028     28031     28033
     28025     28028     28031     28034     28026     28025     28028     28029
     28026     28025     28028     28030     28026     28025     28028     28031
     28027     28025     28028     28029     28027     28025     28028     28030
     28027     28025     28028     28031     28028     28031     28034     28035
     28028     28031     28034     28036     28028     28031     28034     28037
     28029     28028     28031     28032     28029     28028     28031     28033
     28029     28028     28031     28034     28030     28028     28031     28032
     28030     28028     28031     28033     28030     28028     28031     28034
     28031     28034     28037     28038     28031     28034     28037     28039
     28031     28034     28037     28040     28032     28031     28034     28035
     28032     28031     28034     28036     28032     28031     28034     28037
     28033     28031     28034     28035     28033     28031     28034     28036
     28033     28031     28034     28037     28034     28037     28040     28041
     28034     28037     28040     28042     28034     28037     28040     28043
     28035     28034     28037     28038     28035     28034     28037     28039
     28035     28034     28037     28040     28036     28034     28037     28038
     28036     28034     28037     28039     28036     28034     28037     28040
     28037     28040     28043     28044     28037     28040     28043     28045
     28037     28040     28043     28046     28038     28037     28040     28041
     28038     28037     28040     28042     28038     28037     28040     28043
     28039     28037     28040     28041     28039     28037     28040     28042
     28039     28037     28040     28043     28040     28043     28046     28047
     28040     28043     28046     28048     28040     28043     28046     28049
     28041     28040     28043     28044     28041     28040     28043     28045
     28041     28040     28043     28046     28042     28040     28043     28044
     28042     28040     28043     28045     28042     28040     28043     28046
     28044     28043     28046     28047     28044     28043     28046     28048
     28044     28043     28046     28049     28045     28043     28046     28047
     28045     28043     28046     28048     28045     28043     28046     28049
     28050     28053     28056     28057     28050     28053     28056     28058
     28050     28053     28056     28059     28051     28050     28053     28054
     28051     28050     28053     28055     28051     28050     28053     28056
     28052     28050     28053     28054     28052     28050     28053     28055
     28052     28050     28053     28056     28053     28056     28059     28060
     28053     28056     28059     28061     28053     28056     28059     28062
     28054     28053     28056     28057     28054     28053     28056     28058
     28054     28053     28056     28059     28055     28053     28056     28057
     28055     28053     28056     28058     28055     28053     28056     28059
     28056     28059     28062     28063     28056     28059     28062     28064
     28056     28059     28062     28065     28057     28056     28059     28060
     28057     28056     28059     28061     28057     28056     28059     28062
     28058     28056     28059     28060     28058     28056     28059     28061
     28058     28056     28059     28062     28059     28062     28065     28066
     28059     28062     28065     28067     28059     28062     28065     28068
     28060     28059     28062     28063     28060     28059     28062     28064
     28060     28059     28062     28065     28061     28059     28062     28063
     28061     28059     28062     28064     28061     28059     28062     28065
     28062     28065     28068     28069     28062     28065     28068     28070
     28062     28065     28068     28071     28063     28062     28065     28066
     28063     28062     28065     28067     28063     28062     28065     28068
     28064     28062     28065     28066     28064     28062     28065     28067
     28064     28062     28065     28068     28065     28068     28071     28072
     28065     28068     28071     28073     28065     28068     28071     28074
     28066     28065     28068     28069     28066     28065     28068     28070
     28066     28065     28068     28071     28067     28065     28068     28069
     28067     28065     28068     28070     28067     28065     28068     28071
     28068     28071     28074     28075     28068     28071     28074     28076
     28068     28071     28074     28077     28069     28068     28071     28072
     28069     28068     28071     28073     28069     28068     28071     28074
     28070     28068     28071     28072     28070     28068     28071     28073
     28070     28068     28071     28074     28071     28074     28077     28078
     28071     28074     28077     28079     28071     28074     28077     28080
     28072     28071     28074     28075     28072     28071     28074     28076
     28072     28071     28074     28077     28073     28071     28074     28075
     28073     28071     28074     28076     28073     28071     28074     28077
     28074     28077     28080     28081     28074     28077     28080     28082
     28074     28077     28080     28083     28075     28074     28077     28078
     28075     28074     28077     28079     28075     28074     28077     28080
     28076     28074     28077     28078     28076     28074     28077     28079
     28076     28074     28077     28080     28077     28080     28083     28084
     28077     28080     28083     28085     28077     28080     28083     28086
     28078     28077     28080     28081     28078     28077     28080     28082
     28078     28077     28080     28083     28079     28077     28080     28081
     28079     28077     28080     28082     28079     28077     28080     28083
     28080     28083     28086     28087     28080     28083     28086     28088
     28080     28083     28086     28089     28081     28080     28083     28084
     28081     28080     28083     28085     28081     28080     28083     28086
     28082     28080     28083     28084     28082     28080     28083     28085
     28082     28080     28083     28086     28083     28086     28089     28090
     28083     28086     28089     28091     28083     28086     28089     28092
     28084     28083     28086     28087     28084     28083     28086     28088
     28084     28083     28086     28089     28085     28083     28086     28087
     28085     28083     28086     28088     28085     28083     28086     28089
     28087     28086     28089     28090     28087     28086     28089     28091
     28087     28086     28089     28092     28088     28086     28089     28090
     28088     28086     28089     28091     28088     28086     28089     28092
     28093     28094     28109     28110     28093     28094     28109     28111
     28093     28094     28109     28115     28094     28093     28097     28098
     28094     28093     28097     28099     28094     28093     28097     28100
     28094     28093     28101     28102     28094     28093     28101     28103
     28094     28093     28101     28104     28094     28093     28105     28106
     28094     28093     28105     28107     28094     28093     28105     28108
     28094     28109     28115     28112     28095     28094     28093     28097
     28095     28094     28093     28101     28095     28094     28093     28105
     28095     28094     28109     28110     28095     28094     28109     28111
     28095     28094     28109     28115     28096     28094     28093     28097
     28096     28094     28093     28101     28096     28094     28093     28105
     28096     28094     28109     28110     28096     28094     28109     28111
     28096     28094     28109     28115     28097     28093     28094     28109
     28097     28093     28101     28102     28097     28093     28101     28103
     28097     28093     28101     28104     28097     28093     28105     28106
     28097     28093     28105     28107     28097     28093     28105     28108
     28098     28097     28093     28101     28098     28097     28093     28105
     28099     28097     28093     28101     28099     28097     28093     28105
     28100     28097     28093     28101     28100     28097     28093     28105
     28101     28093     28094     28109     28101     28093     28105     28106
     28101     28093     28105     28107     28101     28093     28105     28108
     28102     28101     28093     28105     28103     28101     28093     28105
     28104     28101     28093     28105     28105     28093     28094     28109
     28109     28115     28112     28113     28109     28115     28112     28114
     28109     28115     28112     28116     28110     28109     28115     28112
     28111     28109     28115     28112     28112     28116     28117     28118
     28112     28116     28117     28119     28112     28116     28117     28120
     28113     28112     28116     28117     28114     28112     28116     28117
     28115     28112     28116     28117     28116     28117     28120     28121
     28116     28117     28120     28122     28116     28117     28120     28128
     28117     28120     28122     28123     28117     28120     28128     28129
     28117     28120     28128     28130     28117     28120     28128     28131
     28118     28117     28120     28121     28118     28117     28120     28122
     28118     28117     28120     28128     28119     28117     28120     28121
     28119     28117     28120     28122     28119     28117     28120     28128
     28120     28122     28123     28124     28120     28122     28123     28125
     28120     28128     28131     28132     28121     28120     28122     28123
     28121     28120     28128     28129     28121     28120     28128     28130
     28121     28120     28128     28131     28122     28120     28128     28129
     28122     28120     28128     28130     28122     28120     28128     28131
     28122     28123     28125     28126     28122     28123     28125     28127
     28122     28123     28125     28137     28123     28122     28120     28128
     28123     28125     28137     28138     28123     28125     28137     28139
     28123     28125     28137     28140     28124     28123     28125     28126
     28124     28123     28125     28127     28124     28123     28125     28137
     28125     28137     28140     28141     28125     28137     28140     28142
     28125     28137     28140     28143     28126     28125     28137     28138
     28126     28125     28137     28139     28126     28125     28137     28140
     28127     28125     28137     28138     28127     28125     28137     28139
     28127     28125     28137     28140     28128     28131     28132     28133
     28128     28131     28132     28134     28129     28128     28131     28132
     28130     28128     28131     28132     28131     28132     28134     28135
     28131     28132     28134     28136     28131     28132     28134     28184
     28132     28134     28184     28185     28132     28134     28184     28186
     28132     28134     28184     28187     28133     28132     28134     28135
     28133     28132     28134     28136     28133     28132     28134     28184
     28134     28184     28187     28188     28134     28184     28187     28189
     28134     28184     28187     28190     28135     28134     28184     28185
     28135     28134     28184     28186     28135     28134     28184     28187
     28136     28134     28184     28185     28136     28134     28184     28186
     28136     28134     28184     28187     28137     28140     28143     28144
     28137     28140     28143     28145     28137     28140     28143     28146
     28138     28137     28140     28141     28138     28137     28140     28142
     28138     28137     28140     28143     28139     28137     28140     28141
     28139     28137     28140     28142     28139     28137     28140     28143
     28140     28143     28146     28147     28140     28143     28146     28148
     28140     28143     28146     28149     28141     28140     28143     28144
     28141     28140     28143     28145     28141     28140     28143     28146
     28142     28140     28143     28144     28142     28140     28143     28145
     28142     28140     28143     28146     28143     28146     28149     28150
     28143     28146     28149     28151     28143     28146     28149     28152
     28144     28143     28146     28147     28144     28143     28146     28148
     28144     28143     28146     28149     28145     28143     28146     28147
     28145     28143     28146     28148     28145     28143     28146     28149
     28146     28149     28152     28153     28146     28149     28152     28154
     28146     28149     28152     28155     28147     28146     28149     28150
     28147     28146     28149     28151     28147     28146     28149     28152
     28148     28146     28149     28150     28148     28146     28149     28151
     28148     28146     28149     28152     28149     28152     28155     28156
     28149     28152     28155     28157     28150     28149     28152     28153
     28150     28149     28152     28154     28150     28149     28152     28155
     28151     28149     28152     28153     28151     28149     28152     28154
     28151     28149     28152     28155     28152     28155     28157     28158
     28152     28155     28157     28159     28153     28152     28155     28156
     28153     28152     28155     28157     28154     28152     28155     28156
     28154     28152     28155     28157     28155     28157     28159     28160
     28155     28157     28159     28161     28155     28157     28159     28162
     28156     28155     28157     28158     28156     28155     28157     28159
     28157     28159     28162     28163     28157     28159     28162     28164
     28157     28159     28162     28165     28158     28157     28159     28160
     28158     28157     28159     28161     28158     28157     28159     28162
     28159     28162     28165     28166     28159     28162     28165     28167
     28159     28162     28165     28168     28160     28159     28162     28163
     28160     28159     28162     28164     28160     28159     28162     28165
     28161     28159     28162     28163     28161     28159     28162     28164
     28161     28159     28162     28165     28162     28165     28168     28169
     28162     28165     28168     28170     28162     28165     28168     28171
     28163     28162     28165     28166     28163     28162     28165     28167
     28163     28162     28165     28168     28164     28162     28165     28166
     28164     28162     28165     28167     28164     28162     28165     28168
     28165     28168     28171     28172     28165     28168     28171     28173
     28165     28168     28171     28174     28166     28165     28168     28169
     28166     28165     28168     28170     28166     28165     28168     28171
     28167     28165     28168     28169     28167     28165     28168     28170
     28167     28165     28168     28171     28168     28171     28174     28175
     28168     28171     28174     28176     28168     28171     28174     28177
     28169     28168     28171     28172     28169     28168     28171     28173
     28169     28168     28171     28174     28170     28168     28171     28172
     28170     28168     28171     28173     28170     28168     28171     28174
     28171     28174     28177     28178     28171     28174     28177     28179
     28171     28174     28177     28180     28172     28171     28174     28175
     28172     28171     28174     28176     28172     28171     28174     28177
     28173     28171     28174     28175     28173     28171     28174     28176
     28173     28171     28174     28177     28174     28177     28180     28181
     28174     28177     28180     28182     28174     28177     28180     28183
     28175     28174     28177     28178     28175     28174     28177     28179
     28175     28174     28177     28180     28176     28174     28177     28178
     28176     28174     28177     28179     28176     28174     28177     28180
     28178     28177     28180     28181     28178     28177     28180     28182
     28178     28177     28180     28183     28179     28177     28180     28181
     28179     28177     28180     28182     28179     28177     28180     28183
     28184     28187     28190     28191     28184     28187     28190     28192
     28184     28187     28190     28193     28185     28184     28187     28188
     28185     28184     28187     28189     28185     28184     28187     28190
     28186     28184     28187     28188     28186     28184     28187     28189
     28186     28184     28187     28190     28187     28190     28193     28194
     28187     28190     28193     28195     28187     28190     28193     28196
     28188     28187     28190     28191     28188     28187     28190     28192
     28188     28187     28190     28193     28189     28187     28190     28191
     28189     28187     28190     28192     28189     28187     28190     28193
     28190     28193     28196     28197     28190     28193     28196     28198
     28190     28193     28196     28199     28191     28190     28193     28194
     28191     28190     28193     28195     28191     28190     28193     28196
     28192     28190     28193     28194     28192     28190     28193     28195
     28192     28190     28193     28196     28193     28196     28199     28200
     28193     28196     28199     28201     28193     28196     28199     28202
     28194     28193     28196     28197     28194     28193     28196     28198
     28194     28193     28196     28199     28195     28193     28196     28197
     28195     28193     28196     28198     28195     28193     28196     28199
     28196     28199     28202     28203     28196     28199     28202     28204
     28196     28199     28202     28205     28197     28196     28199     28200
     28197     28196     28199     28201     28197     28196     28199     28202
     28198     28196     28199     28200     28198     28196     28199     28201
     28198     28196     28199     28202     28199     28202     28205     28206
     28199     28202     28205     28207     28199     28202     28205     28208
     28200     28199     28202     28203     28200     28199     28202     28204
     28200     28199     28202     28205     28201     28199     28202     28203
     28201     28199     28202     28204     28201     28199     28202     28205
     28202     28205     28208     28209     28202     28205     28208     28210
     28202     28205     28208     28211     28203     28202     28205     28206
     28203     28202     28205     28207     28203     28202     28205     28208
     28204     28202     28205     28206     28204     28202     28205     28207
     28204     28202     28205     28208     28205     28208     28211     28212
     28205     28208     28211     28213     28205     28208     28211     28214
     28206     28205     28208     28209     28206     28205     28208     28210
     28206     28205     28208     28211     28207     28205     28208     28209
     28207     28205     28208     28210     28207     28205     28208     28211
     28208     28211     28214     28215     28208     28211     28214     28216
     28208     28211     28214     28217     28209     28208     28211     28212
     28209     28208     28211     28213     28209     28208     28211     28214
     28210     28208     28211     28212     28210     28208     28211     28213
     28210     28208     28211     28214     28211     28214     28217     28218
     28211     28214     28217     28219     28211     28214     28217     28220
     28212     28211     28214     28215     28212     28211     28214     28216
     28212     28211     28214     28217     28213     28211     28214     28215
     28213     28211     28214     28216     28213     28211     28214     28217
     28214     28217     28220     28221     28214     28217     28220     28222
     28214     28217     28220     28223     28215     28214     28217     28218
     28215     28214     28217     28219     28215     28214     28217     28220
     28216     28214     28217     28218     28216     28214     28217     28219
     28216     28214     28217     28220     28217     28220     28223     28224
     28217     28220     28223     28225     28217     28220     28223     28226
     28218     28217     28220     28221     28218     28217     28220     28222
     28218     28217     28220     28223     28219     28217     28220     28221
     28219     28217     28220     28222     28219     28217     28220     28223
     28221     28220     28223     28224     28221     28220     28223     28225
     28221     28220     28223     28226     28222     28220     28223     28224
     28222     28220     28223     28225     28222     28220     28223     28226
     28227     28231     28234     28235     28227     28231     28234     28236
     28227     28231     28234     28241     28228     28227     28231     28232
     28228     28227     28231     28233     28228     28227     28231     28234
     28229     28227     28231     28232     28229     28227     28231     28233
     28229     28227     28231     28234     28230     28227     28231     28232
     28230     28227     28231     28233     28230     28227     28231     28234
     28231     28234     28241     28237     28232     28231     28234     28235
     28232     28231     28234     28236     28232     28231     28234     28241
     28233     28231     28234     28235     28233     28231     28234     28236
     28233     28231     28234     28241     28234     28241     28237     28238
     28234     28241     28237     28239     28234     28241     28237     28240
     28235     28234     28241     28237     28236     28234     28241     28237
     28237     28240     28242     28243     28237     28240     28242     28244
     28237     28240     28242     28245     28238     28237     28240     28242
     28239     28237     28240     28242     28240     28242     28245     28246
     28240     28242     28245     28247     28240     28242     28245     28253
     28241     28237     28240     28242     28242     28245     28247     28248
     28242     28245     28253     28254     28242     28245     28253     28255
     28242     28245     28253     28256     28243     28242     28245     28246
     28243     28242     28245     28247     28243     28242     28245     28253
     28244     28242     28245     28246     28244     28242     28245     28247
     28244     28242     28245     28253     28245     28247     28248     28249
     28245     28247     28248     28250     28245     28253     28256     28257
     28246     28245     28247     28248     28246     28245     28253     28254
     28246     28245     28253     28255     28246     28245     28253     28256
     28247     28245     28253     28254     28247     28245     28253     28255
     28247     28245     28253     28256     28247     28248     28250     28251
     28247     28248     28250     28252     28247     28248     28250     28262
     28248     28247     28245     28253     28248     28250     28262     28263
     28248     28250     28262     28264     28248     28250     28262     28265
     28249     28248     28250     28251     28249     28248     28250     28252
     28249     28248     28250     28262     28250     28262     28265     28266
     28250     28262     28265     28267     28250     28262     28265     28268
     28251     28250     28262     28263     28251     28250     28262     28264
     28251     28250     28262     28265     28252     28250     28262     28263
     28252     28250     28262     28264     28252     28250     28262     28265
     28253     28256     28257     28258     28253     28256     28257     28259
     28254     28253     28256     28257     28255     28253     28256     28257
     28256     28257     28259     28260     28256     28257     28259     28261
     28256     28257     28259     28309     28257     28259     28309     28310
     28257     28259     28309     28311     28257     28259     28309     28312
     28258     28257     28259     28260     28258     28257     28259     28261
     28258     28257     28259     28309     28259     28309     28312     28313
     28259     28309     28312     28314     28259     28309     28312     28315
     28260     28259     28309     28310     28260     28259     28309     28311
     28260     28259     28309     28312     28261     28259     28309     28310
     28261     28259     28309     28311     28261     28259     28309     28312
     28262     28265     28268     28269     28262     28265     28268     28270
     28262     28265     28268     28271     28263     28262     28265     28266
     28263     28262     28265     28267     28263     28262     28265     28268
     28264     28262     28265     28266     28264     28262     28265     28267
     28264     28262     28265     28268     28265     28268     28271     28272
     28265     28268     28271     28273     28265     28268     28271     28274
     28266     28265     28268     28269     28266     28265     28268     28270
     28266     28265     28268     28271     28267     28265     28268     28269
     28267     28265     28268     28270     28267     28265     28268     28271
     28268     28271     28274     28275     28268     28271     28274     28276
     28268     28271     28274     28277     28269     28268     28271     28272
     28269     28268     28271     28273     28269     28268     28271     28274
     28270     28268     28271     28272     28270     28268     28271     28273
     28270     28268     28271     28274     28271     28274     28277     28278
     28271     28274     28277     28279     28271     28274     28277     28280
     28272     28271     28274     28275     28272     28271     28274     28276
     28272     28271     28274     28277     28273     28271     28274     28275
     28273     28271     28274     28276     28273     28271     28274     28277
     28274     28277     28280     28281     28274     28277     28280     28282
     28275     28274     28277     28278     28275     28274     28277     28279
     28275     28274     28277     28280     28276     28274     28277     28278
     28276     28274     28277     28279     28276     28274     28277     28280
     28277     28280     28282     28283     28277     28280     28282     28284
     28278     28277     28280     28281     28278     28277     28280     28282
     28279     28277     28280     28281     28279     28277     28280     28282
     28280     28282     28284     28285     28280     28282     28284     28286
     28280     28282     28284     28287     28281     28280     28282     28283
     28281     28280     28282     28284     28282     28284     28287     28288
     28282     28284     28287     28289     28282     28284     28287     28290
     28283     28282     28284     28285     28283     28282     28284     28286
     28283     28282     28284     28287     28284     28287     28290     28291
     28284     28287     28290     28292     28284     28287     28290     28293
     28285     28284     28287     28288     28285     28284     28287     28289
     28285     28284     28287     28290     28286     28284     28287     28288
     28286     28284     28287     28289     28286     28284     28287     28290
     28287     28290     28293     28294     28287     28290     28293     28295
     28287     28290     28293     28296     28288     28287     28290     28291
     28288     28287     28290     28292     28288     28287     28290     28293
     28289     28287     28290     28291     28289     28287     28290     28292
     28289     28287     28290     28293     28290     28293     28296     28297
     28290     28293     28296     28298     28290     28293     28296     28299
     28291     28290     28293     28294     28291     28290     28293     28295
     28291     28290     28293     28296     28292     28290     28293     28294
     28292     28290     28293     28295     28292     28290     28293     28296
     28293     28296     28299     28300     28293     28296     28299     28301
     28293     28296     28299     28302     28294     28293     28296     28297
     28294     28293     28296     28298     28294     28293     28296     28299
     28295     28293     28296     28297     28295     28293     28296     28298
     28295     28293     28296     28299     28296     28299     28302     28303
     28296     28299     28302     28304     28296     28299     28302     28305
     28297     28296     28299     28300     28297     28296     28299     28301
     28297     28296     28299     28302     28298     28296     28299     28300
     28298     28296     28299     28301     28298     28296     28299     28302
     28299     28302     28305     28306     28299     28302     28305     28307
     28299     28302     28305     28308     28300     28299     28302     28303
     28300     28299     28302     28304     28300     28299     28302     28305
     28301     28299     28302     28303     28301     28299     28302     28304
     28301     28299     28302     28305     28303     28302     28305     28306
     28303     28302     28305     28307     28303     28302     28305     28308
     28304     28302     28305     28306     28304     28302     28305     28307
     28304     28302     28305     28308     28309     28312     28315     28316
     28309     28312     28315     28317     28309     28312     28315     28318
     28310     28309     28312     28313     28310     28309     28312     28314
     28310     28309     28312     28315     28311     28309     28312     28313
     28311     28309     28312     28314     28311     28309     28312     28315
     28312     28315     28318     28319     28312     28315     28318     28320
     28312     28315     28318     28321     28313     28312     28315     28316
     28313     28312     28315     28317     28313     28312     28315     28318
     28314     28312     28315     28316     28314     28312     28315     28317
     28314     28312     28315     28318     28315     28318     28321     28322
     28315     28318     28321     28323     28315     28318     28321     28324
     28316     28315     28318     28319     28316     28315     28318     28320
     28316     28315     28318     28321     28317     28315     28318     28319
     28317     28315     28318     28320     28317     28315     28318     28321
     28318     28321     28324     28325     28318     28321     28324     28326
     28318     28321     28324     28327     28319     28318     28321     28322
     28319     28318     28321     28323     28319     28318     28321     28324
     28320     28318     28321     28322     28320     28318     28321     28323
     28320     28318     28321     28324     28321     28324     28327     28328
     28321     28324     28327     28329     28321     28324     28327     28330
     28322     28321     28324     28325     28322     28321     28324     28326
     28322     28321     28324     28327     28323     28321     28324     28325
     28323     28321     28324     28326     28323     28321     28324     28327
     28324     28327     28330     28331     28324     28327     28330     28332
     28324     28327     28330     28333     28325     28324     28327     28328
     28325     28324     28327     28329     28325     28324     28327     28330
     28326     28324     28327     28328     28326     28324     28327     28329
     28326     28324     28327     28330     28327     28330     28333     28334
     28327     28330     28333     28335     28327     28330     28333     28336
     28328     28327     28330     28331     28328     28327     28330     28332
     28328     28327     28330     28333     28329     28327     28330     28331
     28329     28327     28330     28332     28329     28327     28330     28333
     28330     28333     28336     28337     28330     28333     28336     28338
     28330     28333     28336     28339     28331     28330     28333     28334
     28331     28330     28333     28335     28331     28330     28333     28336
     28332     28330     28333     28334     28332     28330     28333     28335
     28332     28330     28333     28336     28333     28336     28339     28340
     28333     28336     28339     28341     28333     28336     28339     28342
     28334     28333     28336     28337     28334     28333     28336     28338
     28334     28333     28336     28339     28335     28333     28336     28337
     28335     28333     28336     28338     28335     28333     28336     28339
     28336     28339     28342     28343     28336     28339     28342     28344
     28336     28339     28342     28345     28337     28336     28339     28340
     28337     28336     28339     28341     28337     28336     28339     28342
     28338     28336     28339     28340     28338     28336     28339     28341
     28338     28336     28339     28342     28339     28342     28345     28346
     28339     28342     28345     28347     28339     28342     28345     28348
     28340     28339     28342     28343     28340     28339     28342     28344
     28340     28339     28342     28345     28341     28339     28342     28343
     28341     28339     28342     28344     28341     28339     28342     28345
     28342     28345     28348     28349     28342     28345     28348     28350
     28342     28345     28348     28351     28343     28342     28345     28346
     28343     28342     28345     28347     28343     28342     28345     28348
     28344     28342     28345     28346     28344     28342     28345     28347
     28344     28342     28345     28348     28346     28345     28348     28349
     28346     28345     28348     28350     28346     28345     28348     28351
     28347     28345     28348     28349     28347     28345     28348     28350
     28347     28345     28348     28351     28352     28356     28359     28360
     28352     28356     28359     28361     28352     28356     28359     28366
     28353     28352     28356     28357     28353     28352     28356     28358
     28353     28352     28356     28359     28354     28352     28356     28357
     28354     28352     28356     28358     28354     28352     28356     28359
     28355     28352     28356     28357     28355     28352     28356     28358
     28355     28352     28356     28359     28356     28359     28366     28362
     28357     28356     28359     28360     28357     28356     28359     28361
     28357     28356     28359     28366     28358     28356     28359     28360
     28358     28356     28359     28361     28358     28356     28359     28366
     28359     28366     28362     28363     28359     28366     28362     28364
     28359     28366     28362     28365     28360     28359     28366     28362
     28361     28359     28366     28362     28362     28365     28367     28368
     28362     28365     28367     28369     28362     28365     28367     28370
     28363     28362     28365     28367     28364     28362     28365     28367
     28365     28367     28370     28371     28365     28367     28370     28372
     28365     28367     28370     28378     28366     28362     28365     28367
     28367     28370     28372     28373     28367     28370     28378     28379
     28367     28370     28378     28380     28367     28370     28378     28381
     28368     28367     28370     28371     28368     28367     28370     28372
     28368     28367     28370     28378     28369     28367     28370     28371
     28369     28367     28370     28372     28369     28367     28370     28378
     28370     28372     28373     28374     28370     28372     28373     28375
     28370     28378     28381     28382     28371     28370     28372     28373
     28371     28370     28378     28379     28371     28370     28378     28380
     28371     28370     28378     28381     28372     28370     28378     28379
     28372     28370     28378     28380     28372     28370     28378     28381
     28372     28373     28375     28376     28372     28373     28375     28377
     28372     28373     28375     28387     28373     28372     28370     28378
     28373     28375     28387     28388     28373     28375     28387     28389
     28373     28375     28387     28390     28374     28373     28375     28376
     28374     28373     28375     28377     28374     28373     28375     28387
     28375     28387     28390     28391     28375     28387     28390     28392
     28375     28387     28390     28393     28376     28375     28387     28388
     28376     28375     28387     28389     28376     28375     28387     28390
     28377     28375     28387     28388     28377     28375     28387     28389
     28377     28375     28387     28390     28378     28381     28382     28383
     28378     28381     28382     28384     28379     28378     28381     28382
     28380     28378     28381     28382     28381     28382     28384     28385
     28381     28382     28384     28386     28381     28382     28384     28434
     28382     28384     28434     28435     28382     28384     28434     28436
     28382     28384     28434     28437     28383     28382     28384     28385
     28383     28382     28384     28386     28383     28382     28384     28434
     28384     28434     28437     28438     28384     28434     28437     28439
     28384     28434     28437     28440     28385     28384     28434     28435
     28385     28384     28434     28436     28385     28384     28434     28437
     28386     28384     28434     28435     28386     28384     28434     28436
     28386     28384     28434     28437     28387     28390     28393     28394
     28387     28390     28393     28395     28387     28390     28393     28396
     28388     28387     28390     28391     28388     28387     28390     28392
     28388     28387     28390     28393     28389     28387     28390     28391
     28389     28387     28390     28392     28389     28387     28390     28393
     28390     28393     28396     28397     28390     28393     28396     28398
     28390     28393     28396     28399     28391     28390     28393     28394
     28391     28390     28393     28395     28391     28390     28393     28396
     28392     28390     28393     28394     28392     28390     28393     28395
     28392     28390     28393     28396     28393     28396     28399     28400
     28393     28396     28399     28401     28393     28396     28399     28402
     28394     28393     28396     28397     28394     28393     28396     28398
     28394     28393     28396     28399     28395     28393     28396     28397
     28395     28393     28396     28398     28395     28393     28396     28399
     28396     28399     28402     28403     28396     28399     28402     28404
     28396     28399     28402     28405     28397     28396     28399     28400
     28397     28396     28399     28401     28397     28396     28399     28402
     28398     28396     28399     28400     28398     28396     28399     28401
     28398     28396     28399     28402     28399     28402     28405     28406
     28399     28402     28405     28407     28400     28399     28402     28403
     28400     28399     28402     28404     28400     28399     28402     28405
     28401     28399     28402     28403     28401     28399     28402     28404
     28401     28399     28402     28405     28402     28405     28407     28408
     28402     28405     28407     28409     28403     28402     28405     28406
     28403     28402     28405     28407     28404     28402     28405     28406
     28404     28402     28405     28407     28405     28407     28409     28410
     28405     28407     28409     28411     28405     28407     28409     28412
     28406     28405     28407     28408     28406     28405     28407     28409
     28407     28409     28412     28413     28407     28409     28412     28414
     28407     28409     28412     28415     28408     28407     28409     28410
     28408     28407     28409     28411     28408     28407     28409     28412
     28409     28412     28415     28416     28409     28412     28415     28417
     28409     28412     28415     28418     28410     28409     28412     28413
     28410     28409     28412     28414     28410     28409     28412     28415
     28411     28409     28412     28413     28411     28409     28412     28414
     28411     28409     28412     28415     28412     28415     28418     28419
     28412     28415     28418     28420     28412     28415     28418     28421
     28413     28412     28415     28416     28413     28412     28415     28417
     28413     28412     28415     28418     28414     28412     28415     28416
     28414     28412     28415     28417     28414     28412     28415     28418
     28415     28418     28421     28422     28415     28418     28421     28423
     28415     28418     28421     28424     28416     28415     28418     28419
     28416     28415     28418     28420     28416     28415     28418     28421
     28417     28415     28418     28419     28417     28415     28418     28420
     28417     28415     28418     28421     28418     28421     28424     28425
     28418     28421     28424     28426     28418     28421     28424     28427
     28419     28418     28421     28422     28419     28418     28421     28423
     28419     28418     28421     28424     28420     28418     28421     28422
     28420     28418     28421     28423     28420     28418     28421     28424
     28421     28424     28427     28428     28421     28424     28427     28429
     28421     28424     28427     28430     28422     28421     28424     28425
     28422     28421     28424     28426     28422     28421     28424     28427
     28423     28421     28424     28425     28423     28421     28424     28426
     28423     28421     28424     28427     28424     28427     28430     28431
     28424     28427     28430     28432     28424     28427     28430     28433
     28425     28424     28427     28428     28425     28424     28427     28429
     28425     28424     28427     28430     28426     28424     28427     28428
     28426     28424     28427     28429     28426     28424     28427     28430
     28428     28427     28430     28431     28428     28427     28430     28432
     28428     28427     28430     28433     28429     28427     28430     28431
     28429     28427     28430     28432     28429     28427     28430     28433
     28434     28437     28440     28441     28434     28437     28440     28442
     28434     28437     28440     28443     28435     28434     28437     28438
     28435     28434     28437     28439     28435     28434     28437     28440
     28436     28434     28437     28438     28436     28434     28437     28439
     28436     28434     28437     28440     28437     28440     28443     28444
     28437     28440     28443     28445     28437     28440     28443     28446
     28438     28437     28440     28441     28438     28437     28440     28442
     28438     28437     28440     28443     28439     28437     28440     28441
     28439     28437     28440     28442     28439     28437     28440     28443
     28440     28443     28446     28447     28440     28443     28446     28448
     28440     28443     28446     28449     28441     28440     28443     28444
     28441     28440     28443     28445     28441     28440     28443     28446
     28442     28440     28443     28444     28442     28440     28443     28445
     28442     28440     28443     28446     28443     28446     28449     28450
     28443     28446     28449     28451     28443     28446     28449     28452
     28444     28443     28446     28447     28444     28443     28446     28448
     28444     28443     28446     28449     28445     28443     28446     28447
     28445     28443     28446     28448     28445     28443     28446     28449
     28446     28449     28452     28453     28446     28449     28452     28454
     28446     28449     28452     28455     28447     28446     28449     28450
     28447     28446     28449     28451     28447     28446     28449     28452
     28448     28446     28449     28450     28448     28446     28449     28451
     28448     28446     28449     28452     28449     28452     28455     28456
     28449     28452     28455     28457     28449     28452     28455     28458
     28450     28449     28452     28453     28450     28449     28452     28454
     28450     28449     28452     28455     28451     28449     28452     28453
     28451     28449     28452     28454     28451     28449     28452     28455
     28452     28455     28458     28459     28452     28455     28458     28460
     28452     28455     28458     28461     28453     28452     28455     28456
     28453     28452     28455     28457     28453     28452     28455     28458
     28454     28452     28455     28456     28454     28452     28455     28457
     28454     28452     28455     28458     28455     28458     28461     28462
     28455     28458     28461     28463     28455     28458     28461     28464
     28456     28455     28458     28459     28456     28455     28458     28460
     28456     28455     28458     28461     28457     28455     28458     28459
     28457     28455     28458     28460     28457     28455     28458     28461
     28458     28461     28464     28465     28458     28461     28464     28466
     28458     28461     28464     28467     28459     28458     28461     28462
     28459     28458     28461     28463     28459     28458     28461     28464
     28460     28458     28461     28462     28460     28458     28461     28463
     28460     28458     28461     28464     28461     28464     28467     28468
     28461     28464     28467     28469     28461     28464     28467     28470
     28462     28461     28464     28465     28462     28461     28464     28466
     28462     28461     28464     28467     28463     28461     28464     28465
     28463     28461     28464     28466     28463     28461     28464     28467
     28464     28467     28470     28471     28464     28467     28470     28472
     28464     28467     28470     28473     28465     28464     28467     28468
     28465     28464     28467     28469     28465     28464     28467     28470
     28466     28464     28467     28468     28466     28464     28467     28469
     28466     28464     28467     28470     28467     28470     28473     28474
     28467     28470     28473     28475     28467     28470     28473     28476
     28468     28467     28470     28471     28468     28467     28470     28472
     28468     28467     28470     28473     28469     28467     28470     28471
     28469     28467     28470     28472     28469     28467     28470     28473
     28471     28470     28473     28474     28471     28470     28473     28475
     28471     28470     28473     28476     28472     28470     28473     28474
     28472     28470     28473     28475     28472     28470     28473     28476
     28477     28481     28484     28485     28477     28481     28484     28486
     28477     28481     28484     28491     28478     28477     28481     28482
     28478     28477     28481     28483     28478     28477     28481     28484
     28479     28477     28481     28482     28479     28477     28481     28483
     28479     28477     28481     28484     28480     28477     28481     28482
     28480     28477     28481     28483     28480     28477     28481     28484
     28481     28484     28491     28487     28482     28481     28484     28485
     28482     28481     28484     28486     28482     28481     28484     28491
     28483     28481     28484     28485     28483     28481     28484     28486
     28483     28481     28484     28491     28484     28491     28487     28488
     28484     28491     28487     28489     28484     28491     28487     28490
     28485     28484     28491     28487     28486     28484     28491     28487
     28487     28490     28492     28493     28487     28490     28492     28494
     28487     28490     28492     28495     28488     28487     28490     28492
     28489     28487     28490     28492     28490     28492     28495     28496
     28490     28492     28495     28497     28490     28492     28495     28503
     28491     28487     28490     28492     28492     28495     28497     28498
     28492     28495     28503     28504     28492     28495     28503     28505
     28492     28495     28503     28506     28493     28492     28495     28496
     28493     28492     28495     28497     28493     28492     28495     28503
     28494     28492     28495     28496     28494     28492     28495     28497
     28494     28492     28495     28503     28495     28497     28498     28499
     28495     28497     28498     28500     28495     28503     28506     28507
     28496     28495     28497     28498     28496     28495     28503     28504
     28496     28495     28503     28505     28496     28495     28503     28506
     28497     28495     28503     28504     28497     28495     28503     28505
     28497     28495     28503     28506     28497     28498     28500     28501
     28497     28498     28500     28502     28497     28498     28500     28512
     28498     28497     28495     28503     28498     28500     28512     28513
     28498     28500     28512     28514     28498     28500     28512     28515
     28499     28498     28500     28501     28499     28498     28500     28502
     28499     28498     28500     28512     28500     28512     28515     28516
     28500     28512     28515     28517     28500     28512     28515     28518
     28501     28500     28512     28513     28501     28500     28512     28514
     28501     28500     28512     28515     28502     28500     28512     28513
     28502     28500     28512     28514     28502     28500     28512     28515
     28503     28506     28507     28508     28503     28506     28507     28509
     28504     28503     28506     28507     28505     28503     28506     28507
     28506     28507     28509     28510     28506     28507     28509     28511
     28506     28507     28509     28559     28507     28509     28559     28560
     28507     28509     28559     28561     28507     28509     28559     28562
     28508     28507     28509     28510     28508     28507     28509     28511
     28508     28507     28509     28559     28509     28559     28562     28563
     28509     28559     28562     28564     28509     28559     28562     28565
     28510     28509     28559     28560     28510     28509     28559     28561
     28510     28509     28559     28562     28511     28509     28559     28560
     28511     28509     28559     28561     28511     28509     28559     28562
     28512     28515     28518     28519     28512     28515     28518     28520
     28512     28515     28518     28521     28513     28512     28515     28516
     28513     28512     28515     28517     28513     28512     28515     28518
     28514     28512     28515     28516     28514     28512     28515     28517
     28514     28512     28515     28518     28515     28518     28521     28522
     28515     28518     28521     28523     28515     28518     28521     28524
     28516     28515     28518     28519     28516     28515     28518     28520
     28516     28515     28518     28521     28517     28515     28518     28519
     28517     28515     28518     28520     28517     28515     28518     28521
     28518     28521     28524     28525     28518     28521     28524     28526
     28518     28521     28524     28527     28519     28518     28521     28522
     28519     28518     28521     28523     28519     28518     28521     28524
     28520     28518     28521     28522     28520     28518     28521     28523
     28520     28518     28521     28524     28521     28524     28527     28528
     28521     28524     28527     28529     28521     28524     28527     28530
     28522     28521     28524     28525     28522     28521     28524     28526
     28522     28521     28524     28527     28523     28521     28524     28525
     28523     28521     28524     28526     28523     28521     28524     28527
     28524     28527     28530     28531     28524     28527     28530     28532
     28525     28524     28527     28528     28525     28524     28527     28529
     28525     28524     28527     28530     28526     28524     28527     28528
     28526     28524     28527     28529     28526     28524     28527     28530
     28527     28530     28532     28533     28527     28530     28532     28534
     28528     28527     28530     28531     28528     28527     28530     28532
     28529     28527     28530     28531     28529     28527     28530     28532
     28530     28532     28534     28535     28530     28532     28534     28536
     28530     28532     28534     28537     28531     28530     28532     28533
     28531     28530     28532     28534     28532     28534     28537     28538
     28532     28534     28537     28539     28532     28534     28537     28540
     28533     28532     28534     28535     28533     28532     28534     28536
     28533     28532     28534     28537     28534     28537     28540     28541
     28534     28537     28540     28542     28534     28537     28540     28543
     28535     28534     28537     28538     28535     28534     28537     28539
     28535     28534     28537     28540     28536     28534     28537     28538
     28536     28534     28537     28539     28536     28534     28537     28540
     28537     28540     28543     28544     28537     28540     28543     28545
     28537     28540     28543     28546     28538     28537     28540     28541
     28538     28537     28540     28542     28538     28537     28540     28543
     28539     28537     28540     28541     28539     28537     28540     28542
     28539     28537     28540     28543     28540     28543     28546     28547
     28540     28543     28546     28548     28540     28543     28546     28549
     28541     28540     28543     28544     28541     28540     28543     28545
     28541     28540     28543     28546     28542     28540     28543     28544
     28542     28540     28543     28545     28542     28540     28543     28546
     28543     28546     28549     28550     28543     28546     28549     28551
     28543     28546     28549     28552     28544     28543     28546     28547
     28544     28543     28546     28548     28544     28543     28546     28549
     28545     28543     28546     28547     28545     28543     28546     28548
     28545     28543     28546     28549     28546     28549     28552     28553
     28546     28549     28552     28554     28546     28549     28552     28555
     28547     28546     28549     28550     28547     28546     28549     28551
     28547     28546     28549     28552     28548     28546     28549     28550
     28548     28546     28549     28551     28548     28546     28549     28552
     28549     28552     28555     28556     28549     28552     28555     28557
     28549     28552     28555     28558     28550     28549     28552     28553
     28550     28549     28552     28554     28550     28549     28552     28555
     28551     28549     28552     28553     28551     28549     28552     28554
     28551     28549     28552     28555     28553     28552     28555     28556
     28553     28552     28555     28557     28553     28552     28555     28558
     28554     28552     28555     28556     28554     28552     28555     28557
     28554     28552     28555     28558     28559     28562     28565     28566
     28559     28562     28565     28567     28559     28562     28565     28568
     28560     28559     28562     28563     28560     28559     28562     28564
     28560     28559     28562     28565     28561     28559     28562     28563
     28561     28559     28562     28564     28561     28559     28562     28565
     28562     28565     28568     28569     28562     28565     28568     28570
     28562     28565     28568     28571     28563     28562     28565     28566
     28563     28562     28565     28567     28563     28562     28565     28568
     28564     28562     28565     28566     28564     28562     28565     28567
     28564     28562     28565     28568     28565     28568     28571     28572
     28565     28568     28571     28573     28565     28568     28571     28574
     28566     28565     28568     28569     28566     28565     28568     28570
     28566     28565     28568     28571     28567     28565     28568     28569
     28567     28565     28568     28570     28567     28565     28568     28571
     28568     28571     28574     28575     28568     28571     28574     28576
     28568     28571     28574     28577     28569     28568     28571     28572
     28569     28568     28571     28573     28569     28568     28571     28574
     28570     28568     28571     28572     28570     28568     28571     28573
     28570     28568     28571     28574     28571     28574     28577     28578
     28571     28574     28577     28579     28571     28574     28577     28580
     28572     28571     28574     28575     28572     28571     28574     28576
     28572     28571     28574     28577     28573     28571     28574     28575
     28573     28571     28574     28576     28573     28571     28574     28577
     28574     28577     28580     28581     28574     28577     28580     28582
     28574     28577     28580     28583     28575     28574     28577     28578
     28575     28574     28577     28579     28575     28574     28577     28580
     28576     28574     28577     28578     28576     28574     28577     28579
     28576     28574     28577     28580     28577     28580     28583     28584
     28577     28580     28583     28585     28577     28580     28583     28586
     28578     28577     28580     28581     28578     28577     28580     28582
     28578     28577     28580     28583     28579     28577     28580     28581
     28579     28577     28580     28582     28579     28577     28580     28583
     28580     28583     28586     28587     28580     28583     28586     28588
     28580     28583     28586     28589     28581     28580     28583     28584
     28581     28580     28583     28585     28581     28580     28583     28586
     28582     28580     28583     28584     28582     28580     28583     28585
     28582     28580     28583     28586     28583     28586     28589     28590
     28583     28586     28589     28591     28583     28586     28589     28592
     28584     28583     28586     28587     28584     28583     28586     28588
     28584     28583     28586     28589     28585     28583     28586     28587
     28585     28583     28586     28588     28585     28583     28586     28589
     28586     28589     28592     28593     28586     28589     28592     28594
     28586     28589     28592     28595     28587     28586     28589     28590
     28587     28586     28589     28591     28587     28586     28589     28592
     28588     28586     28589     28590     28588     28586     28589     28591
     28588     28586     28589     28592     28589     28592     28595     28596
     28589     28592     28595     28597     28589     28592     28595     28598
     28590     28589     28592     28593     28590     28589     28592     28594
     28590     28589     28592     28595     28591     28589     28592     28593
     28591     28589     28592     28594     28591     28589     28592     28595
     28592     28595     28598     28599     28592     28595     28598     28600
     28592     28595     28598     28601     28593     28592     28595     28596
     28593     28592     28595     28597     28593     28592     28595     28598
     28594     28592     28595     28596     28594     28592     28595     28597
     28594     28592     28595     28598     28596     28595     28598     28599
     28596     28595     28598     28600     28596     28595     28598     28601
     28597     28595     28598     28599     28597     28595     28598     28600
     28597     28595     28598     28601     28602     28606     28609     28610
     28602     28606     28609     28611     28602     28606     28609     28616
     28603     28602     28606     28607     28603     28602     28606     28608
     28603     28602     28606     28609     28604     28602     28606     28607
     28604     28602     28606     28608     28604     28602     28606     28609
     28605     28602     28606     28607     28605     28602     28606     28608
     28605     28602     28606     28609     28606     28609     28616     28612
     28607     28606     28609     28610     28607     28606     28609     28611
     28607     28606     28609     28616     28608     28606     28609     28610
     28608     28606     28609     28611     28608     28606     28609     28616
     28609     28616     28612     28613     28609     28616     28612     28614
     28609     28616     28612     28615     28610     28609     28616     28612
     28611     28609     28616     28612     28612     28615     28617     28618
     28612     28615     28617     28619     28612     28615     28617     28620
     28613     28612     28615     28617     28614     28612     28615     28617
     28615     28617     28620     28621     28615     28617     28620     28622
     28615     28617     28620     28628     28616     28612     28615     28617
     28617     28620     28622     28623     28617     28620     28628     28629
     28617     28620     28628     28630     28617     28620     28628     28631
     28618     28617     28620     28621     28618     28617     28620     28622
     28618     28617     28620     28628     28619     28617     28620     28621
     28619     28617     28620     28622     28619     28617     28620     28628
     28620     28622     28623     28624     28620     28622     28623     28625
     28620     28628     28631     28632     28621     28620     28622     28623
     28621     28620     28628     28629     28621     28620     28628     28630
     28621     28620     28628     28631     28622     28620     28628     28629
     28622     28620     28628     28630     28622     28620     28628     28631
     28622     28623     28625     28626     28622     28623     28625     28627
     28622     28623     28625     28637     28623     28622     28620     28628
     28623     28625     28637     28638     28623     28625     28637     28639
     28623     28625     28637     28640     28624     28623     28625     28626
     28624     28623     28625     28627     28624     28623     28625     28637
     28625     28637     28640     28641     28625     28637     28640     28642
     28625     28637     28640     28643     28626     28625     28637     28638
     28626     28625     28637     28639     28626     28625     28637     28640
     28627     28625     28637     28638     28627     28625     28637     28639
     28627     28625     28637     28640     28628     28631     28632     28633
     28628     28631     28632     28634     28629     28628     28631     28632
     28630     28628     28631     28632     28631     28632     28634     28635
     28631     28632     28634     28636     28631     28632     28634     28684
     28632     28634     28684     28685     28632     28634     28684     28686
     28632     28634     28684     28687     28633     28632     28634     28635
     28633     28632     28634     28636     28633     28632     28634     28684
     28634     28684     28687     28688     28634     28684     28687     28689
     28634     28684     28687     28690     28635     28634     28684     28685
     28635     28634     28684     28686     28635     28634     28684     28687
     28636     28634     28684     28685     28636     28634     28684     28686
     28636     28634     28684     28687     28637     28640     28643     28644
     28637     28640     28643     28645     28637     28640     28643     28646
     28638     28637     28640     28641     28638     28637     28640     28642
     28638     28637     28640     28643     28639     28637     28640     28641
     28639     28637     28640     28642     28639     28637     28640     28643
     28640     28643     28646     28647     28640     28643     28646     28648
     28640     28643     28646     28649     28641     28640     28643     28644
     28641     28640     28643     28645     28641     28640     28643     28646
     28642     28640     28643     28644     28642     28640     28643     28645
     28642     28640     28643     28646     28643     28646     28649     28650
     28643     28646     28649     28651     28643     28646     28649     28652
     28644     28643     28646     28647     28644     28643     28646     28648
     28644     28643     28646     28649     28645     28643     28646     28647
     28645     28643     28646     28648     28645     28643     28646     28649
     28646     28649     28652     28653     28646     28649     28652     28654
     28646     28649     28652     28655     28647     28646     28649     28650
     28647     28646     28649     28651     28647     28646     28649     28652
     28648     28646     28649     28650     28648     28646     28649     28651
     28648     28646     28649     28652     28649     28652     28655     28656
     28649     28652     28655     28657     28650     28649     28652     28653
     28650     28649     28652     28654     28650     28649     28652     28655
     28651     28649     28652     28653     28651     28649     28652     28654
     28651     28649     28652     28655     28652     28655     28657     28658
     28652     28655     28657     28659     28653     28652     28655     28656
     28653     28652     28655     28657     28654     28652     28655     28656
     28654     28652     28655     28657     28655     28657     28659     28660
     28655     28657     28659     28661     28655     28657     28659     28662
     28656     28655     28657     28658     28656     28655     28657     28659
     28657     28659     28662     28663     28657     28659     28662     28664
     28657     28659     28662     28665     28658     28657     28659     28660
     28658     28657     28659     28661     28658     28657     28659     28662
     28659     28662     28665     28666     28659     28662     28665     28667
     28659     28662     28665     28668     28660     28659     28662     28663
     28660     28659     28662     28664     28660     28659     28662     28665
     28661     28659     28662     28663     28661     28659     28662     28664
     28661     28659     28662     28665     28662     28665     28668     28669
     28662     28665     28668     28670     28662     28665     28668     28671
     28663     28662     28665     28666     28663     28662     28665     28667
     28663     28662     28665     28668     28664     28662     28665     28666
     28664     28662     28665     28667     28664     28662     28665     28668
     28665     28668     28671     28672     28665     28668     28671     28673
     28665     28668     28671     28674     28666     28665     28668     28669
     28666     28665     28668     28670     28666     28665     28668     28671
     28667     28665     28668     28669     28667     28665     28668     28670
     28667     28665     28668     28671     28668     28671     28674     28675
     28668     28671     28674     28676     28668     28671     28674     28677
     28669     28668     28671     28672     28669     28668     28671     28673
     28669     28668     28671     28674     28670     28668     28671     28672
     28670     28668     28671     28673     28670     28668     28671     28674
     28671     28674     28677     28678     28671     28674     28677     28679
     28671     28674     28677     28680     28672     28671     28674     28675
     28672     28671     28674     28676     28672     28671     28674     28677
     28673     28671     28674     28675     28673     28671     28674     28676
     28673     28671     28674     28677     28674     28677     28680     28681
     28674     28677     28680     28682     28674     28677     28680     28683
     28675     28674     28677     28678     28675     28674     28677     28679
     28675     28674     28677     28680     28676     28674     28677     28678
     28676     28674     28677     28679     28676     28674     28677     28680
     28678     28677     28680     28681     28678     28677     28680     28682
     28678     28677     28680     28683     28679     28677     28680     28681
     28679     28677     28680     28682     28679     28677     28680     28683
     28684     28687     28690     28691     28684     28687     28690     28692
     28684     28687     28690     28693     28685     28684     28687     28688
     28685     28684     28687     28689     28685     28684     28687     28690
     28686     28684     28687     28688     28686     28684     28687     28689
     28686     28684     28687     28690     28687     28690     28693     28694
     28687     28690     28693     28695     28687     28690     28693     28696
     28688     28687     28690     28691     28688     28687     28690     28692
     28688     28687     28690     28693     28689     28687     28690     28691
     28689     28687     28690     28692     28689     28687     28690     28693
     28690     28693     28696     28697     28690     28693     28696     28698
     28690     28693     28696     28699     28691     28690     28693     28694
     28691     28690     28693     28695     28691     28690     28693     28696
     28692     28690     28693     28694     28692     28690     28693     28695
     28692     28690     28693     28696     28693     28696     28699     28700
     28693     28696     28699     28701     28693     28696     28699     28702
     28694     28693     28696     28697     28694     28693     28696     28698
     28694     28693     28696     28699     28695     28693     28696     28697
     28695     28693     28696     28698     28695     28693     28696     28699
     28696     28699     28702     28703     28696     28699     28702     28704
     28696     28699     28702     28705     28697     28696     28699     28700
     28697     28696     28699     28701     28697     28696     28699     28702
     28698     28696     28699     28700     28698     28696     28699     28701
     28698     28696     28699     28702     28699     28702     28705     28706
     28699     28702     28705     28707     28699     28702     28705     28708
     28700     28699     28702     28703     28700     28699     28702     28704
     28700     28699     28702     28705     28701     28699     28702     28703
     28701     28699     28702     28704     28701     28699     28702     28705
     28702     28705     28708     28709     28702     28705     28708     28710
     28702     28705     28708     28711     28703     28702     28705     28706
     28703     28702     28705     28707     28703     28702     28705     28708
     28704     28702     28705     28706     28704     28702     28705     28707
     28704     28702     28705     28708     28705     28708     28711     28712
     28705     28708     28711     28713     28705     28708     28711     28714
     28706     28705     28708     28709     28706     28705     28708     28710
     28706     28705     28708     28711     28707     28705     28708     28709
     28707     28705     28708     28710     28707     28705     28708     28711
     28708     28711     28714     28715     28708     28711     28714     28716
     28708     28711     28714     28717     28709     28708     28711     28712
     28709     28708     28711     28713     28709     28708     28711     28714
     28710     28708     28711     28712     28710     28708     28711     28713
     28710     28708     28711     28714     28711     28714     28717     28718
     28711     28714     28717     28719     28711     28714     28717     28720
     28712     28711     28714     28715     28712     28711     28714     28716
     28712     28711     28714     28717     28713     28711     28714     28715
     28713     28711     28714     28716     28713     28711     28714     28717
     28714     28717     28720     28721     28714     28717     28720     28722
     28714     28717     28720     28723     28715     28714     28717     28718
     28715     28714     28717     28719     28715     28714     28717     28720
     28716     28714     28717     28718     28716     28714     28717     28719
     28716     28714     28717     28720     28717     28720     28723     28724
     28717     28720     28723     28725     28717     28720     28723     28726
     28718     28717     28720     28721     28718     28717     28720     28722
     28718     28717     28720     28723     28719     28717     28720     28721
     28719     28717     28720     28722     28719     28717     28720     28723
     28721     28720     28723     28724     28721     28720     28723     28725
     28721     28720     28723     28726     28722     28720     28723     28724
     28722     28720     28723     28725     28722     28720     28723     28726
     28727     28731     28734     28735     28727     28731     28734     28736
     28727     28731     28734     28741     28728     28727     28731     28732
     28728     28727     28731     28733     28728     28727     28731     28734
     28729     28727     28731     28732     28729     28727     28731     28733
     28729     28727     28731     28734     28730     28727     28731     28732
     28730     28727     28731     28733     28730     28727     28731     28734
     28731     28734     28741     28737     28732     28731     28734     28735
     28732     28731     28734     28736     28732     28731     28734     28741
     28733     28731     28734     28735     28733     28731     28734     28736
     28733     28731     28734     28741     28734     28741     28737     28738
     28734     28741     28737     28739     28734     28741     28737     28740
     28735     28734     28741     28737     28736     28734     28741     28737
     28737     28740     28742     28743     28737     28740     28742     28744
     28737     28740     28742     28745     28738     28737     28740     28742
     28739     28737     28740     28742     28740     28742     28745     28746
     28740     28742     28745     28747     28740     28742     28745     28753
     28741     28737     28740     28742     28742     28745     28747     28748
     28742     28745     28753     28754     28742     28745     28753     28755
     28742     28745     28753     28756     28743     28742     28745     28746
     28743     28742     28745     28747     28743     28742     28745     28753
     28744     28742     28745     28746     28744     28742     28745     28747
     28744     28742     28745     28753     28745     28747     28748     28749
     28745     28747     28748     28750     28745     28753     28756     28757
     28746     28745     28747     28748     28746     28745     28753     28754
     28746     28745     28753     28755     28746     28745     28753     28756
     28747     28745     28753     28754     28747     28745     28753     28755
     28747     28745     28753     28756     28747     28748     28750     28751
     28747     28748     28750     28752     28747     28748     28750     28762
     28748     28747     28745     28753     28748     28750     28762     28763
     28748     28750     28762     28764     28748     28750     28762     28765
     28749     28748     28750     28751     28749     28748     28750     28752
     28749     28748     28750     28762     28750     28762     28765     28766
     28750     28762     28765     28767     28750     28762     28765     28768
     28751     28750     28762     28763     28751     28750     28762     28764
     28751     28750     28762     28765     28752     28750     28762     28763
     28752     28750     28762     28764     28752     28750     28762     28765
     28753     28756     28757     28758     28753     28756     28757     28759
     28754     28753     28756     28757     28755     28753     28756     28757
     28756     28757     28759     28760     28756     28757     28759     28761
     28756     28757     28759     28809     28757     28759     28809     28810
     28757     28759     28809     28811     28757     28759     28809     28812
     28758     28757     28759     28760     28758     28757     28759     28761
     28758     28757     28759     28809     28759     28809     28812     28813
     28759     28809     28812     28814     28759     28809     28812     28815
     28760     28759     28809     28810     28760     28759     28809     28811
     28760     28759     28809     28812     28761     28759     28809     28810
     28761     28759     28809     28811     28761     28759     28809     28812
     28762     28765     28768     28769     28762     28765     28768     28770
     28762     28765     28768     28771     28763     28762     28765     28766
     28763     28762     28765     28767     28763     28762     28765     28768
     28764     28762     28765     28766     28764     28762     28765     28767
     28764     28762     28765     28768     28765     28768     28771     28772
     28765     28768     28771     28773     28765     28768     28771     28774
     28766     28765     28768     28769     28766     28765     28768     28770
     28766     28765     28768     28771     28767     28765     28768     28769
     28767     28765     28768     28770     28767     28765     28768     28771
     28768     28771     28774     28775     28768     28771     28774     28776
     28768     28771     28774     28777     28769     28768     28771     28772
     28769     28768     28771     28773     28769     28768     28771     28774
     28770     28768     28771     28772     28770     28768     28771     28773
     28770     28768     28771     28774     28771     28774     28777     28778
     28771     28774     28777     28779     28771     28774     28777     28780
     28772     28771     28774     28775     28772     28771     28774     28776
     28772     28771     28774     28777     28773     28771     28774     28775
     28773     28771     28774     28776     28773     28771     28774     28777
     28774     28777     28780     28781     28774     28777     28780     28782
     28775     28774     28777     28778     28775     28774     28777     28779
     28775     28774     28777     28780     28776     28774     28777     28778
     28776     28774     28777     28779     28776     28774     28777     28780
     28777     28780     28782     28783     28777     28780     28782     28784
     28778     28777     28780     28781     28778     28777     28780     28782
     28779     28777     28780     28781     28779     28777     28780     28782
     28780     28782     28784     28785     28780     28782     28784     28786
     28780     28782     28784     28787     28781     28780     28782     28783
     28781     28780     28782     28784     28782     28784     28787     28788
     28782     28784     28787     28789     28782     28784     28787     28790
     28783     28782     28784     28785     28783     28782     28784     28786
     28783     28782     28784     28787     28784     28787     28790     28791
     28784     28787     28790     28792     28784     28787     28790     28793
     28785     28784     28787     28788     28785     28784     28787     28789
     28785     28784     28787     28790     28786     28784     28787     28788
     28786     28784     28787     28789     28786     28784     28787     28790
     28787     28790     28793     28794     28787     28790     28793     28795
     28787     28790     28793     28796     28788     28787     28790     28791
     28788     28787     28790     28792     28788     28787     28790     28793
     28789     28787     28790     28791     28789     28787     28790     28792
     28789     28787     28790     28793     28790     28793     28796     28797
     28790     28793     28796     28798     28790     28793     28796     28799
     28791     28790     28793     28794     28791     28790     28793     28795
     28791     28790     28793     28796     28792     28790     28793     28794
     28792     28790     28793     28795     28792     28790     28793     28796
     28793     28796     28799     28800     28793     28796     28799     28801
     28793     28796     28799     28802     28794     28793     28796     28797
     28794     28793     28796     28798     28794     28793     28796     28799
     28795     28793     28796     28797     28795     28793     28796     28798
     28795     28793     28796     28799     28796     28799     28802     28803
     28796     28799     28802     28804     28796     28799     28802     28805
     28797     28796     28799     28800     28797     28796     28799     28801
     28797     28796     28799     28802     28798     28796     28799     28800
     28798     28796     28799     28801     28798     28796     28799     28802
     28799     28802     28805     28806     28799     28802     28805     28807
     28799     28802     28805     28808     28800     28799     28802     28803
     28800     28799     28802     28804     28800     28799     28802     28805
     28801     28799     28802     28803     28801     28799     28802     28804
     28801     28799     28802     28805     28803     28802     28805     28806
     28803     28802     28805     28807     28803     28802     28805     28808
     28804     28802     28805     28806     28804     28802     28805     28807
     28804     28802     28805     28808     28809     28812     28815     28816
     28809     28812     28815     28817     28809     28812     28815     28818
     28810     28809     28812     28813     28810     28809     28812     28814
     28810     28809     28812     28815     28811     28809     28812     28813
     28811     28809     28812     28814     28811     28809     28812     28815
     28812     28815     28818     28819     28812     28815     28818     28820
     28812     28815     28818     28821     28813     28812     28815     28816
     28813     28812     28815     28817     28813     28812     28815     28818
     28814     28812     28815     28816     28814     28812     28815     28817
     28814     28812     28815     28818     28815     28818     28821     28822
     28815     28818     28821     28823     28815     28818     28821     28824
     28816     28815     28818     28819     28816     28815     28818     28820
     28816     28815     28818     28821     28817     28815     28818     28819
     28817     28815     28818     28820     28817     28815     28818     28821
     28818     28821     28824     28825     28818     28821     28824     28826
     28818     28821     28824     28827     28819     28818     28821     28822
     28819     28818     28821     28823     28819     28818     28821     28824
     28820     28818     28821     28822     28820     28818     28821     28823
     28820     28818     28821     28824     28821     28824     28827     28828
     28821     28824     28827     28829     28821     28824     28827     28830
     28822     28821     28824     28825     28822     28821     28824     28826
     28822     28821     28824     28827     28823     28821     28824     28825
     28823     28821     28824     28826     28823     28821     28824     28827
     28824     28827     28830     28831     28824     28827     28830     28832
     28824     28827     28830     28833     28825     28824     28827     28828
     28825     28824     28827     28829     28825     28824     28827     28830
     28826     28824     28827     28828     28826     28824     28827     28829
     28826     28824     28827     28830     28827     28830     28833     28834
     28827     28830     28833     28835     28827     28830     28833     28836
     28828     28827     28830     28831     28828     28827     28830     28832
     28828     28827     28830     28833     28829     28827     28830     28831
     28829     28827     28830     28832     28829     28827     28830     28833
     28830     28833     28836     28837     28830     28833     28836     28838
     28830     28833     28836     28839     28831     28830     28833     28834
     28831     28830     28833     28835     28831     28830     28833     28836
     28832     28830     28833     28834     28832     28830     28833     28835
     28832     28830     28833     28836     28833     28836     28839     28840
     28833     28836     28839     28841     28833     28836     28839     28842
     28834     28833     28836     28837     28834     28833     28836     28838
     28834     28833     28836     28839     28835     28833     28836     28837
     28835     28833     28836     28838     28835     28833     28836     28839
     28836     28839     28842     28843     28836     28839     28842     28844
     28836     28839     28842     28845     28837     28836     28839     28840
     28837     28836     28839     28841     28837     28836     28839     28842
     28838     28836     28839     28840     28838     28836     28839     28841
     28838     28836     28839     28842     28839     28842     28845     28846
     28839     28842     28845     28847     28839     28842     28845     28848
     28840     28839     28842     28843     28840     28839     28842     28844
     28840     28839     28842     28845     28841     28839     28842     28843
     28841     28839     28842     28844     28841     28839     28842     28845
     28842     28845     28848     28849     28842     28845     28848     28850
     28842     28845     28848     28851     28843     28842     28845     28846
     28843     28842     28845     28847     28843     28842     28845     28848
     28844     28842     28845     28846     28844     28842     28845     28847
     28844     28842     28845     28848     28846     28845     28848     28849
     28846     28845     28848     28850     28846     28845     28848     28851
     28847     28845     28848     28849     28847     28845     28848     28850
     28847     28845     28848     28851     28852     28853     28868     28869
     28852     28853     28868     28870     28852     28853     28868     28874
     28853     28852     28856     28857     28853     28852     28856     28858
     28853     28852     28856     28859     28853     28852     28860     28861
     28853     28852     28860     28862     28853     28852     28860     28863
     28853     28852     28864     28865     28853     28852     28864     28866
     28853     28852     28864     28867     28853     28868     28874     28871
     28854     28853     28852     28856     28854     28853     28852     28860
     28854     28853     28852     28864     28854     28853     28868     28869
     28854     28853     28868     28870     28854     28853     28868     28874
     28855     28853     28852     28856     28855     28853     28852     28860
     28855     28853     28852     28864     28855     28853     28868     28869
     28855     28853     28868     28870     28855     28853     28868     28874
     28856     28852     28853     28868     28856     28852     28860     28861
     28856     28852     28860     28862     28856     28852     28860     28863
     28856     28852     28864     28865     28856     28852     28864     28866
     28856     28852     28864     28867     28857     28856     28852     28860
     28857     28856     28852     28864     28858     28856     28852     28860
     28858     28856     28852     28864     28859     28856     28852     28860
     28859     28856     28852     28864     28860     28852     28853     28868
     28860     28852     28864     28865     28860     28852     28864     28866
     28860     28852     28864     28867     28861     28860     28852     28864
     28862     28860     28852     28864     28863     28860     28852     28864
     28864     28852     28853     28868     28868     28874     28871     28872
     28868     28874     28871     28873     28868     28874     28871     28875
     28869     28868     28874     28871     28870     28868     28874     28871
     28871     28875     28876     28877     28871     28875     28876     28878
     28871     28875     28876     28879     28872     28871     28875     28876
     28873     28871     28875     28876     28874     28871     28875     28876
     28875     28876     28879     28880     28875     28876     28879     28881
     28875     28876     28879     28887     28876     28879     28881     28882
     28876     28879     28887     28888     28876     28879     28887     28889
     28876     28879     28887     28890     28877     28876     28879     28880
     28877     28876     28879     28881     28877     28876     28879     28887
     28878     28876     28879     28880     28878     28876     28879     28881
     28878     28876     28879     28887     28879     28881     28882     28883
     28879     28881     28882     28884     28879     28887     28890     28891
     28880     28879     28881     28882     28880     28879     28887     28888
     28880     28879     28887     28889     28880     28879     28887     28890
     28881     28879     28887     28888     28881     28879     28887     28889
     28881     28879     28887     28890     28881     28882     28884     28885
     28881     28882     28884     28886     28881     28882     28884     28896
     28882     28881     28879     28887     28882     28884     28896     28897
     28882     28884     28896     28898     28882     28884     28896     28899
     28883     28882     28884     28885     28883     28882     28884     28886
     28883     28882     28884     28896     28884     28896     28899     28900
     28884     28896     28899     28901     28884     28896     28899     28902
     28885     28884     28896     28897     28885     28884     28896     28898
     28885     28884     28896     28899     28886     28884     28896     28897
     28886     28884     28896     28898     28886     28884     28896     28899
     28887     28890     28891     28892     28887     28890     28891     28893
     28888     28887     28890     28891     28889     28887     28890     28891
     28890     28891     28893     28894     28890     28891     28893     28895
     28890     28891     28893     28943     28891     28893     28943     28944
     28891     28893     28943     28945     28891     28893     28943     28946
     28892     28891     28893     28894     28892     28891     28893     28895
     28892     28891     28893     28943     28893     28943     28946     28947
     28893     28943     28946     28948     28893     28943     28946     28949
     28894     28893     28943     28944     28894     28893     28943     28945
     28894     28893     28943     28946     28895     28893     28943     28944
     28895     28893     28943     28945     28895     28893     28943     28946
     28896     28899     28902     28903     28896     28899     28902     28904
     28896     28899     28902     28905     28897     28896     28899     28900
     28897     28896     28899     28901     28897     28896     28899     28902
     28898     28896     28899     28900     28898     28896     28899     28901
     28898     28896     28899     28902     28899     28902     28905     28906
     28899     28902     28905     28907     28899     28902     28905     28908
     28900     28899     28902     28903     28900     28899     28902     28904
     28900     28899     28902     28905     28901     28899     28902     28903
     28901     28899     28902     28904     28901     28899     28902     28905
     28902     28905     28908     28909     28902     28905     28908     28910
     28902     28905     28908     28911     28903     28902     28905     28906
     28903     28902     28905     28907     28903     28902     28905     28908
     28904     28902     28905     28906     28904     28902     28905     28907
     28904     28902     28905     28908     28905     28908     28911     28912
     28905     28908     28911     28913     28905     28908     28911     28914
     28906     28905     28908     28909     28906     28905     28908     28910
     28906     28905     28908     28911     28907     28905     28908     28909
     28907     28905     28908     28910     28907     28905     28908     28911
     28908     28911     28914     28915     28908     28911     28914     28916
     28909     28908     28911     28912     28909     28908     28911     28913
     28909     28908     28911     28914     28910     28908     28911     28912
     28910     28908     28911     28913     28910     28908     28911     28914
     28911     28914     28916     28917     28911     28914     28916     28918
     28912     28911     28914     28915     28912     28911     28914     28916
     28913     28911     28914     28915     28913     28911     28914     28916
     28914     28916     28918     28919     28914     28916     28918     28920
     28914     28916     28918     28921     28915     28914     28916     28917
     28915     28914     28916     28918     28916     28918     28921     28922
     28916     28918     28921     28923     28916     28918     28921     28924
     28917     28916     28918     28919     28917     28916     28918     28920
     28917     28916     28918     28921     28918     28921     28924     28925
     28918     28921     28924     28926     28918     28921     28924     28927
     28919     28918     28921     28922     28919     28918     28921     28923
     28919     28918     28921     28924     28920     28918     28921     28922
     28920     28918     28921     28923     28920     28918     28921     28924
     28921     28924     28927     28928     28921     28924     28927     28929
     28921     28924     28927     28930     28922     28921     28924     28925
     28922     28921     28924     28926     28922     28921     28924     28927
     28923     28921     28924     28925     28923     28921     28924     28926
     28923     28921     28924     28927     28924     28927     28930     28931
     28924     28927     28930     28932     28924     28927     28930     28933
     28925     28924     28927     28928     28925     28924     28927     28929
     28925     28924     28927     28930     28926     28924     28927     28928
     28926     28924     28927     28929     28926     28924     28927     28930
     28927     28930     28933     28934     28927     28930     28933     28935
     28927     28930     28933     28936     28928     28927     28930     28931
     28928     28927     28930     28932     28928     28927     28930     28933
     28929     28927     28930     28931     28929     28927     28930     28932
     28929     28927     28930     28933     28930     28933     28936     28937
     28930     28933     28936     28938     28930     28933     28936     28939
     28931     28930     28933     28934     28931     28930     28933     28935
     28931     28930     28933     28936     28932     28930     28933     28934
     28932     28930     28933     28935     28932     28930     28933     28936
     28933     28936     28939     28940     28933     28936     28939     28941
     28933     28936     28939     28942     28934     28933     28936     28937
     28934     28933     28936     28938     28934     28933     28936     28939
     28935     28933     28936     28937     28935     28933     28936     28938
     28935     28933     28936     28939     28937     28936     28939     28940
     28937     28936     28939     28941     28937     28936     28939     28942
     28938     28936     28939     28940     28938     28936     28939     28941
     28938     28936     28939     28942     28943     28946     28949     28950
     28943     28946     28949     28951     28943     28946     28949     28952
     28944     28943     28946     28947     28944     28943     28946     28948
     28944     28943     28946     28949     28945     28943     28946     28947
     28945     28943     28946     28948     28945     28943     28946     28949
     28946     28949     28952     28953     28946     28949     28952     28954
     28946     28949     28952     28955     28947     28946     28949     28950
     28947     28946     28949     28951     28947     28946     28949     28952
     28948     28946     28949     28950     28948     28946     28949     28951
     28948     28946     28949     28952     28949     28952     28955     28956
     28949     28952     28955     28957     28949     28952     28955     28958
     28950     28949     28952     28953     28950     28949     28952     28954
     28950     28949     28952     28955     28951     28949     28952     28953
     28951     28949     28952     28954     28951     28949     28952     28955
     28952     28955     28958     28959     28952     28955     28958     28960
     28952     28955     28958     28961     28953     28952     28955     28956
     28953     28952     28955     28957     28953     28952     28955     28958
     28954     28952     28955     28956     28954     28952     28955     28957
     28954     28952     28955     28958     28955     28958     28961     28962
     28955     28958     28961     28963     28955     28958     28961     28964
     28956     28955     28958     28959     28956     28955     28958     28960
     28956     28955     28958     28961     28957     28955     28958     28959
     28957     28955     28958     28960     28957     28955     28958     28961
     28958     28961     28964     28965     28958     28961     28964     28966
     28958     28961     28964     28967     28959     28958     28961     28962
     28959     28958     28961     28963     28959     28958     28961     28964
     28960     28958     28961     28962     28960     28958     28961     28963
     28960     28958     28961     28964     28961     28964     28967     28968
     28961     28964     28967     28969     28961     28964     28967     28970
     28962     28961     28964     28965     28962     28961     28964     28966
     28962     28961     28964     28967     28963     28961     28964     28965
     28963     28961     28964     28966     28963     28961     28964     28967
     28964     28967     28970     28971     28964     28967     28970     28972
     28964     28967     28970     28973     28965     28964     28967     28968
     28965     28964     28967     28969     28965     28964     28967     28970
     28966     28964     28967     28968     28966     28964     28967     28969
     28966     28964     28967     28970     28967     28970     28973     28974
     28967     28970     28973     28975     28967     28970     28973     28976
     28968     28967     28970     28971     28968     28967     28970     28972
     28968     28967     28970     28973     28969     28967     28970     28971
     28969     28967     28970     28972     28969     28967     28970     28973
     28970     28973     28976     28977     28970     28973     28976     28978
     28970     28973     28976     28979     28971     28970     28973     28974
     28971     28970     28973     28975     28971     28970     28973     28976
     28972     28970     28973     28974     28972     28970     28973     28975
     28972     28970     28973     28976     28973     28976     28979     28980
     28973     28976     28979     28981     28973     28976     28979     28982
     28974     28973     28976     28977     28974     28973     28976     28978
     28974     28973     28976     28979     28975     28973     28976     28977
     28975     28973     28976     28978     28975     28973     28976     28979
     28976     28979     28982     28983     28976     28979     28982     28984
     28976     28979     28982     28985     28977     28976     28979     28980
     28977     28976     28979     28981     28977     28976     28979     28982
     28978     28976     28979     28980     28978     28976     28979     28981
     28978     28976     28979     28982     28980     28979     28982     28983
     28980     28979     28982     28984     28980     28979     28982     28985
     28981     28979     28982     28983     28981     28979     28982     28984
     28981     28979     28982     28985     28986     28987     29002     29003
     28986     28987     29002     29004     28986     28987     29002     29008
     28987     28986     28990     28991     28987     28986     28990     28992
     28987     28986     28990     28993     28987     28986     28994     28995
     28987     28986     28994     28996     28987     28986     28994     28997
     28987     28986     28998     28999     28987     28986     28998     29000
     28987     28986     28998     29001     28987     29002     29008     29005
     28988     28987     28986     28990     28988     28987     28986     28994
     28988     28987     28986     28998     28988     28987     29002     29003
     28988     28987     29002     29004     28988     28987     29002     29008
     28989     28987     28986     28990     28989     28987     28986     28994
     28989     28987     28986     28998     28989     28987     29002     29003
     28989     28987     29002     29004     28989     28987     29002     29008
     28990     28986     28987     29002     28990     28986     28994     28995
     28990     28986     28994     28996     28990     28986     28994     28997
     28990     28986     28998     28999     28990     28986     28998     29000
     28990     28986     28998     29001     28991     28990     28986     28994
     28991     28990     28986     28998     28992     28990     28986     28994
     28992     28990     28986     28998     28993     28990     28986     28994
     28993     28990     28986     28998     28994     28986     28987     29002
     28994     28986     28998     28999     28994     28986     28998     29000
     28994     28986     28998     29001     28995     28994     28986     28998
     28996     28994     28986     28998     28997     28994     28986     28998
     28998     28986     28987     29002     29002     29008     29005     29006
     29002     29008     29005     29007     29002     29008     29005     29009
     29003     29002     29008     29005     29004     29002     29008     29005
     29005     29009     29010     29011     29005     29009     29010     29012
     29005     29009     29010     29013     29006     29005     29009     29010
     29007     29005     29009     29010     29008     29005     29009     29010
     29009     29010     29013     29014     29009     29010     29013     29015
     29009     29010     29013     29021     29010     29013     29015     29016
     29010     29013     29021     29022     29010     29013     29021     29023
     29010     29013     29021     29024     29011     29010     29013     29014
     29011     29010     29013     29015     29011     29010     29013     29021
     29012     29010     29013     29014     29012     29010     29013     29015
     29012     29010     29013     29021     29013     29015     29016     29017
     29013     29015     29016     29018     29013     29021     29024     29025
     29014     29013     29015     29016     29014     29013     29021     29022
     29014     29013     29021     29023     29014     29013     29021     29024
     29015     29013     29021     29022     29015     29013     29021     29023
     29015     29013     29021     29024     29015     29016     29018     29019
     29015     29016     29018     29020     29015     29016     29018     29030
     29016     29015     29013     29021     29016     29018     29030     29031
     29016     29018     29030     29032     29016     29018     29030     29033
     29017     29016     29018     29019     29017     29016     29018     29020
     29017     29016     29018     29030     29018     29030     29033     29034
     29018     29030     29033     29035     29018     29030     29033     29036
     29019     29018     29030     29031     29019     29018     29030     29032
     29019     29018     29030     29033     29020     29018     29030     29031
     29020     29018     29030     29032     29020     29018     29030     29033
     29021     29024     29025     29026     29021     29024     29025     29027
     29022     29021     29024     29025     29023     29021     29024     29025
     29024     29025     29027     29028     29024     29025     29027     29029
     29024     29025     29027     29077     29025     29027     29077     29078
     29025     29027     29077     29079     29025     29027     29077     29080
     29026     29025     29027     29028     29026     29025     29027     29029
     29026     29025     29027     29077     29027     29077     29080     29081
     29027     29077     29080     29082     29027     29077     29080     29083
     29028     29027     29077     29078     29028     29027     29077     29079
     29028     29027     29077     29080     29029     29027     29077     29078
     29029     29027     29077     29079     29029     29027     29077     29080
     29030     29033     29036     29037     29030     29033     29036     29038
     29030     29033     29036     29039     29031     29030     29033     29034
     29031     29030     29033     29035     29031     29030     29033     29036
     29032     29030     29033     29034     29032     29030     29033     29035
     29032     29030     29033     29036     29033     29036     29039     29040
     29033     29036     29039     29041     29033     29036     29039     29042
     29034     29033     29036     29037     29034     29033     29036     29038
     29034     29033     29036     29039     29035     29033     29036     29037
     29035     29033     29036     29038     29035     29033     29036     29039
     29036     29039     29042     29043     29036     29039     29042     29044
     29036     29039     29042     29045     29037     29036     29039     29040
     29037     29036     29039     29041     29037     29036     29039     29042
     29038     29036     29039     29040     29038     29036     29039     29041
     29038     29036     29039     29042     29039     29042     29045     29046
     29039     29042     29045     29047     29039     29042     29045     29048
     29040     29039     29042     29043     29040     29039     29042     29044
     29040     29039     29042     29045     29041     29039     29042     29043
     29041     29039     29042     29044     29041     29039     29042     29045
     29042     29045     29048     29049     29042     29045     29048     29050
     29043     29042     29045     29046     29043     29042     29045     29047
     29043     29042     29045     29048     29044     29042     29045     29046
     29044     29042     29045     29047     29044     29042     29045     29048
     29045     29048     29050     29051     29045     29048     29050     29052
     29046     29045     29048     29049     29046     29045     29048     29050
     29047     29045     29048     29049     29047     29045     29048     29050
     29048     29050     29052     29053     29048     29050     29052     29054
     29048     29050     29052     29055     29049     29048     29050     29051
     29049     29048     29050     29052     29050     29052     29055     29056
     29050     29052     29055     29057     29050     29052     29055     29058
     29051     29050     29052     29053     29051     29050     29052     29054
     29051     29050     29052     29055     29052     29055     29058     29059
     29052     29055     29058     29060     29052     29055     29058     29061
     29053     29052     29055     29056     29053     29052     29055     29057
     29053     29052     29055     29058     29054     29052     29055     29056
     29054     29052     29055     29057     29054     29052     29055     29058
     29055     29058     29061     29062     29055     29058     29061     29063
     29055     29058     29061     29064     29056     29055     29058     29059
     29056     29055     29058     29060     29056     29055     29058     29061
     29057     29055     29058     29059     29057     29055     29058     29060
     29057     29055     29058     29061     29058     29061     29064     29065
     29058     29061     29064     29066     29058     29061     29064     29067
     29059     29058     29061     29062     29059     29058     29061     29063
     29059     29058     29061     29064     29060     29058     29061     29062
     29060     29058     29061     29063     29060     29058     29061     29064
     29061     29064     29067     29068     29061     29064     29067     29069
     29061     29064     29067     29070     29062     29061     29064     29065
     29062     29061     29064     29066     29062     29061     29064     29067
     29063     29061     29064     29065     29063     29061     29064     29066
     29063     29061     29064     29067     29064     29067     29070     29071
     29064     29067     29070     29072     29064     29067     29070     29073
     29065     29064     29067     29068     29065     29064     29067     29069
     29065     29064     29067     29070     29066     29064     29067     29068
     29066     29064     29067     29069     29066     29064     29067     29070
     29067     29070     29073     29074     29067     29070     29073     29075
     29067     29070     29073     29076     29068     29067     29070     29071
     29068     29067     29070     29072     29068     29067     29070     29073
     29069     29067     29070     29071     29069     29067     29070     29072
     29069     29067     29070     29073     29071     29070     29073     29074
     29071     29070     29073     29075     29071     29070     29073     29076
     29072     29070     29073     29074     29072     29070     29073     29075
     29072     29070     29073     29076     29077     29080     29083     29084
     29077     29080     29083     29085     29077     29080     29083     29086
     29078     29077     29080     29081     29078     29077     29080     29082
     29078     29077     29080     29083     29079     29077     29080     29081
     29079     29077     29080     29082     29079     29077     29080     29083
     29080     29083     29086     29087     29080     29083     29086     29088
     29080     29083     29086     29089     29081     29080     29083     29084
     29081     29080     29083     29085     29081     29080     29083     29086
     29082     29080     29083     29084     29082     29080     29083     29085
     29082     29080     29083     29086     29083     29086     29089     29090
     29083     29086     29089     29091     29083     29086     29089     29092
     29084     29083     29086     29087     29084     29083     29086     29088
     29084     29083     29086     29089     29085     29083     29086     29087
     29085     29083     29086     29088     29085     29083     29086     29089
     29086     29089     29092     29093     29086     29089     29092     29094
     29086     29089     29092     29095     29087     29086     29089     29090
     29087     29086     29089     29091     29087     29086     29089     29092
     29088     29086     29089     29090     29088     29086     29089     29091
     29088     29086     29089     29092     29089     29092     29095     29096
     29089     29092     29095     29097     29089     29092     29095     29098
     29090     29089     29092     29093     29090     29089     29092     29094
     29090     29089     29092     29095     29091     29089     29092     29093
     29091     29089     29092     29094     29091     29089     29092     29095
     29092     29095     29098     29099     29092     29095     29098     29100
     29092     29095     29098     29101     29093     29092     29095     29096
     29093     29092     29095     29097     29093     29092     29095     29098
     29094     29092     29095     29096     29094     29092     29095     29097
     29094     29092     29095     29098     29095     29098     29101     29102
     29095     29098     29101     29103     29095     29098     29101     29104
     29096     29095     29098     29099     29096     29095     29098     29100
     29096     29095     29098     29101     29097     29095     29098     29099
     29097     29095     29098     29100     29097     29095     29098     29101
     29098     29101     29104     29105     29098     29101     29104     29106
     29098     29101     29104     29107     29099     29098     29101     29102
     29099     29098     29101     29103     29099     29098     29101     29104
     29100     29098     29101     29102     29100     29098     29101     29103
     29100     29098     29101     29104     29101     29104     29107     29108
     29101     29104     29107     29109     29101     29104     29107     29110
     29102     29101     29104     29105     29102     29101     29104     29106
     29102     29101     29104     29107     29103     29101     29104     29105
     29103     29101     29104     29106     29103     29101     29104     29107
     29104     29107     29110     29111     29104     29107     29110     29112
     29104     29107     29110     29113     29105     29104     29107     29108
     29105     29104     29107     29109     29105     29104     29107     29110
     29106     29104     29107     29108     29106     29104     29107     29109
     29106     29104     29107     29110     29107     29110     29113     29114
     29107     29110     29113     29115     29107     29110     29113     29116
     29108     29107     29110     29111     29108     29107     29110     29112
     29108     29107     29110     29113     29109     29107     29110     29111
     29109     29107     29110     29112     29109     29107     29110     29113
     29110     29113     29116     29117     29110     29113     29116     29118
     29110     29113     29116     29119     29111     29110     29113     29114
     29111     29110     29113     29115     29111     29110     29113     29116
     29112     29110     29113     29114     29112     29110     29113     29115
     29112     29110     29113     29116     29114     29113     29116     29117
     29114     29113     29116     29118     29114     29113     29116     29119
     29115     29113     29116     29117     29115     29113     29116     29118
     29115     29113     29116     29119     29120     29124     29127     29128
     29120     29124     29127     29129     29120     29124     29127     29134
     29121     29120     29124     29125     29121     29120     29124     29126
     29121     29120     29124     29127     29122     29120     29124     29125
     29122     29120     29124     29126     29122     29120     29124     29127
     29123     29120     29124     29125     29123     29120     29124     29126
     29123     29120     29124     29127     29124     29127     29134     29130
     29125     29124     29127     29128     29125     29124     29127     29129
     29125     29124     29127     29134     29126     29124     29127     29128
     29126     29124     29127     29129     29126     29124     29127     29134
     29127     29134     29130     29131     29127     29134     29130     29132
     29127     29134     29130     29133     29128     29127     29134     29130
     29129     29127     29134     29130     29130     29133     29135     29136
     29130     29133     29135     29137     29130     29133     29135     29138
     29131     29130     29133     29135     29132     29130     29133     29135
     29133     29135     29138     29139     29133     29135     29138     29140
     29133     29135     29138     29146     29134     29130     29133     29135
     29135     29138     29140     29141     29135     29138     29146     29147
     29135     29138     29146     29148     29135     29138     29146     29149
     29136     29135     29138     29139     29136     29135     29138     29140
     29136     29135     29138     29146     29137     29135     29138     29139
     29137     29135     29138     29140     29137     29135     29138     29146
     29138     29140     29141     29142     29138     29140     29141     29143
     29138     29146     29149     29150     29139     29138     29140     29141
     29139     29138     29146     29147     29139     29138     29146     29148
     29139     29138     29146     29149     29140     29138     29146     29147
     29140     29138     29146     29148     29140     29138     29146     29149
     29140     29141     29143     29144     29140     29141     29143     29145
     29140     29141     29143     29155     29141     29140     29138     29146
     29141     29143     29155     29156     29141     29143     29155     29157
     29141     29143     29155     29158     29142     29141     29143     29144
     29142     29141     29143     29145     29142     29141     29143     29155
     29143     29155     29158     29159     29143     29155     29158     29160
     29143     29155     29158     29161     29144     29143     29155     29156
     29144     29143     29155     29157     29144     29143     29155     29158
     29145     29143     29155     29156     29145     29143     29155     29157
     29145     29143     29155     29158     29146     29149     29150     29151
     29146     29149     29150     29152     29147     29146     29149     29150
     29148     29146     29149     29150     29149     29150     29152     29153
     29149     29150     29152     29154     29149     29150     29152     29202
     29150     29152     29202     29203     29150     29152     29202     29204
     29150     29152     29202     29205     29151     29150     29152     29153
     29151     29150     29152     29154     29151     29150     29152     29202
     29152     29202     29205     29206     29152     29202     29205     29207
     29152     29202     29205     29208     29153     29152     29202     29203
     29153     29152     29202     29204     29153     29152     29202     29205
     29154     29152     29202     29203     29154     29152     29202     29204
     29154     29152     29202     29205     29155     29158     29161     29162
     29155     29158     29161     29163     29155     29158     29161     29164
     29156     29155     29158     29159     29156     29155     29158     29160
     29156     29155     29158     29161     29157     29155     29158     29159
     29157     29155     29158     29160     29157     29155     29158     29161
     29158     29161     29164     29165     29158     29161     29164     29166
     29158     29161     29164     29167     29159     29158     29161     29162
     29159     29158     29161     29163     29159     29158     29161     29164
     29160     29158     29161     29162     29160     29158     29161     29163
     29160     29158     29161     29164     29161     29164     29167     29168
     29161     29164     29167     29169     29161     29164     29167     29170
     29162     29161     29164     29165     29162     29161     29164     29166
     29162     29161     29164     29167     29163     29161     29164     29165
     29163     29161     29164     29166     29163     29161     29164     29167
     29164     29167     29170     29171     29164     29167     29170     29172
     29164     29167     29170     29173     29165     29164     29167     29168
     29165     29164     29167     29169     29165     29164     29167     29170
     29166     29164     29167     29168     29166     29164     29167     29169
     29166     29164     29167     29170     29167     29170     29173     29174
     29167     29170     29173     29175     29168     29167     29170     29171
     29168     29167     29170     29172     29168     29167     29170     29173
     29169     29167     29170     29171     29169     29167     29170     29172
     29169     29167     29170     29173     29170     29173     29175     29176
     29170     29173     29175     29177     29171     29170     29173     29174
     29171     29170     29173     29175     29172     29170     29173     29174
     29172     29170     29173     29175     29173     29175     29177     29178
     29173     29175     29177     29179     29173     29175     29177     29180
     29174     29173     29175     29176     29174     29173     29175     29177
     29175     29177     29180     29181     29175     29177     29180     29182
     29175     29177     29180     29183     29176     29175     29177     29178
     29176     29175     29177     29179     29176     29175     29177     29180
     29177     29180     29183     29184     29177     29180     29183     29185
     29177     29180     29183     29186     29178     29177     29180     29181
     29178     29177     29180     29182     29178     29177     29180     29183
     29179     29177     29180     29181     29179     29177     29180     29182
     29179     29177     29180     29183     29180     29183     29186     29187
     29180     29183     29186     29188     29180     29183     29186     29189
     29181     29180     29183     29184     29181     29180     29183     29185
     29181     29180     29183     29186     29182     29180     29183     29184
     29182     29180     29183     29185     29182     29180     29183     29186
     29183     29186     29189     29190     29183     29186     29189     29191
     29183     29186     29189     29192     29184     29183     29186     29187
     29184     29183     29186     29188     29184     29183     29186     29189
     29185     29183     29186     29187     29185     29183     29186     29188
     29185     29183     29186     29189     29186     29189     29192     29193
     29186     29189     29192     29194     29186     29189     29192     29195
     29187     29186     29189     29190     29187     29186     29189     29191
     29187     29186     29189     29192     29188     29186     29189     29190
     29188     29186     29189     29191     29188     29186     29189     29192
     29189     29192     29195     29196     29189     29192     29195     29197
     29189     29192     29195     29198     29190     29189     29192     29193
     29190     29189     29192     29194     29190     29189     29192     29195
     29191     29189     29192     29193     29191     29189     29192     29194
     29191     29189     29192     29195     29192     29195     29198     29199
     29192     29195     29198     29200     29192     29195     29198     29201
     29193     29192     29195     29196     29193     29192     29195     29197
     29193     29192     29195     29198     29194     29192     29195     29196
     29194     29192     29195     29197     29194     29192     29195     29198
     29196     29195     29198     29199     29196     29195     29198     29200
     29196     29195     29198     29201     29197     29195     29198     29199
     29197     29195     29198     29200     29197     29195     29198     29201
     29202     29205     29208     29209     29202     29205     29208     29210
     29202     29205     29208     29211     29203     29202     29205     29206
     29203     29202     29205     29207     29203     29202     29205     29208
     29204     29202     29205     29206     29204     29202     29205     29207
     29204     29202     29205     29208     29205     29208     29211     29212
     29205     29208     29211     29213     29205     29208     29211     29214
     29206     29205     29208     29209     29206     29205     29208     29210
     29206     29205     29208     29211     29207     29205     29208     29209
     29207     29205     29208     29210     29207     29205     29208     29211
     29208     29211     29214     29215     29208     29211     29214     29216
     29208     29211     29214     29217     29209     29208     29211     29212
     29209     29208     29211     29213     29209     29208     29211     29214
     29210     29208     29211     29212     29210     29208     29211     29213
     29210     29208     29211     29214     29211     29214     29217     29218
     29211     29214     29217     29219     29211     29214     29217     29220
     29212     29211     29214     29215     29212     29211     29214     29216
     29212     29211     29214     29217     29213     29211     29214     29215
     29213     29211     29214     29216     29213     29211     29214     29217
     29214     29217     29220     29221     29214     29217     29220     29222
     29214     29217     29220     29223     29215     29214     29217     29218
     29215     29214     29217     29219     29215     29214     29217     29220
     29216     29214     29217     29218     29216     29214     29217     29219
     29216     29214     29217     29220     29217     29220     29223     29224
     29217     29220     29223     29225     29217     29220     29223     29226
     29218     29217     29220     29221     29218     29217     29220     29222
     29218     29217     29220     29223     29219     29217     29220     29221
     29219     29217     29220     29222     29219     29217     29220     29223
     29220     29223     29226     29227     29220     29223     29226     29228
     29220     29223     29226     29229     29221     29220     29223     29224
     29221     29220     29223     29225     29221     29220     29223     29226
     29222     29220     29223     29224     29222     29220     29223     29225
     29222     29220     29223     29226     29223     29226     29229     29230
     29223     29226     29229     29231     29223     29226     29229     29232
     29224     29223     29226     29227     29224     29223     29226     29228
     29224     29223     29226     29229     29225     29223     29226     29227
     29225     29223     29226     29228     29225     29223     29226     29229
     29226     29229     29232     29233     29226     29229     29232     29234
     29226     29229     29232     29235     29227     29226     29229     29230
     29227     29226     29229     29231     29227     29226     29229     29232
     29228     29226     29229     29230     29228     29226     29229     29231
     29228     29226     29229     29232     29229     29232     29235     29236
     29229     29232     29235     29237     29229     29232     29235     29238
     29230     29229     29232     29233     29230     29229     29232     29234
     29230     29229     29232     29235     29231     29229     29232     29233
     29231     29229     29232     29234     29231     29229     29232     29235
     29232     29235     29238     29239     29232     29235     29238     29240
     29232     29235     29238     29241     29233     29232     29235     29236
     29233     29232     29235     29237     29233     29232     29235     29238
     29234     29232     29235     29236     29234     29232     29235     29237
     29234     29232     29235     29238     29235     29238     29241     29242
     29235     29238     29241     29243     29235     29238     29241     29244
     29236     29235     29238     29239     29236     29235     29238     29240
     29236     29235     29238     29241     29237     29235     29238     29239
     29237     29235     29238     29240     29237     29235     29238     29241
     29239     29238     29241     29242     29239     29238     29241     29243
     29239     29238     29241     29244     29240     29238     29241     29242
     29240     29238     29241     29243     29240     29238     29241     29244
     29245     29246     29261     29262     29245     29246     29261     29263
     29245     29246     29261     29267     29246     29245     29249     29250
     29246     29245     29249     29251     29246     29245     29249     29252
     29246     29245     29253     29254     29246     29245     29253     29255
     29246     29245     29253     29256     29246     29245     29257     29258
     29246     29245     29257     29259     29246     29245     29257     29260
     29246     29261     29267     29264     29247     29246     29245     29249
     29247     29246     29245     29253     29247     29246     29245     29257
     29247     29246     29261     29262     29247     29246     29261     29263
     29247     29246     29261     29267     29248     29246     29245     29249
     29248     29246     29245     29253     29248     29246     29245     29257
     29248     29246     29261     29262     29248     29246     29261     29263
     29248     29246     29261     29267     29249     29245     29246     29261
     29249     29245     29253     29254     29249     29245     29253     29255
     29249     29245     29253     29256     29249     29245     29257     29258
     29249     29245     29257     29259     29249     29245     29257     29260
     29250     29249     29245     29253     29250     29249     29245     29257
     29251     29249     29245     29253     29251     29249     29245     29257
     29252     29249     29245     29253     29252     29249     29245     29257
     29253     29245     29246     29261     29253     29245     29257     29258
     29253     29245     29257     29259     29253     29245     29257     29260
     29254     29253     29245     29257     29255     29253     29245     29257
     29256     29253     29245     29257     29257     29245     29246     29261
     29261     29267     29264     29265     29261     29267     29264     29266
     29261     29267     29264     29268     29262     29261     29267     29264
     29263     29261     29267     29264     29264     29268     29269     29270
     29264     29268     29269     29271     29264     29268     29269     29272
     29265     29264     29268     29269     29266     29264     29268     29269
     29267     29264     29268     29269     29268     29269     29272     29273
     29268     29269     29272     29274     29268     29269     29272     29280
     29269     29272     29274     29275     29269     29272     29280     29281
     29269     29272     29280     29282     29269     29272     29280     29283
     29270     29269     29272     29273     29270     29269     29272     29274
     29270     29269     29272     29280     29271     29269     29272     29273
     29271     29269     29272     29274     29271     29269     29272     29280
     29272     29274     29275     29276     29272     29274     29275     29277
     29272     29280     29283     29284     29273     29272     29274     29275
     29273     29272     29280     29281     29273     29272     29280     29282
     29273     29272     29280     29283     29274     29272     29280     29281
     29274     29272     29280     29282     29274     29272     29280     29283
     29274     29275     29277     29278     29274     29275     29277     29279
     29274     29275     29277     29289     29275     29274     29272     29280
     29275     29277     29289     29290     29275     29277     29289     29291
     29275     29277     29289     29292     29276     29275     29277     29278
     29276     29275     29277     29279     29276     29275     29277     29289
     29277     29289     29292     29293     29277     29289     29292     29294
     29277     29289     29292     29295     29278     29277     29289     29290
     29278     29277     29289     29291     29278     29277     29289     29292
     29279     29277     29289     29290     29279     29277     29289     29291
     29279     29277     29289     29292     29280     29283     29284     29285
     29280     29283     29284     29286     29281     29280     29283     29284
     29282     29280     29283     29284     29283     29284     29286     29287
     29283     29284     29286     29288     29283     29284     29286     29336
     29284     29286     29336     29337     29284     29286     29336     29338
     29284     29286     29336     29339     29285     29284     29286     29287
     29285     29284     29286     29288     29285     29284     29286     29336
     29286     29336     29339     29340     29286     29336     29339     29341
     29286     29336     29339     29342     29287     29286     29336     29337
     29287     29286     29336     29338     29287     29286     29336     29339
     29288     29286     29336     29337     29288     29286     29336     29338
     29288     29286     29336     29339     29289     29292     29295     29296
     29289     29292     29295     29297     29289     29292     29295     29298
     29290     29289     29292     29293     29290     29289     29292     29294
     29290     29289     29292     29295     29291     29289     29292     29293
     29291     29289     29292     29294     29291     29289     29292     29295
     29292     29295     29298     29299     29292     29295     29298     29300
     29292     29295     29298     29301     29293     29292     29295     29296
     29293     29292     29295     29297     29293     29292     29295     29298
     29294     29292     29295     29296     29294     29292     29295     29297
     29294     29292     29295     29298     29295     29298     29301     29302
     29295     29298     29301     29303     29295     29298     29301     29304
     29296     29295     29298     29299     29296     29295     29298     29300
     29296     29295     29298     29301     29297     29295     29298     29299
     29297     29295     29298     29300     29297     29295     29298     29301
     29298     29301     29304     29305     29298     29301     29304     29306
     29298     29301     29304     29307     29299     29298     29301     29302
     29299     29298     29301     29303     29299     29298     29301     29304
     29300     29298     29301     29302     29300     29298     29301     29303
     29300     29298     29301     29304     29301     29304     29307     29308
     29301     29304     29307     29309     29302     29301     29304     29305
     29302     29301     29304     29306     29302     29301     29304     29307
     29303     29301     29304     29305     29303     29301     29304     29306
     29303     29301     29304     29307     29304     29307     29309     29310
     29304     29307     29309     29311     29305     29304     29307     29308
     29305     29304     29307     29309     29306     29304     29307     29308
     29306     29304     29307     29309     29307     29309     29311     29312
     29307     29309     29311     29313     29307     29309     29311     29314
     29308     29307     29309     29310     29308     29307     29309     29311
     29309     29311     29314     29315     29309     29311     29314     29316
     29309     29311     29314     29317     29310     29309     29311     29312
     29310     29309     29311     29313     29310     29309     29311     29314
     29311     29314     29317     29318     29311     29314     29317     29319
     29311     29314     29317     29320     29312     29311     29314     29315
     29312     29311     29314     29316     29312     29311     29314     29317
     29313     29311     29314     29315     29313     29311     29314     29316
     29313     29311     29314     29317     29314     29317     29320     29321
     29314     29317     29320     29322     29314     29317     29320     29323
     29315     29314     29317     29318     29315     29314     29317     29319
     29315     29314     29317     29320     29316     29314     29317     29318
     29316     29314     29317     29319     29316     29314     29317     29320
     29317     29320     29323     29324     29317     29320     29323     29325
     29317     29320     29323     29326     29318     29317     29320     29321
     29318     29317     29320     29322     29318     29317     29320     29323
     29319     29317     29320     29321     29319     29317     29320     29322
     29319     29317     29320     29323     29320     29323     29326     29327
     29320     29323     29326     29328     29320     29323     29326     29329
     29321     29320     29323     29324     29321     29320     29323     29325
     29321     29320     29323     29326     29322     29320     29323     29324
     29322     29320     29323     29325     29322     29320     29323     29326
     29323     29326     29329     29330     29323     29326     29329     29331
     29323     29326     29329     29332     29324     29323     29326     29327
     29324     29323     29326     29328     29324     29323     29326     29329
     29325     29323     29326     29327     29325     29323     29326     29328
     29325     29323     29326     29329     29326     29329     29332     29333
     29326     29329     29332     29334     29326     29329     29332     29335
     29327     29326     29329     29330     29327     29326     29329     29331
     29327     29326     29329     29332     29328     29326     29329     29330
     29328     29326     29329     29331     29328     29326     29329     29332
     29330     29329     29332     29333     29330     29329     29332     29334
     29330     29329     29332     29335     29331     29329     29332     29333
     29331     29329     29332     29334     29331     29329     29332     29335
     29336     29339     29342     29343     29336     29339     29342     29344
     29336     29339     29342     29345     29337     29336     29339     29340
     29337     29336     29339     29341     29337     29336     29339     29342
     29338     29336     29339     29340     29338     29336     29339     29341
     29338     29336     29339     29342     29339     29342     29345     29346
     29339     29342     29345     29347     29339     29342     29345     29348
     29340     29339     29342     29343     29340     29339     29342     29344
     29340     29339     29342     29345     29341     29339     29342     29343
     29341     29339     29342     29344     29341     29339     29342     29345
     29342     29345     29348     29349     29342     29345     29348     29350
     29342     29345     29348     29351     29343     29342     29345     29346
     29343     29342     29345     29347     29343     29342     29345     29348
     29344     29342     29345     29346     29344     29342     29345     29347
     29344     29342     29345     29348     29345     29348     29351     29352
     29345     29348     29351     29353     29345     29348     29351     29354
     29346     29345     29348     29349     29346     29345     29348     29350
     29346     29345     29348     29351     29347     29345     29348     29349
     29347     29345     29348     29350     29347     29345     29348     29351
     29348     29351     29354     29355     29348     29351     29354     29356
     29348     29351     29354     29357     29349     29348     29351     29352
     29349     29348     29351     29353     29349     29348     29351     29354
     29350     29348     29351     29352     29350     29348     29351     29353
     29350     29348     29351     29354     29351     29354     29357     29358
     29351     29354     29357     29359     29351     29354     29357     29360
     29352     29351     29354     29355     29352     29351     29354     29356
     29352     29351     29354     29357     29353     29351     29354     29355
     29353     29351     29354     29356     29353     29351     29354     29357
     29354     29357     29360     29361     29354     29357     29360     29362
     29354     29357     29360     29363     29355     29354     29357     29358
     29355     29354     29357     29359     29355     29354     29357     29360
     29356     29354     29357     29358     29356     29354     29357     29359
     29356     29354     29357     29360     29357     29360     29363     29364
     29357     29360     29363     29365     29357     29360     29363     29366
     29358     29357     29360     29361     29358     29357     29360     29362
     29358     29357     29360     29363     29359     29357     29360     29361
     29359     29357     29360     29362     29359     29357     29360     29363
     29360     29363     29366     29367     29360     29363     29366     29368
     29360     29363     29366     29369     29361     29360     29363     29364
     29361     29360     29363     29365     29361     29360     29363     29366
     29362     29360     29363     29364     29362     29360     29363     29365
     29362     29360     29363     29366     29363     29366     29369     29370
     29363     29366     29369     29371     29363     29366     29369     29372
     29364     29363     29366     29367     29364     29363     29366     29368
     29364     29363     29366     29369     29365     29363     29366     29367
     29365     29363     29366     29368     29365     29363     29366     29369
     29366     29369     29372     29373     29366     29369     29372     29374
     29366     29369     29372     29375     29367     29366     29369     29370
     29367     29366     29369     29371     29367     29366     29369     29372
     29368     29366     29369     29370     29368     29366     29369     29371
     29368     29366     29369     29372     29369     29372     29375     29376
     29369     29372     29375     29377     29369     29372     29375     29378
     29370     29369     29372     29373     29370     29369     29372     29374
     29370     29369     29372     29375     29371     29369     29372     29373
     29371     29369     29372     29374     29371     29369     29372     29375
     29373     29372     29375     29376     29373     29372     29375     29377
     29373     29372     29375     29378     29374     29372     29375     29376
     29374     29372     29375     29377     29374     29372     29375     29378
     29379     29380     29395     29396     29379     29380     29395     29397
     29379     29380     29395     29401     29380     29379     29383     29384
     29380     29379     29383     29385     29380     29379     29383     29386
     29380     29379     29387     29388     29380     29379     29387     29389
     29380     29379     29387     29390     29380     29379     29391     29392
     29380     29379     29391     29393     29380     29379     29391     29394
     29380     29395     29401     29398     29381     29380     29379     29383
     29381     29380     29379     29387     29381     29380     29379     29391
     29381     29380     29395     29396     29381     29380     29395     29397
     29381     29380     29395     29401     29382     29380     29379     29383
     29382     29380     29379     29387     29382     29380     29379     29391
     29382     29380     29395     29396     29382     29380     29395     29397
     29382     29380     29395     29401     29383     29379     29380     29395
     29383     29379     29387     29388     29383     29379     29387     29389
     29383     29379     29387     29390     29383     29379     29391     29392
     29383     29379     29391     29393     29383     29379     29391     29394
     29384     29383     29379     29387     29384     29383     29379     29391
     29385     29383     29379     29387     29385     29383     29379     29391
     29386     29383     29379     29387     29386     29383     29379     29391
     29387     29379     29380     29395     29387     29379     29391     29392
     29387     29379     29391     29393     29387     29379     29391     29394
     29388     29387     29379     29391     29389     29387     29379     29391
     29390     29387     29379     29391     29391     29379     29380     29395
     29395     29401     29398     29399     29395     29401     29398     29400
     29395     29401     29398     29402     29396     29395     29401     29398
     29397     29395     29401     29398     29398     29402     29403     29404
     29398     29402     29403     29405     29398     29402     29403     29406
     29399     29398     29402     29403     29400     29398     29402     29403
     29401     29398     29402     29403     29402     29403     29406     29407
     29402     29403     29406     29408     29402     29403     29406     29414
     29403     29406     29408     29409     29403     29406     29414     29415
     29403     29406     29414     29416     29403     29406     29414     29417
     29404     29403     29406     29407     29404     29403     29406     29408
     29404     29403     29406     29414     29405     29403     29406     29407
     29405     29403     29406     29408     29405     29403     29406     29414
     29406     29408     29409     29410     29406     29408     29409     29411
     29406     29414     29417     29418     29407     29406     29408     29409
     29407     29406     29414     29415     29407     29406     29414     29416
     29407     29406     29414     29417     29408     29406     29414     29415
     29408     29406     29414     29416     29408     29406     29414     29417
     29408     29409     29411     29412     29408     29409     29411     29413
     29408     29409     29411     29423     29409     29408     29406     29414
     29409     29411     29423     29424     29409     29411     29423     29425
     29409     29411     29423     29426     29410     29409     29411     29412
     29410     29409     29411     29413     29410     29409     29411     29423
     29411     29423     29426     29427     29411     29423     29426     29428
     29411     29423     29426     29429     29412     29411     29423     29424
     29412     29411     29423     29425     29412     29411     29423     29426
     29413     29411     29423     29424     29413     29411     29423     29425
     29413     29411     29423     29426     29414     29417     29418     29419
     29414     29417     29418     29420     29415     29414     29417     29418
     29416     29414     29417     29418     29417     29418     29420     29421
     29417     29418     29420     29422     29417     29418     29420     29470
     29418     29420     29470     29471     29418     29420     29470     29472
     29418     29420     29470     29473     29419     29418     29420     29421
     29419     29418     29420     29422     29419     29418     29420     29470
     29420     29470     29473     29474     29420     29470     29473     29475
     29420     29470     29473     29476     29421     29420     29470     29471
     29421     29420     29470     29472     29421     29420     29470     29473
     29422     29420     29470     29471     29422     29420     29470     29472
     29422     29420     29470     29473     29423     29426     29429     29430
     29423     29426     29429     29431     29423     29426     29429     29432
     29424     29423     29426     29427     29424     29423     29426     29428
     29424     29423     29426     29429     29425     29423     29426     29427
     29425     29423     29426     29428     29425     29423     29426     29429
     29426     29429     29432     29433     29426     29429     29432     29434
     29426     29429     29432     29435     29427     29426     29429     29430
     29427     29426     29429     29431     29427     29426     29429     29432
     29428     29426     29429     29430     29428     29426     29429     29431
     29428     29426     29429     29432     29429     29432     29435     29436
     29429     29432     29435     29437     29429     29432     29435     29438
     29430     29429     29432     29433     29430     29429     29432     29434
     29430     29429     29432     29435     29431     29429     29432     29433
     29431     29429     29432     29434     29431     29429     29432     29435
     29432     29435     29438     29439     29432     29435     29438     29440
     29432     29435     29438     29441     29433     29432     29435     29436
     29433     29432     29435     29437     29433     29432     29435     29438
     29434     29432     29435     29436     29434     29432     29435     29437
     29434     29432     29435     29438     29435     29438     29441     29442
     29435     29438     29441     29443     29436     29435     29438     29439
     29436     29435     29438     29440     29436     29435     29438     29441
     29437     29435     29438     29439     29437     29435     29438     29440
     29437     29435     29438     29441     29438     29441     29443     29444
     29438     29441     29443     29445     29439     29438     29441     29442
     29439     29438     29441     29443     29440     29438     29441     29442
     29440     29438     29441     29443     29441     29443     29445     29446
     29441     29443     29445     29447     29441     29443     29445     29448
     29442     29441     29443     29444     29442     29441     29443     29445
     29443     29445     29448     29449     29443     29445     29448     29450
     29443     29445     29448     29451     29444     29443     29445     29446
     29444     29443     29445     29447     29444     29443     29445     29448
     29445     29448     29451     29452     29445     29448     29451     29453
     29445     29448     29451     29454     29446     29445     29448     29449
     29446     29445     29448     29450     29446     29445     29448     29451
     29447     29445     29448     29449     29447     29445     29448     29450
     29447     29445     29448     29451     29448     29451     29454     29455
     29448     29451     29454     29456     29448     29451     29454     29457
     29449     29448     29451     29452     29449     29448     29451     29453
     29449     29448     29451     29454     29450     29448     29451     29452
     29450     29448     29451     29453     29450     29448     29451     29454
     29451     29454     29457     29458     29451     29454     29457     29459
     29451     29454     29457     29460     29452     29451     29454     29455
     29452     29451     29454     29456     29452     29451     29454     29457
     29453     29451     29454     29455     29453     29451     29454     29456
     29453     29451     29454     29457     29454     29457     29460     29461
     29454     29457     29460     29462     29454     29457     29460     29463
     29455     29454     29457     29458     29455     29454     29457     29459
     29455     29454     29457     29460     29456     29454     29457     29458
     29456     29454     29457     29459     29456     29454     29457     29460
     29457     29460     29463     29464     29457     29460     29463     29465
     29457     29460     29463     29466     29458     29457     29460     29461
     29458     29457     29460     29462     29458     29457     29460     29463
     29459     29457     29460     29461     29459     29457     29460     29462
     29459     29457     29460     29463     29460     29463     29466     29467
     29460     29463     29466     29468     29460     29463     29466     29469
     29461     29460     29463     29464     29461     29460     29463     29465
     29461     29460     29463     29466     29462     29460     29463     29464
     29462     29460     29463     29465     29462     29460     29463     29466
     29464     29463     29466     29467     29464     29463     29466     29468
     29464     29463     29466     29469     29465     29463     29466     29467
     29465     29463     29466     29468     29465     29463     29466     29469
     29470     29473     29476     29477     29470     29473     29476     29478
     29470     29473     29476     29479     29471     29470     29473     29474
     29471     29470     29473     29475     29471     29470     29473     29476
     29472     29470     29473     29474     29472     29470     29473     29475
     29472     29470     29473     29476     29473     29476     29479     29480
     29473     29476     29479     29481     29473     29476     29479     29482
     29474     29473     29476     29477     29474     29473     29476     29478
     29474     29473     29476     29479     29475     29473     29476     29477
     29475     29473     29476     29478     29475     29473     29476     29479
     29476     29479     29482     29483     29476     29479     29482     29484
     29476     29479     29482     29485     29477     29476     29479     29480
     29477     29476     29479     29481     29477     29476     29479     29482
     29478     29476     29479     29480     29478     29476     29479     29481
     29478     29476     29479     29482     29479     29482     29485     29486
     29479     29482     29485     29487     29479     29482     29485     29488
     29480     29479     29482     29483     29480     29479     29482     29484
     29480     29479     29482     29485     29481     29479     29482     29483
     29481     29479     29482     29484     29481     29479     29482     29485
     29482     29485     29488     29489     29482     29485     29488     29490
     29482     29485     29488     29491     29483     29482     29485     29486
     29483     29482     29485     29487     29483     29482     29485     29488
     29484     29482     29485     29486     29484     29482     29485     29487
     29484     29482     29485     29488     29485     29488     29491     29492
     29485     29488     29491     29493     29485     29488     29491     29494
     29486     29485     29488     29489     29486     29485     29488     29490
     29486     29485     29488     29491     29487     29485     29488     29489
     29487     29485     29488     29490     29487     29485     29488     29491
     29488     29491     29494     29495     29488     29491     29494     29496
     29488     29491     29494     29497     29489     29488     29491     29492
     29489     29488     29491     29493     29489     29488     29491     29494
     29490     29488     29491     29492     29490     29488     29491     29493
     29490     29488     29491     29494     29491     29494     29497     29498
     29491     29494     29497     29499     29491     29494     29497     29500
     29492     29491     29494     29495     29492     29491     29494     29496
     29492     29491     29494     29497     29493     29491     29494     29495
     29493     29491     29494     29496     29493     29491     29494     29497
     29494     29497     29500     29501     29494     29497     29500     29502
     29494     29497     29500     29503     29495     29494     29497     29498
     29495     29494     29497     29499     29495     29494     29497     29500
     29496     29494     29497     29498     29496     29494     29497     29499
     29496     29494     29497     29500     29497     29500     29503     29504
     29497     29500     29503     29505     29497     29500     29503     29506
     29498     29497     29500     29501     29498     29497     29500     29502
     29498     29497     29500     29503     29499     29497     29500     29501
     29499     29497     29500     29502     29499     29497     29500     29503
     29500     29503     29506     29507     29500     29503     29506     29508
     29500     29503     29506     29509     29501     29500     29503     29504
     29501     29500     29503     29505     29501     29500     29503     29506
     29502     29500     29503     29504     29502     29500     29503     29505
     29502     29500     29503     29506     29503     29506     29509     29510
     29503     29506     29509     29511     29503     29506     29509     29512
     29504     29503     29506     29507     29504     29503     29506     29508
     29504     29503     29506     29509     29505     29503     29506     29507
     29505     29503     29506     29508     29505     29503     29506     29509
     29507     29506     29509     29510     29507     29506     29509     29511
     29507     29506     29509     29512     29508     29506     29509     29510
     29508     29506     29509     29511     29508     29506     29509     29512
     29513     29514     29529     29530     29513     29514     29529     29531
     29513     29514     29529     29535     29514     29513     29517     29518
     29514     29513     29517     29519     29514     29513     29517     29520
     29514     29513     29521     29522     29514     29513     29521     29523
     29514     29513     29521     29524     29514     29513     29525     29526
     29514     29513     29525     29527     29514     29513     29525     29528
     29514     29529     29535     29532     29515     29514     29513     29517
     29515     29514     29513     29521     29515     29514     29513     29525
     29515     29514     29529     29530     29515     29514     29529     29531
     29515     29514     29529     29535     29516     29514     29513     29517
     29516     29514     29513     29521     29516     29514     29513     29525
     29516     29514     29529     29530     29516     29514     29529     29531
     29516     29514     29529     29535     29517     29513     29514     29529
     29517     29513     29521     29522     29517     29513     29521     29523
     29517     29513     29521     29524     29517     29513     29525     29526
     29517     29513     29525     29527     29517     29513     29525     29528
     29518     29517     29513     29521     29518     29517     29513     29525
     29519     29517     29513     29521     29519     29517     29513     29525
     29520     29517     29513     29521     29520     29517     29513     29525
     29521     29513     29514     29529     29521     29513     29525     29526
     29521     29513     29525     29527     29521     29513     29525     29528
     29522     29521     29513     29525     29523     29521     29513     29525
     29524     29521     29513     29525     29525     29513     29514     29529
     29529     29535     29532     29533     29529     29535     29532     29534
     29529     29535     29532     29536     29530     29529     29535     29532
     29531     29529     29535     29532     29532     29536     29537     29538
     29532     29536     29537     29539     29532     29536     29537     29540
     29533     29532     29536     29537     29534     29532     29536     29537
     29535     29532     29536     29537     29536     29537     29540     29541
     29536     29537     29540     29542     29536     29537     29540     29548
     29537     29540     29542     29543     29537     29540     29548     29549
     29537     29540     29548     29550     29537     29540     29548     29551
     29538     29537     29540     29541     29538     29537     29540     29542
     29538     29537     29540     29548     29539     29537     29540     29541
     29539     29537     29540     29542     29539     29537     29540     29548
     29540     29542     29543     29544     29540     29542     29543     29545
     29540     29548     29551     29552     29541     29540     29542     29543
     29541     29540     29548     29549     29541     29540     29548     29550
     29541     29540     29548     29551     29542     29540     29548     29549
     29542     29540     29548     29550     29542     29540     29548     29551
     29542     29543     29545     29546     29542     29543     29545     29547
     29542     29543     29545     29557     29543     29542     29540     29548
     29543     29545     29557     29558     29543     29545     29557     29559
     29543     29545     29557     29560     29544     29543     29545     29546
     29544     29543     29545     29547     29544     29543     29545     29557
     29545     29557     29560     29561     29545     29557     29560     29562
     29545     29557     29560     29563     29546     29545     29557     29558
     29546     29545     29557     29559     29546     29545     29557     29560
     29547     29545     29557     29558     29547     29545     29557     29559
     29547     29545     29557     29560     29548     29551     29552     29553
     29548     29551     29552     29554     29549     29548     29551     29552
     29550     29548     29551     29552     29551     29552     29554     29555
     29551     29552     29554     29556     29551     29552     29554     29604
     29552     29554     29604     29605     29552     29554     29604     29606
     29552     29554     29604     29607     29553     29552     29554     29555
     29553     29552     29554     29556     29553     29552     29554     29604
     29554     29604     29607     29608     29554     29604     29607     29609
     29554     29604     29607     29610     29555     29554     29604     29605
     29555     29554     29604     29606     29555     29554     29604     29607
     29556     29554     29604     29605     29556     29554     29604     29606
     29556     29554     29604     29607     29557     29560     29563     29564
     29557     29560     29563     29565     29557     29560     29563     29566
     29558     29557     29560     29561     29558     29557     29560     29562
     29558     29557     29560     29563     29559     29557     29560     29561
     29559     29557     29560     29562     29559     29557     29560     29563
     29560     29563     29566     29567     29560     29563     29566     29568
     29560     29563     29566     29569     29561     29560     29563     29564
     29561     29560     29563     29565     29561     29560     29563     29566
     29562     29560     29563     29564     29562     29560     29563     29565
     29562     29560     29563     29566     29563     29566     29569     29570
     29563     29566     29569     29571     29563     29566     29569     29572
     29564     29563     29566     29567     29564     29563     29566     29568
     29564     29563     29566     29569     29565     29563     29566     29567
     29565     29563     29566     29568     29565     29563     29566     29569
     29566     29569     29572     29573     29566     29569     29572     29574
     29566     29569     29572     29575     29567     29566     29569     29570
     29567     29566     29569     29571     29567     29566     29569     29572
     29568     29566     29569     29570     29568     29566     29569     29571
     29568     29566     29569     29572     29569     29572     29575     29576
     29569     29572     29575     29577     29570     29569     29572     29573
     29570     29569     29572     29574     29570     29569     29572     29575
     29571     29569     29572     29573     29571     29569     29572     29574
     29571     29569     29572     29575     29572     29575     29577     29578
     29572     29575     29577     29579     29573     29572     29575     29576
     29573     29572     29575     29577     29574     29572     29575     29576
     29574     29572     29575     29577     29575     29577     29579     29580
     29575     29577     29579     29581     29575     29577     29579     29582
     29576     29575     29577     29578     29576     29575     29577     29579
     29577     29579     29582     29583     29577     29579     29582     29584
     29577     29579     29582     29585     29578     29577     29579     29580
     29578     29577     29579     29581     29578     29577     29579     29582
     29579     29582     29585     29586     29579     29582     29585     29587
     29579     29582     29585     29588     29580     29579     29582     29583
     29580     29579     29582     29584     29580     29579     29582     29585
     29581     29579     29582     29583     29581     29579     29582     29584
     29581     29579     29582     29585     29582     29585     29588     29589
     29582     29585     29588     29590     29582     29585     29588     29591
     29583     29582     29585     29586     29583     29582     29585     29587
     29583     29582     29585     29588     29584     29582     29585     29586
     29584     29582     29585     29587     29584     29582     29585     29588
     29585     29588     29591     29592     29585     29588     29591     29593
     29585     29588     29591     29594     29586     29585     29588     29589
     29586     29585     29588     29590     29586     29585     29588     29591
     29587     29585     29588     29589     29587     29585     29588     29590
     29587     29585     29588     29591     29588     29591     29594     29595
     29588     29591     29594     29596     29588     29591     29594     29597
     29589     29588     29591     29592     29589     29588     29591     29593
     29589     29588     29591     29594     29590     29588     29591     29592
     29590     29588     29591     29593     29590     29588     29591     29594
     29591     29594     29597     29598     29591     29594     29597     29599
     29591     29594     29597     29600     29592     29591     29594     29595
     29592     29591     29594     29596     29592     29591     29594     29597
     29593     29591     29594     29595     29593     29591     29594     29596
     29593     29591     29594     29597     29594     29597     29600     29601
     29594     29597     29600     29602     29594     29597     29600     29603
     29595     29594     29597     29598     29595     29594     29597     29599
     29595     29594     29597     29600     29596     29594     29597     29598
     29596     29594     29597     29599     29596     29594     29597     29600
     29598     29597     29600     29601     29598     29597     29600     29602
     29598     29597     29600     29603     29599     29597     29600     29601
     29599     29597     29600     29602     29599     29597     29600     29603
     29604     29607     29610     29611     29604     29607     29610     29612
     29604     29607     29610     29613     29605     29604     29607     29608
     29605     29604     29607     29609     29605     29604     29607     29610
     29606     29604     29607     29608     29606     29604     29607     29609
     29606     29604     29607     29610     29607     29610     29613     29614
     29607     29610     29613     29615     29607     29610     29613     29616
     29608     29607     29610     29611     29608     29607     29610     29612
     29608     29607     29610     29613     29609     29607     29610     29611
     29609     29607     29610     29612     29609     29607     29610     29613
     29610     29613     29616     29617     29610     29613     29616     29618
     29610     29613     29616     29619     29611     29610     29613     29614
     29611     29610     29613     29615     29611     29610     29613     29616
     29612     29610     29613     29614     29612     29610     29613     29615
     29612     29610     29613     29616     29613     29616     29619     29620
     29613     29616     29619     29621     29613     29616     29619     29622
     29614     29613     29616     29617     29614     29613     29616     29618
     29614     29613     29616     29619     29615     29613     29616     29617
     29615     29613     29616     29618     29615     29613     29616     29619
     29616     29619     29622     29623     29616     29619     29622     29624
     29616     29619     29622     29625     29617     29616     29619     29620
     29617     29616     29619     29621     29617     29616     29619     29622
     29618     29616     29619     29620     29618     29616     29619     29621
     29618     29616     29619     29622     29619     29622     29625     29626
     29619     29622     29625     29627     29619     29622     29625     29628
     29620     29619     29622     29623     29620     29619     29622     29624
     29620     29619     29622     29625     29621     29619     29622     29623
     29621     29619     29622     29624     29621     29619     29622     29625
     29622     29625     29628     29629     29622     29625     29628     29630
     29622     29625     29628     29631     29623     29622     29625     29626
     29623     29622     29625     29627     29623     29622     29625     29628
     29624     29622     29625     29626     29624     29622     29625     29627
     29624     29622     29625     29628     29625     29628     29631     29632
     29625     29628     29631     29633     29625     29628     29631     29634
     29626     29625     29628     29629     29626     29625     29628     29630
     29626     29625     29628     29631     29627     29625     29628     29629
     29627     29625     29628     29630     29627     29625     29628     29631
     29628     29631     29634     29635     29628     29631     29634     29636
     29628     29631     29634     29637     29629     29628     29631     29632
     29629     29628     29631     29633     29629     29628     29631     29634
     29630     29628     29631     29632     29630     29628     29631     29633
     29630     29628     29631     29634     29631     29634     29637     29638
     29631     29634     29637     29639     29631     29634     29637     29640
     29632     29631     29634     29635     29632     29631     29634     29636
     29632     29631     29634     29637     29633     29631     29634     29635
     29633     29631     29634     29636     29633     29631     29634     29637
     29634     29637     29640     29641     29634     29637     29640     29642
     29634     29637     29640     29643     29635     29634     29637     29638
     29635     29634     29637     29639     29635     29634     29637     29640
     29636     29634     29637     29638     29636     29634     29637     29639
     29636     29634     29637     29640     29637     29640     29643     29644
     29637     29640     29643     29645     29637     29640     29643     29646
     29638     29637     29640     29641     29638     29637     29640     29642
     29638     29637     29640     29643     29639     29637     29640     29641
     29639     29637     29640     29642     29639     29637     29640     29643
     29641     29640     29643     29644     29641     29640     29643     29645
     29641     29640     29643     29646     29642     29640     29643     29644
     29642     29640     29643     29645     29642     29640     29643     29646
     29647     29648     29663     29664     29647     29648     29663     29665
     29647     29648     29663     29669     29648     29647     29651     29652
     29648     29647     29651     29653     29648     29647     29651     29654
     29648     29647     29655     29656     29648     29647     29655     29657
     29648     29647     29655     29658     29648     29647     29659     29660
     29648     29647     29659     29661     29648     29647     29659     29662
     29648     29663     29669     29666     29649     29648     29647     29651
     29649     29648     29647     29655     29649     29648     29647     29659
     29649     29648     29663     29664     29649     29648     29663     29665
     29649     29648     29663     29669     29650     29648     29647     29651
     29650     29648     29647     29655     29650     29648     29647     29659
     29650     29648     29663     29664     29650     29648     29663     29665
     29650     29648     29663     29669     29651     29647     29648     29663
     29651     29647     29655     29656     29651     29647     29655     29657
     29651     29647     29655     29658     29651     29647     29659     29660
     29651     29647     29659     29661     29651     29647     29659     29662
     29652     29651     29647     29655     29652     29651     29647     29659
     29653     29651     29647     29655     29653     29651     29647     29659
     29654     29651     29647     29655     29654     29651     29647     29659
     29655     29647     29648     29663     29655     29647     29659     29660
     29655     29647     29659     29661     29655     29647     29659     29662
     29656     29655     29647     29659     29657     29655     29647     29659
     29658     29655     29647     29659     29659     29647     29648     29663
     29663     29669     29666     29667     29663     29669     29666     29668
     29663     29669     29666     29670     29664     29663     29669     29666
     29665     29663     29669     29666     29666     29670     29671     29672
     29666     29670     29671     29673     29666     29670     29671     29674
     29667     29666     29670     29671     29668     29666     29670     29671
     29669     29666     29670     29671     29670     29671     29674     29675
     29670     29671     29674     29676     29670     29671     29674     29682
     29671     29674     29676     29677     29671     29674     29682     29683
     29671     29674     29682     29684     29671     29674     29682     29685
     29672     29671     29674     29675     29672     29671     29674     29676
     29672     29671     29674     29682     29673     29671     29674     29675
     29673     29671     29674     29676     29673     29671     29674     29682
     29674     29676     29677     29678     29674     29676     29677     29679
     29674     29682     29685     29686     29675     29674     29676     29677
     29675     29674     29682     29683     29675     29674     29682     29684
     29675     29674     29682     29685     29676     29674     29682     29683
     29676     29674     29682     29684     29676     29674     29682     29685
     29676     29677     29679     29680     29676     29677     29679     29681
     29676     29677     29679     29691     29677     29676     29674     29682
     29677     29679     29691     29692     29677     29679     29691     29693
     29677     29679     29691     29694     29678     29677     29679     29680
     29678     29677     29679     29681     29678     29677     29679     29691
     29679     29691     29694     29695     29679     29691     29694     29696
     29679     29691     29694     29697     29680     29679     29691     29692
     29680     29679     29691     29693     29680     29679     29691     29694
     29681     29679     29691     29692     29681     29679     29691     29693
     29681     29679     29691     29694     29682     29685     29686     29687
     29682     29685     29686     29688     29683     29682     29685     29686
     29684     29682     29685     29686     29685     29686     29688     29689
     29685     29686     29688     29690     29685     29686     29688     29738
     29686     29688     29738     29739     29686     29688     29738     29740
     29686     29688     29738     29741     29687     29686     29688     29689
     29687     29686     29688     29690     29687     29686     29688     29738
     29688     29738     29741     29742     29688     29738     29741     29743
     29688     29738     29741     29744     29689     29688     29738     29739
     29689     29688     29738     29740     29689     29688     29738     29741
     29690     29688     29738     29739     29690     29688     29738     29740
     29690     29688     29738     29741     29691     29694     29697     29698
     29691     29694     29697     29699     29691     29694     29697     29700
     29692     29691     29694     29695     29692     29691     29694     29696
     29692     29691     29694     29697     29693     29691     29694     29695
     29693     29691     29694     29696     29693     29691     29694     29697
     29694     29697     29700     29701     29694     29697     29700     29702
     29694     29697     29700     29703     29695     29694     29697     29698
     29695     29694     29697     29699     29695     29694     29697     29700
     29696     29694     29697     29698     29696     29694     29697     29699
     29696     29694     29697     29700     29697     29700     29703     29704
     29697     29700     29703     29705     29697     29700     29703     29706
     29698     29697     29700     29701     29698     29697     29700     29702
     29698     29697     29700     29703     29699     29697     29700     29701
     29699     29697     29700     29702     29699     29697     29700     29703
     29700     29703     29706     29707     29700     29703     29706     29708
     29700     29703     29706     29709     29701     29700     29703     29704
     29701     29700     29703     29705     29701     29700     29703     29706
     29702     29700     29703     29704     29702     29700     29703     29705
     29702     29700     29703     29706     29703     29706     29709     29710
     29703     29706     29709     29711     29704     29703     29706     29707
     29704     29703     29706     29708     29704     29703     29706     29709
     29705     29703     29706     29707     29705     29703     29706     29708
     29705     29703     29706     29709     29706     29709     29711     29712
     29706     29709     29711     29713     29707     29706     29709     29710
     29707     29706     29709     29711     29708     29706     29709     29710
     29708     29706     29709     29711     29709     29711     29713     29714
     29709     29711     29713     29715     29709     29711     29713     29716
     29710     29709     29711     29712     29710     29709     29711     29713
     29711     29713     29716     29717     29711     29713     29716     29718
     29711     29713     29716     29719     29712     29711     29713     29714
     29712     29711     29713     29715     29712     29711     29713     29716
     29713     29716     29719     29720     29713     29716     29719     29721
     29713     29716     29719     29722     29714     29713     29716     29717
     29714     29713     29716     29718     29714     29713     29716     29719
     29715     29713     29716     29717     29715     29713     29716     29718
     29715     29713     29716     29719     29716     29719     29722     29723
     29716     29719     29722     29724     29716     29719     29722     29725
     29717     29716     29719     29720     29717     29716     29719     29721
     29717     29716     29719     29722     29718     29716     29719     29720
     29718     29716     29719     29721     29718     29716     29719     29722
     29719     29722     29725     29726     29719     29722     29725     29727
     29719     29722     29725     29728     29720     29719     29722     29723
     29720     29719     29722     29724     29720     29719     29722     29725
     29721     29719     29722     29723     29721     29719     29722     29724
     29721     29719     29722     29725     29722     29725     29728     29729
     29722     29725     29728     29730     29722     29725     29728     29731
     29723     29722     29725     29726     29723     29722     29725     29727
     29723     29722     29725     29728     29724     29722     29725     29726
     29724     29722     29725     29727     29724     29722     29725     29728
     29725     29728     29731     29732     29725     29728     29731     29733
     29725     29728     29731     29734     29726     29725     29728     29729
     29726     29725     29728     29730     29726     29725     29728     29731
     29727     29725     29728     29729     29727     29725     29728     29730
     29727     29725     29728     29731     29728     29731     29734     29735
     29728     29731     29734     29736     29728     29731     29734     29737
     29729     29728     29731     29732     29729     29728     29731     29733
     29729     29728     29731     29734     29730     29728     29731     29732
     29730     29728     29731     29733     29730     29728     29731     29734
     29732     29731     29734     29735     29732     29731     29734     29736
     29732     29731     29734     29737     29733     29731     29734     29735
     29733     29731     29734     29736     29733     29731     29734     29737
     29738     29741     29744     29745     29738     29741     29744     29746
     29738     29741     29744     29747     29739     29738     29741     29742
     29739     29738     29741     29743     29739     29738     29741     29744
     29740     29738     29741     29742     29740     29738     29741     29743
     29740     29738     29741     29744     29741     29744     29747     29748
     29741     29744     29747     29749     29741     29744     29747     29750
     29742     29741     29744     29745     29742     29741     29744     29746
     29742     29741     29744     29747     29743     29741     29744     29745
     29743     29741     29744     29746     29743     29741     29744     29747
     29744     29747     29750     29751     29744     29747     29750     29752
     29744     29747     29750     29753     29745     29744     29747     29748
     29745     29744     29747     29749     29745     29744     29747     29750
     29746     29744     29747     29748     29746     29744     29747     29749
     29746     29744     29747     29750     29747     29750     29753     29754
     29747     29750     29753     29755     29747     29750     29753     29756
     29748     29747     29750     29751     29748     29747     29750     29752
     29748     29747     29750     29753     29749     29747     29750     29751
     29749     29747     29750     29752     29749     29747     29750     29753
     29750     29753     29756     29757     29750     29753     29756     29758
     29750     29753     29756     29759     29751     29750     29753     29754
     29751     29750     29753     29755     29751     29750     29753     29756
     29752     29750     29753     29754     29752     29750     29753     29755
     29752     29750     29753     29756     29753     29756     29759     29760
     29753     29756     29759     29761     29753     29756     29759     29762
     29754     29753     29756     29757     29754     29753     29756     29758
     29754     29753     29756     29759     29755     29753     29756     29757
     29755     29753     29756     29758     29755     29753     29756     29759
     29756     29759     29762     29763     29756     29759     29762     29764
     29756     29759     29762     29765     29757     29756     29759     29760
     29757     29756     29759     29761     29757     29756     29759     29762
     29758     29756     29759     29760     29758     29756     29759     29761
     29758     29756     29759     29762     29759     29762     29765     29766
     29759     29762     29765     29767     29759     29762     29765     29768
     29760     29759     29762     29763     29760     29759     29762     29764
     29760     29759     29762     29765     29761     29759     29762     29763
     29761     29759     29762     29764     29761     29759     29762     29765
     29762     29765     29768     29769     29762     29765     29768     29770
     29762     29765     29768     29771     29763     29762     29765     29766
     29763     29762     29765     29767     29763     29762     29765     29768
     29764     29762     29765     29766     29764     29762     29765     29767
     29764     29762     29765     29768     29765     29768     29771     29772
     29765     29768     29771     29773     29765     29768     29771     29774
     29766     29765     29768     29769     29766     29765     29768     29770
     29766     29765     29768     29771     29767     29765     29768     29769
     29767     29765     29768     29770     29767     29765     29768     29771
     29768     29771     29774     29775     29768     29771     29774     29776
     29768     29771     29774     29777     29769     29768     29771     29772
     29769     29768     29771     29773     29769     29768     29771     29774
     29770     29768     29771     29772     29770     29768     29771     29773
     29770     29768     29771     29774     29771     29774     29777     29778
     29771     29774     29777     29779     29771     29774     29777     29780
     29772     29771     29774     29775     29772     29771     29774     29776
     29772     29771     29774     29777     29773     29771     29774     29775
     29773     29771     29774     29776     29773     29771     29774     29777
     29775     29774     29777     29778     29775     29774     29777     29779
     29775     29774     29777     29780     29776     29774     29777     29778
     29776     29774     29777     29779     29776     29774     29777     29780
     29781     29782     29797     29798     29781     29782     29797     29799
     29781     29782     29797     29803     29782     29781     29785     29786
     29782     29781     29785     29787     29782     29781     29785     29788
     29782     29781     29789     29790     29782     29781     29789     29791
     29782     29781     29789     29792     29782     29781     29793     29794
     29782     29781     29793     29795     29782     29781     29793     29796
     29782     29797     29803     29800     29783     29782     29781     29785
     29783     29782     29781     29789     29783     29782     29781     29793
     29783     29782     29797     29798     29783     29782     29797     29799
     29783     29782     29797     29803     29784     29782     29781     29785
     29784     29782     29781     29789     29784     29782     29781     29793
     29784     29782     29797     29798     29784     29782     29797     29799
     29784     29782     29797     29803     29785     29781     29782     29797
     29785     29781     29789     29790     29785     29781     29789     29791
     29785     29781     29789     29792     29785     29781     29793     29794
     29785     29781     29793     29795     29785     29781     29793     29796
     29786     29785     29781     29789     29786     29785     29781     29793
     29787     29785     29781     29789     29787     29785     29781     29793
     29788     29785     29781     29789     29788     29785     29781     29793
     29789     29781     29782     29797     29789     29781     29793     29794
     29789     29781     29793     29795     29789     29781     29793     29796
     29790     29789     29781     29793     29791     29789     29781     29793
     29792     29789     29781     29793     29793     29781     29782     29797
     29797     29803     29800     29801     29797     29803     29800     29802
     29797     29803     29800     29804     29798     29797     29803     29800
     29799     29797     29803     29800     29800     29804     29805     29806
     29800     29804     29805     29807     29800     29804     29805     29808
     29801     29800     29804     29805     29802     29800     29804     29805
     29803     29800     29804     29805     29804     29805     29808     29809
     29804     29805     29808     29810     29804     29805     29808     29816
     29805     29808     29810     29811     29805     29808     29816     29817
     29805     29808     29816     29818     29805     29808     29816     29819
     29806     29805     29808     29809     29806     29805     29808     29810
     29806     29805     29808     29816     29807     29805     29808     29809
     29807     29805     29808     29810     29807     29805     29808     29816
     29808     29810     29811     29812     29808     29810     29811     29813
     29808     29816     29819     29820     29809     29808     29810     29811
     29809     29808     29816     29817     29809     29808     29816     29818
     29809     29808     29816     29819     29810     29808     29816     29817
     29810     29808     29816     29818     29810     29808     29816     29819
     29810     29811     29813     29814     29810     29811     29813     29815
     29810     29811     29813     29825     29811     29810     29808     29816
     29811     29813     29825     29826     29811     29813     29825     29827
     29811     29813     29825     29828     29812     29811     29813     29814
     29812     29811     29813     29815     29812     29811     29813     29825
     29813     29825     29828     29829     29813     29825     29828     29830
     29813     29825     29828     29831     29814     29813     29825     29826
     29814     29813     29825     29827     29814     29813     29825     29828
     29815     29813     29825     29826     29815     29813     29825     29827
     29815     29813     29825     29828     29816     29819     29820     29821
     29816     29819     29820     29822     29817     29816     29819     29820
     29818     29816     29819     29820     29819     29820     29822     29823
     29819     29820     29822     29824     29819     29820     29822     29872
     29820     29822     29872     29873     29820     29822     29872     29874
     29820     29822     29872     29875     29821     29820     29822     29823
     29821     29820     29822     29824     29821     29820     29822     29872
     29822     29872     29875     29876     29822     29872     29875     29877
     29822     29872     29875     29878     29823     29822     29872     29873
     29823     29822     29872     29874     29823     29822     29872     29875
     29824     29822     29872     29873     29824     29822     29872     29874
     29824     29822     29872     29875     29825     29828     29831     29832
     29825     29828     29831     29833     29825     29828     29831     29834
     29826     29825     29828     29829     29826     29825     29828     29830
     29826     29825     29828     29831     29827     29825     29828     29829
     29827     29825     29828     29830     29827     29825     29828     29831
     29828     29831     29834     29835     29828     29831     29834     29836
     29828     29831     29834     29837     29829     29828     29831     29832
     29829     29828     29831     29833     29829     29828     29831     29834
     29830     29828     29831     29832     29830     29828     29831     29833
     29830     29828     29831     29834     29831     29834     29837     29838
     29831     29834     29837     29839     29831     29834     29837     29840
     29832     29831     29834     29835     29832     29831     29834     29836
     29832     29831     29834     29837     29833     29831     29834     29835
     29833     29831     29834     29836     29833     29831     29834     29837
     29834     29837     29840     29841     29834     29837     29840     29842
     29834     29837     29840     29843     29835     29834     29837     29838
     29835     29834     29837     29839     29835     29834     29837     29840
     29836     29834     29837     29838     29836     29834     29837     29839
     29836     29834     29837     29840     29837     29840     29843     29844
     29837     29840     29843     29845     29838     29837     29840     29841
     29838     29837     29840     29842     29838     29837     29840     29843
     29839     29837     29840     29841     29839     29837     29840     29842
     29839     29837     29840     29843     29840     29843     29845     29846
     29840     29843     29845     29847     29841     29840     29843     29844
     29841     29840     29843     29845     29842     29840     29843     29844
     29842     29840     29843     29845     29843     29845     29847     29848
     29843     29845     29847     29849     29843     29845     29847     29850
     29844     29843     29845     29846     29844     29843     29845     29847
     29845     29847     29850     29851     29845     29847     29850     29852
     29845     29847     29850     29853     29846     29845     29847     29848
     29846     29845     29847     29849     29846     29845     29847     29850
     29847     29850     29853     29854     29847     29850     29853     29855
     29847     29850     29853     29856     29848     29847     29850     29851
     29848     29847     29850     29852     29848     29847     29850     29853
     29849     29847     29850     29851     29849     29847     29850     29852
     29849     29847     29850     29853     29850     29853     29856     29857
     29850     29853     29856     29858     29850     29853     29856     29859
     29851     29850     29853     29854     29851     29850     29853     29855
     29851     29850     29853     29856     29852     29850     29853     29854
     29852     29850     29853     29855     29852     29850     29853     29856
     29853     29856     29859     29860     29853     29856     29859     29861
     29853     29856     29859     29862     29854     29853     29856     29857
     29854     29853     29856     29858     29854     29853     29856     29859
     29855     29853     29856     29857     29855     29853     29856     29858
     29855     29853     29856     29859     29856     29859     29862     29863
     29856     29859     29862     29864     29856     29859     29862     29865
     29857     29856     29859     29860     29857     29856     29859     29861
     29857     29856     29859     29862     29858     29856     29859     29860
     29858     29856     29859     29861     29858     29856     29859     29862
     29859     29862     29865     29866     29859     29862     29865     29867
     29859     29862     29865     29868     29860     29859     29862     29863
     29860     29859     29862     29864     29860     29859     29862     29865
     29861     29859     29862     29863     29861     29859     29862     29864
     29861     29859     29862     29865     29862     29865     29868     29869
     29862     29865     29868     29870     29862     29865     29868     29871
     29863     29862     29865     29866     29863     29862     29865     29867
     29863     29862     29865     29868     29864     29862     29865     29866
     29864     29862     29865     29867     29864     29862     29865     29868
     29866     29865     29868     29869     29866     29865     29868     29870
     29866     29865     29868     29871     29867     29865     29868     29869
     29867     29865     29868     29870     29867     29865     29868     29871
     29872     29875     29878     29879     29872     29875     29878     29880
     29872     29875     29878     29881     29873     29872     29875     29876
     29873     29872     29875     29877     29873     29872     29875     29878
     29874     29872     29875     29876     29874     29872     29875     29877
     29874     29872     29875     29878     29875     29878     29881     29882
     29875     29878     29881     29883     29875     29878     29881     29884
     29876     29875     29878     29879     29876     29875     29878     29880
     29876     29875     29878     29881     29877     29875     29878     29879
     29877     29875     29878     29880     29877     29875     29878     29881
     29878     29881     29884     29885     29878     29881     29884     29886
     29878     29881     29884     29887     29879     29878     29881     29882
     29879     29878     29881     29883     29879     29878     29881     29884
     29880     29878     29881     29882     29880     29878     29881     29883
     29880     29878     29881     29884     29881     29884     29887     29888
     29881     29884     29887     29889     29881     29884     29887     29890
     29882     29881     29884     29885     29882     29881     29884     29886
     29882     29881     29884     29887     29883     29881     29884     29885
     29883     29881     29884     29886     29883     29881     29884     29887
     29884     29887     29890     29891     29884     29887     29890     29892
     29884     29887     29890     29893     29885     29884     29887     29888
     29885     29884     29887     29889     29885     29884     29887     29890
     29886     29884     29887     29888     29886     29884     29887     29889
     29886     29884     29887     29890     29887     29890     29893     29894
     29887     29890     29893     29895     29887     29890     29893     29896
     29888     29887     29890     29891     29888     29887     29890     29892
     29888     29887     29890     29893     29889     29887     29890     29891
     29889     29887     29890     29892     29889     29887     29890     29893
     29890     29893     29896     29897     29890     29893     29896     29898
     29890     29893     29896     29899     29891     29890     29893     29894
     29891     29890     29893     29895     29891     29890     29893     29896
     29892     29890     29893     29894     29892     29890     29893     29895
     29892     29890     29893     29896     29893     29896     29899     29900
     29893     29896     29899     29901     29893     29896     29899     29902
     29894     29893     29896     29897     29894     29893     29896     29898
     29894     29893     29896     29899     29895     29893     29896     29897
     29895     29893     29896     29898     29895     29893     29896     29899
     29896     29899     29902     29903     29896     29899     29902     29904
     29896     29899     29902     29905     29897     29896     29899     29900
     29897     29896     29899     29901     29897     29896     29899     29902
     29898     29896     29899     29900     29898     29896     29899     29901
     29898     29896     29899     29902     29899     29902     29905     29906
     29899     29902     29905     29907     29899     29902     29905     29908
     29900     29899     29902     29903     29900     29899     29902     29904
     29900     29899     29902     29905     29901     29899     29902     29903
     29901     29899     29902     29904     29901     29899     29902     29905
     29902     29905     29908     29909     29902     29905     29908     29910
     29902     29905     29908     29911     29903     29902     29905     29906
     29903     29902     29905     29907     29903     29902     29905     29908
     29904     29902     29905     29906     29904     29902     29905     29907
     29904     29902     29905     29908     29905     29908     29911     29912
     29905     29908     29911     29913     29905     29908     29911     29914
     29906     29905     29908     29909     29906     29905     29908     29910
     29906     29905     29908     29911     29907     29905     29908     29909
     29907     29905     29908     29910     29907     29905     29908     29911
     29909     29908     29911     29912     29909     29908     29911     29913
     29909     29908     29911     29914     29910     29908     29911     29912
     29910     29908     29911     29913     29910     29908     29911     29914
     29915     29916     29931     29932     29915     29916     29931     29933
     29915     29916     29931     29937     29916     29915     29919     29920
     29916     29915     29919     29921     29916     29915     29919     29922
     29916     29915     29923     29924     29916     29915     29923     29925
     29916     29915     29923     29926     29916     29915     29927     29928
     29916     29915     29927     29929     29916     29915     29927     29930
     29916     29931     29937     29934     29917     29916     29915     29919
     29917     29916     29915     29923     29917     29916     29915     29927
     29917     29916     29931     29932     29917     29916     29931     29933
     29917     29916     29931     29937     29918     29916     29915     29919
     29918     29916     29915     29923     29918     29916     29915     29927
     29918     29916     29931     29932     29918     29916     29931     29933
     29918     29916     29931     29937     29919     29915     29916     29931
     29919     29915     29923     29924     29919     29915     29923     29925
     29919     29915     29923     29926     29919     29915     29927     29928
     29919     29915     29927     29929     29919     29915     29927     29930
     29920     29919     29915     29923     29920     29919     29915     29927
     29921     29919     29915     29923     29921     29919     29915     29927
     29922     29919     29915     29923     29922     29919     29915     29927
     29923     29915     29916     29931     29923     29915     29927     29928
     29923     29915     29927     29929     29923     29915     29927     29930
     29924     29923     29915     29927     29925     29923     29915     29927
     29926     29923     29915     29927     29927     29915     29916     29931
     29931     29937     29934     29935     29931     29937     29934     29936
     29931     29937     29934     29938     29932     29931     29937     29934
     29933     29931     29937     29934     29934     29938     29939     29940
     29934     29938     29939     29941     29934     29938     29939     29942
     29935     29934     29938     29939     29936     29934     29938     29939
     29937     29934     29938     29939     29938     29939     29942     29943
     29938     29939     29942     29944     29938     29939     29942     29950
     29939     29942     29944     29945     29939     29942     29950     29951
     29939     29942     29950     29952     29939     29942     29950     29953
     29940     29939     29942     29943     29940     29939     29942     29944
     29940     29939     29942     29950     29941     29939     29942     29943
     29941     29939     29942     29944     29941     29939     29942     29950
     29942     29944     29945     29946     29942     29944     29945     29947
     29942     29950     29953     29954     29943     29942     29944     29945
     29943     29942     29950     29951     29943     29942     29950     29952
     29943     29942     29950     29953     29944     29942     29950     29951
     29944     29942     29950     29952     29944     29942     29950     29953
     29944     29945     29947     29948     29944     29945     29947     29949
     29944     29945     29947     29959     29945     29944     29942     29950
     29945     29947     29959     29960     29945     29947     29959     29961
     29945     29947     29959     29962     29946     29945     29947     29948
     29946     29945     29947     29949     29946     29945     29947     29959
     29947     29959     29962     29963     29947     29959     29962     29964
     29947     29959     29962     29965     29948     29947     29959     29960
     29948     29947     29959     29961     29948     29947     29959     29962
     29949     29947     29959     29960     29949     29947     29959     29961
     29949     29947     29959     29962     29950     29953     29954     29955
     29950     29953     29954     29956     29951     29950     29953     29954
     29952     29950     29953     29954     29953     29954     29956     29957
     29953     29954     29956     29958     29953     29954     29956     30006
     29954     29956     30006     30007     29954     29956     30006     30008
     29954     29956     30006     30009     29955     29954     29956     29957
     29955     29954     29956     29958     29955     29954     29956     30006
     29956     30006     30009     30010     29956     30006     30009     30011
     29956     30006     30009     30012     29957     29956     30006     30007
     29957     29956     30006     30008     29957     29956     30006     30009
     29958     29956     30006     30007     29958     29956     30006     30008
     29958     29956     30006     30009     29959     29962     29965     29966
     29959     29962     29965     29967     29959     29962     29965     29968
     29960     29959     29962     29963     29960     29959     29962     29964
     29960     29959     29962     29965     29961     29959     29962     29963
     29961     29959     29962     29964     29961     29959     29962     29965
     29962     29965     29968     29969     29962     29965     29968     29970
     29962     29965     29968     29971     29963     29962     29965     29966
     29963     29962     29965     29967     29963     29962     29965     29968
     29964     29962     29965     29966     29964     29962     29965     29967
     29964     29962     29965     29968     29965     29968     29971     29972
     29965     29968     29971     29973     29965     29968     29971     29974
     29966     29965     29968     29969     29966     29965     29968     29970
     29966     29965     29968     29971     29967     29965     29968     29969
     29967     29965     29968     29970     29967     29965     29968     29971
     29968     29971     29974     29975     29968     29971     29974     29976
     29968     29971     29974     29977     29969     29968     29971     29972
     29969     29968     29971     29973     29969     29968     29971     29974
     29970     29968     29971     29972     29970     29968     29971     29973
     29970     29968     29971     29974     29971     29974     29977     29978
     29971     29974     29977     29979     29972     29971     29974     29975
     29972     29971     29974     29976     29972     29971     29974     29977
     29973     29971     29974     29975     29973     29971     29974     29976
     29973     29971     29974     29977     29974     29977     29979     29980
     29974     29977     29979     29981     29975     29974     29977     29978
     29975     29974     29977     29979     29976     29974     29977     29978
     29976     29974     29977     29979     29977     29979     29981     29982
     29977     29979     29981     29983     29977     29979     29981     29984
     29978     29977     29979     29980     29978     29977     29979     29981
     29979     29981     29984     29985     29979     29981     29984     29986
     29979     29981     29984     29987     29980     29979     29981     29982
     29980     29979     29981     29983     29980     29979     29981     29984
     29981     29984     29987     29988     29981     29984     29987     29989
     29981     29984     29987     29990     29982     29981     29984     29985
     29982     29981     29984     29986     29982     29981     29984     29987
     29983     29981     29984     29985     29983     29981     29984     29986
     29983     29981     29984     29987     29984     29987     29990     29991
     29984     29987     29990     29992     29984     29987     29990     29993
     29985     29984     29987     29988     29985     29984     29987     29989
     29985     29984     29987     29990     29986     29984     29987     29988
     29986     29984     29987     29989     29986     29984     29987     29990
     29987     29990     29993     29994     29987     29990     29993     29995
     29987     29990     29993     29996     29988     29987     29990     29991
     29988     29987     29990     29992     29988     29987     29990     29993
     29989     29987     29990     29991     29989     29987     29990     29992
     29989     29987     29990     29993     29990     29993     29996     29997
     29990     29993     29996     29998     29990     29993     29996     29999
     29991     29990     29993     29994     29991     29990     29993     29995
     29991     29990     29993     29996     29992     29990     29993     29994
     29992     29990     29993     29995     29992     29990     29993     29996
     29993     29996     29999     30000     29993     29996     29999     30001
     29993     29996     29999     30002     29994     29993     29996     29997
     29994     29993     29996     29998     29994     29993     29996     29999
     29995     29993     29996     29997     29995     29993     29996     29998
     29995     29993     29996     29999     29996     29999     30002     30003
     29996     29999     30002     30004     29996     29999     30002     30005
     29997     29996     29999     30000     29997     29996     29999     30001
     29997     29996     29999     30002     29998     29996     29999     30000
     29998     29996     29999     30001     29998     29996     29999     30002
     30000     29999     30002     30003     30000     29999     30002     30004
     30000     29999     30002     30005     30001     29999     30002     30003
     30001     29999     30002     30004     30001     29999     30002     30005
     30006     30009     30012     30013     30006     30009     30012     30014
     30006     30009     30012     30015     30007     30006     30009     30010
     30007     30006     30009     30011     30007     30006     30009     30012
     30008     30006     30009     30010     30008     30006     30009     30011
     30008     30006     30009     30012     30009     30012     30015     30016
     30009     30012     30015     30017     30009     30012     30015     30018
     30010     30009     30012     30013     30010     30009     30012     30014
     30010     30009     30012     30015     30011     30009     30012     30013
     30011     30009     30012     30014     30011     30009     30012     30015
     30012     30015     30018     30019     30012     30015     30018     30020
     30012     30015     30018     30021     30013     30012     30015     30016
     30013     30012     30015     30017     30013     30012     30015     30018
     30014     30012     30015     30016     30014     30012     30015     30017
     30014     30012     30015     30018     30015     30018     30021     30022
     30015     30018     30021     30023     30015     30018     30021     30024
     30016     30015     30018     30019     30016     30015     30018     30020
     30016     30015     30018     30021     30017     30015     30018     30019
     30017     30015     30018     30020     30017     30015     30018     30021
     30018     30021     30024     30025     30018     30021     30024     30026
     30018     30021     30024     30027     30019     30018     30021     30022
     30019     30018     30021     30023     30019     30018     30021     30024
     30020     30018     30021     30022     30020     30018     30021     30023
     30020     30018     30021     30024     30021     30024     30027     30028
     30021     30024     30027     30029     30021     30024     30027     30030
     30022     30021     30024     30025     30022     30021     30024     30026
     30022     30021     30024     30027     30023     30021     30024     30025
     30023     30021     30024     30026     30023     30021     30024     30027
     30024     30027     30030     30031     30024     30027     30030     30032
     30024     30027     30030     30033     30025     30024     30027     30028
     30025     30024     30027     30029     30025     30024     30027     30030
     30026     30024     30027     30028     30026     30024     30027     30029
     30026     30024     30027     30030     30027     30030     30033     30034
     30027     30030     30033     30035     30027     30030     30033     30036
     30028     30027     30030     30031     30028     30027     30030     30032
     30028     30027     30030     30033     30029     30027     30030     30031
     30029     30027     30030     30032     30029     30027     30030     30033
     30030     30033     30036     30037     30030     30033     30036     30038
     30030     30033     30036     30039     30031     30030     30033     30034
     30031     30030     30033     30035     30031     30030     30033     30036
     30032     30030     30033     30034     30032     30030     30033     30035
     30032     30030     30033     30036     30033     30036     30039     30040
     30033     30036     30039     30041     30033     30036     30039     30042
     30034     30033     30036     30037     30034     30033     30036     30038
     30034     30033     30036     30039     30035     30033     30036     30037
     30035     30033     30036     30038     30035     30033     30036     30039
     30036     30039     30042     30043     30036     30039     30042     30044
     30036     30039     30042     30045     30037     30036     30039     30040
     30037     30036     30039     30041     30037     30036     30039     30042
     30038     30036     30039     30040     30038     30036     30039     30041
     30038     30036     30039     30042     30039     30042     30045     30046
     30039     30042     30045     30047     30039     30042     30045     30048
     30040     30039     30042     30043     30040     30039     30042     30044
     30040     30039     30042     30045     30041     30039     30042     30043
     30041     30039     30042     30044     30041     30039     30042     30045
     30043     30042     30045     30046     30043     30042     30045     30047
     30043     30042     30045     30048     30044     30042     30045     30046
     30044     30042     30045     30047     30044     30042     30045     30048
     30049     30050     30065     30066     30049     30050     30065     30067
     30049     30050     30065     30071     30050     30049     30053     30054
     30050     30049     30053     30055     30050     30049     30053     30056
     30050     30049     30057     30058     30050     30049     30057     30059
     30050     30049     30057     30060     30050     30049     30061     30062
     30050     30049     30061     30063     30050     30049     30061     30064
     30050     30065     30071     30068     30051     30050     30049     30053
     30051     30050     30049     30057     30051     30050     30049     30061
     30051     30050     30065     30066     30051     30050     30065     30067
     30051     30050     30065     30071     30052     30050     30049     30053
     30052     30050     30049     30057     30052     30050     30049     30061
     30052     30050     30065     30066     30052     30050     30065     30067
     30052     30050     30065     30071     30053     30049     30050     30065
     30053     30049     30057     30058     30053     30049     30057     30059
     30053     30049     30057     30060     30053     30049     30061     30062
     30053     30049     30061     30063     30053     30049     30061     30064
     30054     30053     30049     30057     30054     30053     30049     30061
     30055     30053     30049     30057     30055     30053     30049     30061
     30056     30053     30049     30057     30056     30053     30049     30061
     30057     30049     30050     30065     30057     30049     30061     30062
     30057     30049     30061     30063     30057     30049     30061     30064
     30058     30057     30049     30061     30059     30057     30049     30061
     30060     30057     30049     30061     30061     30049     30050     30065
     30065     30071     30068     30069     30065     30071     30068     30070
     30065     30071     30068     30072     30066     30065     30071     30068
     30067     30065     30071     30068     30068     30072     30073     30074
     30068     30072     30073     30075     30068     30072     30073     30076
     30069     30068     30072     30073     30070     30068     30072     30073
     30071     30068     30072     30073     30072     30073     30076     30077
     30072     30073     30076     30078     30072     30073     30076     30084
     30073     30076     30078     30079     30073     30076     30084     30085
     30073     30076     30084     30086     30073     30076     30084     30087
     30074     30073     30076     30077     30074     30073     30076     30078
     30074     30073     30076     30084     30075     30073     30076     30077
     30075     30073     30076     30078     30075     30073     30076     30084
     30076     30078     30079     30080     30076     30078     30079     30081
     30076     30084     30087     30088     30077     30076     30078     30079
     30077     30076     30084     30085     30077     30076     30084     30086
     30077     30076     30084     30087     30078     30076     30084     30085
     30078     30076     30084     30086     30078     30076     30084     30087
     30078     30079     30081     30082     30078     30079     30081     30083
     30078     30079     30081     30093     30079     30078     30076     30084
     30079     30081     30093     30094     30079     30081     30093     30095
     30079     30081     30093     30096     30080     30079     30081     30082
     30080     30079     30081     30083     30080     30079     30081     30093
     30081     30093     30096     30097     30081     30093     30096     30098
     30081     30093     30096     30099     30082     30081     30093     30094
     30082     30081     30093     30095     30082     30081     30093     30096
     30083     30081     30093     30094     30083     30081     30093     30095
     30083     30081     30093     30096     30084     30087     30088     30089
     30084     30087     30088     30090     30085     30084     30087     30088
     30086     30084     30087     30088     30087     30088     30090     30091
     30087     30088     30090     30092     30087     30088     30090     30140
     30088     30090     30140     30141     30088     30090     30140     30142
     30088     30090     30140     30143     30089     30088     30090     30091
     30089     30088     30090     30092     30089     30088     30090     30140
     30090     30140     30143     30144     30090     30140     30143     30145
     30090     30140     30143     30146     30091     30090     30140     30141
     30091     30090     30140     30142     30091     30090     30140     30143
     30092     30090     30140     30141     30092     30090     30140     30142
     30092     30090     30140     30143     30093     30096     30099     30100
     30093     30096     30099     30101     30093     30096     30099     30102
     30094     30093     30096     30097     30094     30093     30096     30098
     30094     30093     30096     30099     30095     30093     30096     30097
     30095     30093     30096     30098     30095     30093     30096     30099
     30096     30099     30102     30103     30096     30099     30102     30104
     30096     30099     30102     30105     30097     30096     30099     30100
     30097     30096     30099     30101     30097     30096     30099     30102
     30098     30096     30099     30100     30098     30096     30099     30101
     30098     30096     30099     30102     30099     30102     30105     30106
     30099     30102     30105     30107     30099     30102     30105     30108
     30100     30099     30102     30103     30100     30099     30102     30104
     30100     30099     30102     30105     30101     30099     30102     30103
     30101     30099     30102     30104     30101     30099     30102     30105
     30102     30105     30108     30109     30102     30105     30108     30110
     30102     30105     30108     30111     30103     30102     30105     30106
     30103     30102     30105     30107     30103     30102     30105     30108
     30104     30102     30105     30106     30104     30102     30105     30107
     30104     30102     30105     30108     30105     30108     30111     30112
     30105     30108     30111     30113     30106     30105     30108     30109
     30106     30105     30108     30110     30106     30105     30108     30111
     30107     30105     30108     30109     30107     30105     30108     30110
     30107     30105     30108     30111     30108     30111     30113     30114
     30108     30111     30113     30115     30109     30108     30111     30112
     30109     30108     30111     30113     30110     30108     30111     30112
     30110     30108     30111     30113     30111     30113     30115     30116
     30111     30113     30115     30117     30111     30113     30115     30118
     30112     30111     30113     30114     30112     30111     30113     30115
     30113     30115     30118     30119     30113     30115     30118     30120
     30113     30115     30118     30121     30114     30113     30115     30116
     30114     30113     30115     30117     30114     30113     30115     30118
     30115     30118     30121     30122     30115     30118     30121     30123
     30115     30118     30121     30124     30116     30115     30118     30119
     30116     30115     30118     30120     30116     30115     30118     30121
     30117     30115     30118     30119     30117     30115     30118     30120
     30117     30115     30118     30121     30118     30121     30124     30125
     30118     30121     30124     30126     30118     30121     30124     30127
     30119     30118     30121     30122     30119     30118     30121     30123
     30119     30118     30121     30124     30120     30118     30121     30122
     30120     30118     30121     30123     30120     30118     30121     30124
     30121     30124     30127     30128     30121     30124     30127     30129
     30121     30124     30127     30130     30122     30121     30124     30125
     30122     30121     30124     30126     30122     30121     30124     30127
     30123     30121     30124     30125     30123     30121     30124     30126
     30123     30121     30124     30127     30124     30127     30130     30131
     30124     30127     30130     30132     30124     30127     30130     30133
     30125     30124     30127     30128     30125     30124     30127     30129
     30125     30124     30127     30130     30126     30124     30127     30128
     30126     30124     30127     30129     30126     30124     30127     30130
     30127     30130     30133     30134     30127     30130     30133     30135
     30127     30130     30133     30136     30128     30127     30130     30131
     30128     30127     30130     30132     30128     30127     30130     30133
     30129     30127     30130     30131     30129     30127     30130     30132
     30129     30127     30130     30133     30130     30133     30136     30137
     30130     30133     30136     30138     30130     30133     30136     30139
     30131     30130     30133     30134     30131     30130     30133     30135
     30131     30130     30133     30136     30132     30130     30133     30134
     30132     30130     30133     30135     30132     30130     30133     30136
     30134     30133     30136     30137     30134     30133     30136     30138
     30134     30133     30136     30139     30135     30133     30136     30137
     30135     30133     30136     30138     30135     30133     30136     30139
     30140     30143     30146     30147     30140     30143     30146     30148
     30140     30143     30146     30149     30141     30140     30143     30144
     30141     30140     30143     30145     30141     30140     30143     30146
     30142     30140     30143     30144     30142     30140     30143     30145
     30142     30140     30143     30146     30143     30146     30149     30150
     30143     30146     30149     30151     30143     30146     30149     30152
     30144     30143     30146     30147     30144     30143     30146     30148
     30144     30143     30146     30149     30145     30143     30146     30147
     30145     30143     30146     30148     30145     30143     30146     30149
     30146     30149     30152     30153     30146     30149     30152     30154
     30146     30149     30152     30155     30147     30146     30149     30150
     30147     30146     30149     30151     30147     30146     30149     30152
     30148     30146     30149     30150     30148     30146     30149     30151
     30148     30146     30149     30152     30149     30152     30155     30156
     30149     30152     30155     30157     30149     30152     30155     30158
     30150     30149     30152     30153     30150     30149     30152     30154
     30150     30149     30152     30155     30151     30149     30152     30153
     30151     30149     30152     30154     30151     30149     30152     30155
     30152     30155     30158     30159     30152     30155     30158     30160
     30152     30155     30158     30161     30153     30152     30155     30156
     30153     30152     30155     30157     30153     30152     30155     30158
     30154     30152     30155     30156     30154     30152     30155     30157
     30154     30152     30155     30158     30155     30158     30161     30162
     30155     30158     30161     30163     30155     30158     30161     30164
     30156     30155     30158     30159     30156     30155     30158     30160
     30156     30155     30158     30161     30157     30155     30158     30159
     30157     30155     30158     30160     30157     30155     30158     30161
     30158     30161     30164     30165     30158     30161     30164     30166
     30158     30161     30164     30167     30159     30158     30161     30162
     30159     30158     30161     30163     30159     30158     30161     30164
     30160     30158     30161     30162     30160     30158     30161     30163
     30160     30158     30161     30164     30161     30164     30167     30168
     30161     30164     30167     30169     30161     30164     30167     30170
     30162     30161     30164     30165     30162     30161     30164     30166
     30162     30161     30164     30167     30163     30161     30164     30165
     30163     30161     30164     30166     30163     30161     30164     30167
     30164     30167     30170     30171     30164     30167     30170     30172
     30164     30167     30170     30173     30165     30164     30167     30168
     30165     30164     30167     30169     30165     30164     30167     30170
     30166     30164     30167     30168     30166     30164     30167     30169
     30166     30164     30167     30170     30167     30170     30173     30174
     30167     30170     30173     30175     30167     30170     30173     30176
     30168     30167     30170     30171     30168     30167     30170     30172
     30168     30167     30170     30173     30169     30167     30170     30171
     30169     30167     30170     30172     30169     30167     30170     30173
     30170     30173     30176     30177     30170     30173     30176     30178
     30170     30173     30176     30179     30171     30170     30173     30174
     30171     30170     30173     30175     30171     30170     30173     30176
     30172     30170     30173     30174     30172     30170     30173     30175
     30172     30170     30173     30176     30173     30176     30179     30180
     30173     30176     30179     30181     30173     30176     30179     30182
     30174     30173     30176     30177     30174     30173     30176     30178
     30174     30173     30176     30179     30175     30173     30176     30177
     30175     30173     30176     30178     30175     30173     30176     30179
     30177     30176     30179     30180     30177     30176     30179     30181
     30177     30176     30179     30182     30178     30176     30179     30180
     30178     30176     30179     30181     30178     30176     30179     30182
     30183     30184     30199     30200     30183     30184     30199     30201
     30183     30184     30199     30205     30184     30183     30187     30188
     30184     30183     30187     30189     30184     30183     30187     30190
     30184     30183     30191     30192     30184     30183     30191     30193
     30184     30183     30191     30194     30184     30183     30195     30196
     30184     30183     30195     30197     30184     30183     30195     30198
     30184     30199     30205     30202     30185     30184     30183     30187
     30185     30184     30183     30191     30185     30184     30183     30195
     30185     30184     30199     30200     30185     30184     30199     30201
     30185     30184     30199     30205     30186     30184     30183     30187
     30186     30184     30183     30191     30186     30184     30183     30195
     30186     30184     30199     30200     30186     30184     30199     30201
     30186     30184     30199     30205     30187     30183     30184     30199
     30187     30183     30191     30192     30187     30183     30191     30193
     30187     30183     30191     30194     30187     30183     30195     30196
     30187     30183     30195     30197     30187     30183     30195     30198
     30188     30187     30183     30191     30188     30187     30183     30195
     30189     30187     30183     30191     30189     30187     30183     30195
     30190     30187     30183     30191     30190     30187     30183     30195
     30191     30183     30184     30199     30191     30183     30195     30196
     30191     30183     30195     30197     30191     30183     30195     30198
     30192     30191     30183     30195     30193     30191     30183     30195
     30194     30191     30183     30195     30195     30183     30184     30199
     30199     30205     30202     30203     30199     30205     30202     30204
     30199     30205     30202     30206     30200     30199     30205     30202
     30201     30199     30205     30202     30202     30206     30207     30208
     30202     30206     30207     30209     30202     30206     30207     30210
     30203     30202     30206     30207     30204     30202     30206     30207
     30205     30202     30206     30207     30206     30207     30210     30211
     30206     30207     30210     30212     30206     30207     30210     30218
     30207     30210     30212     30213     30207     30210     30218     30219
     30207     30210     30218     30220     30207     30210     30218     30221
     30208     30207     30210     30211     30208     30207     30210     30212
     30208     30207     30210     30218     30209     30207     30210     30211
     30209     30207     30210     30212     30209     30207     30210     30218
     30210     30212     30213     30214     30210     30212     30213     30215
     30210     30218     30221     30222     30211     30210     30212     30213
     30211     30210     30218     30219     30211     30210     30218     30220
     30211     30210     30218     30221     30212     30210     30218     30219
     30212     30210     30218     30220     30212     30210     30218     30221
     30212     30213     30215     30216     30212     30213     30215     30217
     30212     30213     30215     30227     30213     30212     30210     30218
     30213     30215     30227     30228     30213     30215     30227     30229
     30213     30215     30227     30230     30214     30213     30215     30216
     30214     30213     30215     30217     30214     30213     30215     30227
     30215     30227     30230     30231     30215     30227     30230     30232
     30215     30227     30230     30233     30216     30215     30227     30228
     30216     30215     30227     30229     30216     30215     30227     30230
     30217     30215     30227     30228     30217     30215     30227     30229
     30217     30215     30227     30230     30218     30221     30222     30223
     30218     30221     30222     30224     30219     30218     30221     30222
     30220     30218     30221     30222     30221     30222     30224     30225
     30221     30222     30224     30226     30221     30222     30224     30274
     30222     30224     30274     30275     30222     30224     30274     30276
     30222     30224     30274     30277     30223     30222     30224     30225
     30223     30222     30224     30226     30223     30222     30224     30274
     30224     30274     30277     30278     30224     30274     30277     30279
     30224     30274     30277     30280     30225     30224     30274     30275
     30225     30224     30274     30276     30225     30224     30274     30277
     30226     30224     30274     30275     30226     30224     30274     30276
     30226     30224     30274     30277     30227     30230     30233     30234
     30227     30230     30233     30235     30227     30230     30233     30236
     30228     30227     30230     30231     30228     30227     30230     30232
     30228     30227     30230     30233     30229     30227     30230     30231
     30229     30227     30230     30232     30229     30227     30230     30233
     30230     30233     30236     30237     30230     30233     30236     30238
     30230     30233     30236     30239     30231     30230     30233     30234
     30231     30230     30233     30235     30231     30230     30233     30236
     30232     30230     30233     30234     30232     30230     30233     30235
     30232     30230     30233     30236     30233     30236     30239     30240
     30233     30236     30239     30241     30233     30236     30239     30242
     30234     30233     30236     30237     30234     30233     30236     30238
     30234     30233     30236     30239     30235     30233     30236     30237
     30235     30233     30236     30238     30235     30233     30236     30239
     30236     30239     30242     30243     30236     30239     30242     30244
     30236     30239     30242     30245     30237     30236     30239     30240
     30237     30236     30239     30241     30237     30236     30239     30242
     30238     30236     30239     30240     30238     30236     30239     30241
     30238     30236     30239     30242     30239     30242     30245     30246
     30239     30242     30245     30247     30240     30239     30242     30243
     30240     30239     30242     30244     30240     30239     30242     30245
     30241     30239     30242     30243     30241     30239     30242     30244
     30241     30239     30242     30245     30242     30245     30247     30248
     30242     30245     30247     30249     30243     30242     30245     30246
     30243     30242     30245     30247     30244     30242     30245     30246
     30244     30242     30245     30247     30245     30247     30249     30250
     30245     30247     30249     30251     30245     30247     30249     30252
     30246     30245     30247     30248     30246     30245     30247     30249
     30247     30249     30252     30253     30247     30249     30252     30254
     30247     30249     30252     30255     30248     30247     30249     30250
     30248     30247     30249     30251     30248     30247     30249     30252
     30249     30252     30255     30256     30249     30252     30255     30257
     30249     30252     30255     30258     30250     30249     30252     30253
     30250     30249     30252     30254     30250     30249     30252     30255
     30251     30249     30252     30253     30251     30249     30252     30254
     30251     30249     30252     30255     30252     30255     30258     30259
     30252     30255     30258     30260     30252     30255     30258     30261
     30253     30252     30255     30256     30253     30252     30255     30257
     30253     30252     30255     30258     30254     30252     30255     30256
     30254     30252     30255     30257     30254     30252     30255     30258
     30255     30258     30261     30262     30255     30258     30261     30263
     30255     30258     30261     30264     30256     30255     30258     30259
     30256     30255     30258     30260     30256     30255     30258     30261
     30257     30255     30258     30259     30257     30255     30258     30260
     30257     30255     30258     30261     30258     30261     30264     30265
     30258     30261     30264     30266     30258     30261     30264     30267
     30259     30258     30261     30262     30259     30258     30261     30263
     30259     30258     30261     30264     30260     30258     30261     30262
     30260     30258     30261     30263     30260     30258     30261     30264
     30261     30264     30267     30268     30261     30264     30267     30269
     30261     30264     30267     30270     30262     30261     30264     30265
     30262     30261     30264     30266     30262     30261     30264     30267
     30263     30261     30264     30265     30263     30261     30264     30266
     30263     30261     30264     30267     30264     30267     30270     30271
     30264     30267     30270     30272     30264     30267     30270     30273
     30265     30264     30267     30268     30265     30264     30267     30269
     30265     30264     30267     30270     30266     30264     30267     30268
     30266     30264     30267     30269     30266     30264     30267     30270
     30268     30267     30270     30271     30268     30267     30270     30272
     30268     30267     30270     30273     30269     30267     30270     30271
     30269     30267     30270     30272     30269     30267     30270     30273
     30274     30277     30280     30281     30274     30277     30280     30282
     30274     30277     30280     30283     30275     30274     30277     30278
     30275     30274     30277     30279     30275     30274     30277     30280
     30276     30274     30277     30278     30276     30274     30277     30279
     30276     30274     30277     30280     30277     30280     30283     30284
     30277     30280     30283     30285     30277     30280     30283     30286
     30278     30277     30280     30281     30278     30277     30280     30282
     30278     30277     30280     30283     30279     30277     30280     30281
     30279     30277     30280     30282     30279     30277     30280     30283
     30280     30283     30286     30287     30280     30283     30286     30288
     30280     30283     30286     30289     30281     30280     30283     30284
     30281     30280     30283     30285     30281     30280     30283     30286
     30282     30280     30283     30284     30282     30280     30283     30285
     30282     30280     30283     30286     30283     30286     30289     30290
     30283     30286     30289     30291     30283     30286     30289     30292
     30284     30283     30286     30287     30284     30283     30286     30288
     30284     30283     30286     30289     30285     30283     30286     30287
     30285     30283     30286     30288     30285     30283     30286     30289
     30286     30289     30292     30293     30286     30289     30292     30294
     30286     30289     30292     30295     30287     30286     30289     30290
     30287     30286     30289     30291     30287     30286     30289     30292
     30288     30286     30289     30290     30288     30286     30289     30291
     30288     30286     30289     30292     30289     30292     30295     30296
     30289     30292     30295     30297     30289     30292     30295     30298
     30290     30289     30292     30293     30290     30289     30292     30294
     30290     30289     30292     30295     30291     30289     30292     30293
     30291     30289     30292     30294     30291     30289     30292     30295
     30292     30295     30298     30299     30292     30295     30298     30300
     30292     30295     30298     30301     30293     30292     30295     30296
     30293     30292     30295     30297     30293     30292     30295     30298
     30294     30292     30295     30296     30294     30292     30295     30297
     30294     30292     30295     30298     30295     30298     30301     30302
     30295     30298     30301     30303     30295     30298     30301     30304
     30296     30295     30298     30299     30296     30295     30298     30300
     30296     30295     30298     30301     30297     30295     30298     30299
     30297     30295     30298     30300     30297     30295     30298     30301
     30298     30301     30304     30305     30298     30301     30304     30306
     30298     30301     30304     30307     30299     30298     30301     30302
     30299     30298     30301     30303     30299     30298     30301     30304
     30300     30298     30301     30302     30300     30298     30301     30303
     30300     30298     30301     30304     30301     30304     30307     30308
     30301     30304     30307     30309     30301     30304     30307     30310
     30302     30301     30304     30305     30302     30301     30304     30306
     30302     30301     30304     30307     30303     30301     30304     30305
     30303     30301     30304     30306     30303     30301     30304     30307
     30304     30307     30310     30311     30304     30307     30310     30312
     30304     30307     30310     30313     30305     30304     30307     30308
     30305     30304     30307     30309     30305     30304     30307     30310
     30306     30304     30307     30308     30306     30304     30307     30309
     30306     30304     30307     30310     30307     30310     30313     30314
     30307     30310     30313     30315     30307     30310     30313     30316
     30308     30307     30310     30311     30308     30307     30310     30312
     30308     30307     30310     30313     30309     30307     30310     30311
     30309     30307     30310     30312     30309     30307     30310     30313
     30311     30310     30313     30314     30311     30310     30313     30315
     30311     30310     30313     30316     30312     30310     30313     30314
     30312     30310     30313     30315     30312     30310     30313     30316
     30317     30318     30333     30334     30317     30318     30333     30335
     30317     30318     30333     30339     30318     30317     30321     30322
     30318     30317     30321     30323     30318     30317     30321     30324
     30318     30317     30325     30326     30318     30317     30325     30327
     30318     30317     30325     30328     30318     30317     30329     30330
     30318     30317     30329     30331     30318     30317     30329     30332
     30318     30333     30339     30336     30319     30318     30317     30321
     30319     30318     30317     30325     30319     30318     30317     30329
     30319     30318     30333     30334     30319     30318     30333     30335
     30319     30318     30333     30339     30320     30318     30317     30321
     30320     30318     30317     30325     30320     30318     30317     30329
     30320     30318     30333     30334     30320     30318     30333     30335
     30320     30318     30333     30339     30321     30317     30318     30333
     30321     30317     30325     30326     30321     30317     30325     30327
     30321     30317     30325     30328     30321     30317     30329     30330
     30321     30317     30329     30331     30321     30317     30329     30332
     30322     30321     30317     30325     30322     30321     30317     30329
     30323     30321     30317     30325     30323     30321     30317     30329
     30324     30321     30317     30325     30324     30321     30317     30329
     30325     30317     30318     30333     30325     30317     30329     30330
     30325     30317     30329     30331     30325     30317     30329     30332
     30326     30325     30317     30329     30327     30325     30317     30329
     30328     30325     30317     30329     30329     30317     30318     30333
     30333     30339     30336     30337     30333     30339     30336     30338
     30333     30339     30336     30340     30334     30333     30339     30336
     30335     30333     30339     30336     30336     30340     30341     30342
     30336     30340     30341     30343     30336     30340     30341     30344
     30337     30336     30340     30341     30338     30336     30340     30341
     30339     30336     30340     30341     30340     30341     30344     30345
     30340     30341     30344     30346     30340     30341     30344     30352
     30341     30344     30346     30347     30341     30344     30352     30353
     30341     30344     30352     30354     30341     30344     30352     30355
     30342     30341     30344     30345     30342     30341     30344     30346
     30342     30341     30344     30352     30343     30341     30344     30345
     30343     30341     30344     30346     30343     30341     30344     30352
     30344     30346     30347     30348     30344     30346     30347     30349
     30344     30352     30355     30356     30345     30344     30346     30347
     30345     30344     30352     30353     30345     30344     30352     30354
     30345     30344     30352     30355     30346     30344     30352     30353
     30346     30344     30352     30354     30346     30344     30352     30355
     30346     30347     30349     30350     30346     30347     30349     30351
     30346     30347     30349     30361     30347     30346     30344     30352
     30347     30349     30361     30362     30347     30349     30361     30363
     30347     30349     30361     30364     30348     30347     30349     30350
     30348     30347     30349     30351     30348     30347     30349     30361
     30349     30361     30364     30365     30349     30361     30364     30366
     30349     30361     30364     30367     30350     30349     30361     30362
     30350     30349     30361     30363     30350     30349     30361     30364
     30351     30349     30361     30362     30351     30349     30361     30363
     30351     30349     30361     30364     30352     30355     30356     30357
     30352     30355     30356     30358     30353     30352     30355     30356
     30354     30352     30355     30356     30355     30356     30358     30359
     30355     30356     30358     30360     30355     30356     30358     30408
     30356     30358     30408     30409     30356     30358     30408     30410
     30356     30358     30408     30411     30357     30356     30358     30359
     30357     30356     30358     30360     30357     30356     30358     30408
     30358     30408     30411     30412     30358     30408     30411     30413
     30358     30408     30411     30414     30359     30358     30408     30409
     30359     30358     30408     30410     30359     30358     30408     30411
     30360     30358     30408     30409     30360     30358     30408     30410
     30360     30358     30408     30411     30361     30364     30367     30368
     30361     30364     30367     30369     30361     30364     30367     30370
     30362     30361     30364     30365     30362     30361     30364     30366
     30362     30361     30364     30367     30363     30361     30364     30365
     30363     30361     30364     30366     30363     30361     30364     30367
     30364     30367     30370     30371     30364     30367     30370     30372
     30364     30367     30370     30373     30365     30364     30367     30368
     30365     30364     30367     30369     30365     30364     30367     30370
     30366     30364     30367     30368     30366     30364     30367     30369
     30366     30364     30367     30370     30367     30370     30373     30374
     30367     30370     30373     30375     30367     30370     30373     30376
     30368     30367     30370     30371     30368     30367     30370     30372
     30368     30367     30370     30373     30369     30367     30370     30371
     30369     30367     30370     30372     30369     30367     30370     30373
     30370     30373     30376     30377     30370     30373     30376     30378
     30370     30373     30376     30379     30371     30370     30373     30374
     30371     30370     30373     30375     30371     30370     30373     30376
     30372     30370     30373     30374     30372     30370     30373     30375
     30372     30370     30373     30376     30373     30376     30379     30380
     30373     30376     30379     30381     30374     30373     30376     30377
     30374     30373     30376     30378     30374     30373     30376     30379
     30375     30373     30376     30377     30375     30373     30376     30378
     30375     30373     30376     30379     30376     30379     30381     30382
     30376     30379     30381     30383     30377     30376     30379     30380
     30377     30376     30379     30381     30378     30376     30379     30380
     30378     30376     30379     30381     30379     30381     30383     30384
     30379     30381     30383     30385     30379     30381     30383     30386
     30380     30379     30381     30382     30380     30379     30381     30383
     30381     30383     30386     30387     30381     30383     30386     30388
     30381     30383     30386     30389     30382     30381     30383     30384
     30382     30381     30383     30385     30382     30381     30383     30386
     30383     30386     30389     30390     30383     30386     30389     30391
     30383     30386     30389     30392     30384     30383     30386     30387
     30384     30383     30386     30388     30384     30383     30386     30389
     30385     30383     30386     30387     30385     30383     30386     30388
     30385     30383     30386     30389     30386     30389     30392     30393
     30386     30389     30392     30394     30386     30389     30392     30395
     30387     30386     30389     30390     30387     30386     30389     30391
     30387     30386     30389     30392     30388     30386     30389     30390
     30388     30386     30389     30391     30388     30386     30389     30392
     30389     30392     30395     30396     30389     30392     30395     30397
     30389     30392     30395     30398     30390     30389     30392     30393
     30390     30389     30392     30394     30390     30389     30392     30395
     30391     30389     30392     30393     30391     30389     30392     30394
     30391     30389     30392     30395     30392     30395     30398     30399
     30392     30395     30398     30400     30392     30395     30398     30401
     30393     30392     30395     30396     30393     30392     30395     30397
     30393     30392     30395     30398     30394     30392     30395     30396
     30394     30392     30395     30397     30394     30392     30395     30398
     30395     30398     30401     30402     30395     30398     30401     30403
     30395     30398     30401     30404     30396     30395     30398     30399
     30396     30395     30398     30400     30396     30395     30398     30401
     30397     30395     30398     30399     30397     30395     30398     30400
     30397     30395     30398     30401     30398     30401     30404     30405
     30398     30401     30404     30406     30398     30401     30404     30407
     30399     30398     30401     30402     30399     30398     30401     30403
     30399     30398     30401     30404     30400     30398     30401     30402
     30400     30398     30401     30403     30400     30398     30401     30404
     30402     30401     30404     30405     30402     30401     30404     30406
     30402     30401     30404     30407     30403     30401     30404     30405
     30403     30401     30404     30406     30403     30401     30404     30407
     30408     30411     30414     30415     30408     30411     30414     30416
     30408     30411     30414     30417     30409     30408     30411     30412
     30409     30408     30411     30413     30409     30408     30411     30414
     30410     30408     30411     30412     30410     30408     30411     30413
     30410     30408     30411     30414     30411     30414     30417     30418
     30411     30414     30417     30419     30411     30414     30417     30420
     30412     30411     30414     30415     30412     30411     30414     30416
     30412     30411     30414     30417     30413     30411     30414     30415
     30413     30411     30414     30416     30413     30411     30414     30417
     30414     30417     30420     30421     30414     30417     30420     30422
     30414     30417     30420     30423     30415     30414     30417     30418
     30415     30414     30417     30419     30415     30414     30417     30420
     30416     30414     30417     30418     30416     30414     30417     30419
     30416     30414     30417     30420     30417     30420     30423     30424
     30417     30420     30423     30425     30417     30420     30423     30426
     30418     30417     30420     30421     30418     30417     30420     30422
     30418     30417     30420     30423     30419     30417     30420     30421
     30419     30417     30420     30422     30419     30417     30420     30423
     30420     30423     30426     30427     30420     30423     30426     30428
     30420     30423     30426     30429     30421     30420     30423     30424
     30421     30420     30423     30425     30421     30420     30423     30426
     30422     30420     30423     30424     30422     30420     30423     30425
     30422     30420     30423     30426     30423     30426     30429     30430
     30423     30426     30429     30431     30423     30426     30429     30432
     30424     30423     30426     30427     30424     30423     30426     30428
     30424     30423     30426     30429     30425     30423     30426     30427
     30425     30423     30426     30428     30425     30423     30426     30429
     30426     30429     30432     30433     30426     30429     30432     30434
     30426     30429     30432     30435     30427     30426     30429     30430
     30427     30426     30429     30431     30427     30426     30429     30432
     30428     30426     30429     30430     30428     30426     30429     30431
     30428     30426     30429     30432     30429     30432     30435     30436
     30429     30432     30435     30437     30429     30432     30435     30438
     30430     30429     30432     30433     30430     30429     30432     30434
     30430     30429     30432     30435     30431     30429     30432     30433
     30431     30429     30432     30434     30431     30429     30432     30435
     30432     30435     30438     30439     30432     30435     30438     30440
     30432     30435     30438     30441     30433     30432     30435     30436
     30433     30432     30435     30437     30433     30432     30435     30438
     30434     30432     30435     30436     30434     30432     30435     30437
     30434     30432     30435     30438     30435     30438     30441     30442
     30435     30438     30441     30443     30435     30438     30441     30444
     30436     30435     30438     30439     30436     30435     30438     30440
     30436     30435     30438     30441     30437     30435     30438     30439
     30437     30435     30438     30440     30437     30435     30438     30441
     30438     30441     30444     30445     30438     30441     30444     30446
     30438     30441     30444     30447     30439     30438     30441     30442
     30439     30438     30441     30443     30439     30438     30441     30444
     30440     30438     30441     30442     30440     30438     30441     30443
     30440     30438     30441     30444     30441     30444     30447     30448
     30441     30444     30447     30449     30441     30444     30447     30450
     30442     30441     30444     30445     30442     30441     30444     30446
     30442     30441     30444     30447     30443     30441     30444     30445
     30443     30441     30444     30446     30443     30441     30444     30447
     30445     30444     30447     30448     30445     30444     30447     30449
     30445     30444     30447     30450     30446     30444     30447     30448
     30446     30444     30447     30449     30446     30444     30447     30450
     30451     30452     30467     30468     30451     30452     30467     30469
     30451     30452     30467     30473     30452     30451     30455     30456
     30452     30451     30455     30457     30452     30451     30455     30458
     30452     30451     30459     30460     30452     30451     30459     30461
     30452     30451     30459     30462     30452     30451     30463     30464
     30452     30451     30463     30465     30452     30451     30463     30466
     30452     30467     30473     30470     30453     30452     30451     30455
     30453     30452     30451     30459     30453     30452     30451     30463
     30453     30452     30467     30468     30453     30452     30467     30469
     30453     30452     30467     30473     30454     30452     30451     30455
     30454     30452     30451     30459     30454     30452     30451     30463
     30454     30452     30467     30468     30454     30452     30467     30469
     30454     30452     30467     30473     30455     30451     30452     30467
     30455     30451     30459     30460     30455     30451     30459     30461
     30455     30451     30459     30462     30455     30451     30463     30464
     30455     30451     30463     30465     30455     30451     30463     30466
     30456     30455     30451     30459     30456     30455     30451     30463
     30457     30455     30451     30459     30457     30455     30451     30463
     30458     30455     30451     30459     30458     30455     30451     30463
     30459     30451     30452     30467     30459     30451     30463     30464
     30459     30451     30463     30465     30459     30451     30463     30466
     30460     30459     30451     30463     30461     30459     30451     30463
     30462     30459     30451     30463     30463     30451     30452     30467
     30467     30473     30470     30471     30467     30473     30470     30472
     30467     30473     30470     30474     30468     30467     30473     30470
     30469     30467     30473     30470     30470     30474     30475     30476
     30470     30474     30475     30477     30470     30474     30475     30478
     30471     30470     30474     30475     30472     30470     30474     30475
     30473     30470     30474     30475     30474     30475     30478     30479
     30474     30475     30478     30480     30474     30475     30478     30486
     30475     30478     30480     30481     30475     30478     30486     30487
     30475     30478     30486     30488     30475     30478     30486     30489
     30476     30475     30478     30479     30476     30475     30478     30480
     30476     30475     30478     30486     30477     30475     30478     30479
     30477     30475     30478     30480     30477     30475     30478     30486
     30478     30480     30481     30482     30478     30480     30481     30483
     30478     30486     30489     30490     30479     30478     30480     30481
     30479     30478     30486     30487     30479     30478     30486     30488
     30479     30478     30486     30489     30480     30478     30486     30487
     30480     30478     30486     30488     30480     30478     30486     30489
     30480     30481     30483     30484     30480     30481     30483     30485
     30480     30481     30483     30495     30481     30480     30478     30486
     30481     30483     30495     30496     30481     30483     30495     30497
     30481     30483     30495     30498     30482     30481     30483     30484
     30482     30481     30483     30485     30482     30481     30483     30495
     30483     30495     30498     30499     30483     30495     30498     30500
     30483     30495     30498     30501     30484     30483     30495     30496
     30484     30483     30495     30497     30484     30483     30495     30498
     30485     30483     30495     30496     30485     30483     30495     30497
     30485     30483     30495     30498     30486     30489     30490     30491
     30486     30489     30490     30492     30487     30486     30489     30490
     30488     30486     30489     30490     30489     30490     30492     30493
     30489     30490     30492     30494     30489     30490     30492     30542
     30490     30492     30542     30543     30490     30492     30542     30544
     30490     30492     30542     30545     30491     30490     30492     30493
     30491     30490     30492     30494     30491     30490     30492     30542
     30492     30542     30545     30546     30492     30542     30545     30547
     30492     30542     30545     30548     30493     30492     30542     30543
     30493     30492     30542     30544     30493     30492     30542     30545
     30494     30492     30542     30543     30494     30492     30542     30544
     30494     30492     30542     30545     30495     30498     30501     30502
     30495     30498     30501     30503     30495     30498     30501     30504
     30496     30495     30498     30499     30496     30495     30498     30500
     30496     30495     30498     30501     30497     30495     30498     30499
     30497     30495     30498     30500     30497     30495     30498     30501
     30498     30501     30504     30505     30498     30501     30504     30506
     30498     30501     30504     30507     30499     30498     30501     30502
     30499     30498     30501     30503     30499     30498     30501     30504
     30500     30498     30501     30502     30500     30498     30501     30503
     30500     30498     30501     30504     30501     30504     30507     30508
     30501     30504     30507     30509     30501     30504     30507     30510
     30502     30501     30504     30505     30502     30501     30504     30506
     30502     30501     30504     30507     30503     30501     30504     30505
     30503     30501     30504     30506     30503     30501     30504     30507
     30504     30507     30510     30511     30504     30507     30510     30512
     30504     30507     30510     30513     30505     30504     30507     30508
     30505     30504     30507     30509     30505     30504     30507     30510
     30506     30504     30507     30508     30506     30504     30507     30509
     30506     30504     30507     30510     30507     30510     30513     30514
     30507     30510     30513     30515     30508     30507     30510     30511
     30508     30507     30510     30512     30508     30507     30510     30513
     30509     30507     30510     30511     30509     30507     30510     30512
     30509     30507     30510     30513     30510     30513     30515     30516
     30510     30513     30515     30517     30511     30510     30513     30514
     30511     30510     30513     30515     30512     30510     30513     30514
     30512     30510     30513     30515     30513     30515     30517     30518
     30513     30515     30517     30519     30513     30515     30517     30520
     30514     30513     30515     30516     30514     30513     30515     30517
     30515     30517     30520     30521     30515     30517     30520     30522
     30515     30517     30520     30523     30516     30515     30517     30518
     30516     30515     30517     30519     30516     30515     30517     30520
     30517     30520     30523     30524     30517     30520     30523     30525
     30517     30520     30523     30526     30518     30517     30520     30521
     30518     30517     30520     30522     30518     30517     30520     30523
     30519     30517     30520     30521     30519     30517     30520     30522
     30519     30517     30520     30523     30520     30523     30526     30527
     30520     30523     30526     30528     30520     30523     30526     30529
     30521     30520     30523     30524     30521     30520     30523     30525
     30521     30520     30523     30526     30522     30520     30523     30524
     30522     30520     30523     30525     30522     30520     30523     30526
     30523     30526     30529     30530     30523     30526     30529     30531
     30523     30526     30529     30532     30524     30523     30526     30527
     30524     30523     30526     30528     30524     30523     30526     30529
     30525     30523     30526     30527     30525     30523     30526     30528
     30525     30523     30526     30529     30526     30529     30532     30533
     30526     30529     30532     30534     30526     30529     30532     30535
     30527     30526     30529     30530     30527     30526     30529     30531
     30527     30526     30529     30532     30528     30526     30529     30530
     30528     30526     30529     30531     30528     30526     30529     30532
     30529     30532     30535     30536     30529     30532     30535     30537
     30529     30532     30535     30538     30530     30529     30532     30533
     30530     30529     30532     30534     30530     30529     30532     30535
     30531     30529     30532     30533     30531     30529     30532     30534
     30531     30529     30532     30535     30532     30535     30538     30539
     30532     30535     30538     30540     30532     30535     30538     30541
     30533     30532     30535     30536     30533     30532     30535     30537
     30533     30532     30535     30538     30534     30532     30535     30536
     30534     30532     30535     30537     30534     30532     30535     30538
     30536     30535     30538     30539     30536     30535     30538     30540
     30536     30535     30538     30541     30537     30535     30538     30539
     30537     30535     30538     30540     30537     30535     30538     30541
     30542     30545     30548     30549     30542     30545     30548     30550
     30542     30545     30548     30551     30543     30542     30545     30546
     30543     30542     30545     30547     30543     30542     30545     30548
     30544     30542     30545     30546     30544     30542     30545     30547
     30544     30542     30545     30548     30545     30548     30551     30552
     30545     30548     30551     30553     30545     30548     30551     30554
     30546     30545     30548     30549     30546     30545     30548     30550
     30546     30545     30548     30551     30547     30545     30548     30549
     30547     30545     30548     30550     30547     30545     30548     30551
     30548     30551     30554     30555     30548     30551     30554     30556
     30548     30551     30554     30557     30549     30548     30551     30552
     30549     30548     30551     30553     30549     30548     30551     30554
     30550     30548     30551     30552     30550     30548     30551     30553
     30550     30548     30551     30554     30551     30554     30557     30558
     30551     30554     30557     30559     30551     30554     30557     30560
     30552     30551     30554     30555     30552     30551     30554     30556
     30552     30551     30554     30557     30553     30551     30554     30555
     30553     30551     30554     30556     30553     30551     30554     30557
     30554     30557     30560     30561     30554     30557     30560     30562
     30554     30557     30560     30563     30555     30554     30557     30558
     30555     30554     30557     30559     30555     30554     30557     30560
     30556     30554     30557     30558     30556     30554     30557     30559
     30556     30554     30557     30560     30557     30560     30563     30564
     30557     30560     30563     30565     30557     30560     30563     30566
     30558     30557     30560     30561     30558     30557     30560     30562
     30558     30557     30560     30563     30559     30557     30560     30561
     30559     30557     30560     30562     30559     30557     30560     30563
     30560     30563     30566     30567     30560     30563     30566     30568
     30560     30563     30566     30569     30561     30560     30563     30564
     30561     30560     30563     30565     30561     30560     30563     30566
     30562     30560     30563     30564     30562     30560     30563     30565
     30562     30560     30563     30566     30563     30566     30569     30570
     30563     30566     30569     30571     30563     30566     30569     30572
     30564     30563     30566     30567     30564     30563     30566     30568
     30564     30563     30566     30569     30565     30563     30566     30567
     30565     30563     30566     30568     30565     30563     30566     30569
     30566     30569     30572     30573     30566     30569     30572     30574
     30566     30569     30572     30575     30567     30566     30569     30570
     30567     30566     30569     30571     30567     30566     30569     30572
     30568     30566     30569     30570     30568     30566     30569     30571
     30568     30566     30569     30572     30569     30572     30575     30576
     30569     30572     30575     30577     30569     30572     30575     30578
     30570     30569     30572     30573     30570     30569     30572     30574
     30570     30569     30572     30575     30571     30569     30572     30573
     30571     30569     30572     30574     30571     30569     30572     30575
     30572     30575     30578     30579     30572     30575     30578     30580
     30572     30575     30578     30581     30573     30572     30575     30576
     30573     30572     30575     30577     30573     30572     30575     30578
     30574     30572     30575     30576     30574     30572     30575     30577
     30574     30572     30575     30578     30575     30578     30581     30582
     30575     30578     30581     30583     30575     30578     30581     30584
     30576     30575     30578     30579     30576     30575     30578     30580
     30576     30575     30578     30581     30577     30575     30578     30579
     30577     30575     30578     30580     30577     30575     30578     30581
     30579     30578     30581     30582     30579     30578     30581     30583
     30579     30578     30581     30584     30580     30578     30581     30582
     30580     30578     30581     30583     30580     30578     30581     30584
     30585     30586     30601     30602     30585     30586     30601     30603
     30585     30586     30601     30607     30586     30585     30589     30590
     30586     30585     30589     30591     30586     30585     30589     30592
     30586     30585     30593     30594     30586     30585     30593     30595
     30586     30585     30593     30596     30586     30585     30597     30598
     30586     30585     30597     30599     30586     30585     30597     30600
     30586     30601     30607     30604     30587     30586     30585     30589
     30587     30586     30585     30593     30587     30586     30585     30597
     30587     30586     30601     30602     30587     30586     30601     30603
     30587     30586     30601     30607     30588     30586     30585     30589
     30588     30586     30585     30593     30588     30586     30585     30597
     30588     30586     30601     30602     30588     30586     30601     30603
     30588     30586     30601     30607     30589     30585     30586     30601
     30589     30585     30593     30594     30589     30585     30593     30595
     30589     30585     30593     30596     30589     30585     30597     30598
     30589     30585     30597     30599     30589     30585     30597     30600
     30590     30589     30585     30593     30590     30589     30585     30597
     30591     30589     30585     30593     30591     30589     30585     30597
     30592     30589     30585     30593     30592     30589     30585     30597
     30593     30585     30586     30601     30593     30585     30597     30598
     30593     30585     30597     30599     30593     30585     30597     30600
     30594     30593     30585     30597     30595     30593     30585     30597
     30596     30593     30585     30597     30597     30585     30586     30601
     30601     30607     30604     30605     30601     30607     30604     30606
     30601     30607     30604     30608     30602     30601     30607     30604
     30603     30601     30607     30604     30604     30608     30609     30610
     30604     30608     30609     30611     30604     30608     30609     30612
     30605     30604     30608     30609     30606     30604     30608     30609
     30607     30604     30608     30609     30608     30609     30612     30613
     30608     30609     30612     30614     30608     30609     30612     30620
     30609     30612     30614     30615     30609     30612     30620     30621
     30609     30612     30620     30622     30609     30612     30620     30623
     30610     30609     30612     30613     30610     30609     30612     30614
     30610     30609     30612     30620     30611     30609     30612     30613
     30611     30609     30612     30614     30611     30609     30612     30620
     30612     30614     30615     30616     30612     30614     30615     30617
     30612     30620     30623     30624     30613     30612     30614     30615
     30613     30612     30620     30621     30613     30612     30620     30622
     30613     30612     30620     30623     30614     30612     30620     30621
     30614     30612     30620     30622     30614     30612     30620     30623
     30614     30615     30617     30618     30614     30615     30617     30619
     30614     30615     30617     30629     30615     30614     30612     30620
     30615     30617     30629     30630     30615     30617     30629     30631
     30615     30617     30629     30632     30616     30615     30617     30618
     30616     30615     30617     30619     30616     30615     30617     30629
     30617     30629     30632     30633     30617     30629     30632     30634
     30617     30629     30632     30635     30618     30617     30629     30630
     30618     30617     30629     30631     30618     30617     30629     30632
     30619     30617     30629     30630     30619     30617     30629     30631
     30619     30617     30629     30632     30620     30623     30624     30625
     30620     30623     30624     30626     30621     30620     30623     30624
     30622     30620     30623     30624     30623     30624     30626     30627
     30623     30624     30626     30628     30623     30624     30626     30676
     30624     30626     30676     30677     30624     30626     30676     30678
     30624     30626     30676     30679     30625     30624     30626     30627
     30625     30624     30626     30628     30625     30624     30626     30676
     30626     30676     30679     30680     30626     30676     30679     30681
     30626     30676     30679     30682     30627     30626     30676     30677
     30627     30626     30676     30678     30627     30626     30676     30679
     30628     30626     30676     30677     30628     30626     30676     30678
     30628     30626     30676     30679     30629     30632     30635     30636
     30629     30632     30635     30637     30629     30632     30635     30638
     30630     30629     30632     30633     30630     30629     30632     30634
     30630     30629     30632     30635     30631     30629     30632     30633
     30631     30629     30632     30634     30631     30629     30632     30635
     30632     30635     30638     30639     30632     30635     30638     30640
     30632     30635     30638     30641     30633     30632     30635     30636
     30633     30632     30635     30637     30633     30632     30635     30638
     30634     30632     30635     30636     30634     30632     30635     30637
     30634     30632     30635     30638     30635     30638     30641     30642
     30635     30638     30641     30643     30635     30638     30641     30644
     30636     30635     30638     30639     30636     30635     30638     30640
     30636     30635     30638     30641     30637     30635     30638     30639
     30637     30635     30638     30640     30637     30635     30638     30641
     30638     30641     30644     30645     30638     30641     30644     30646
     30638     30641     30644     30647     30639     30638     30641     30642
     30639     30638     30641     30643     30639     30638     30641     30644
     30640     30638     30641     30642     30640     30638     30641     30643
     30640     30638     30641     30644     30641     30644     30647     30648
     30641     30644     30647     30649     30642     30641     30644     30645
     30642     30641     30644     30646     30642     30641     30644     30647
     30643     30641     30644     30645     30643     30641     30644     30646
     30643     30641     30644     30647     30644     30647     30649     30650
     30644     30647     30649     30651     30645     30644     30647     30648
     30645     30644     30647     30649     30646     30644     30647     30648
     30646     30644     30647     30649     30647     30649     30651     30652
     30647     30649     30651     30653     30647     30649     30651     30654
     30648     30647     30649     30650     30648     30647     30649     30651
     30649     30651     30654     30655     30649     30651     30654     30656
     30649     30651     30654     30657     30650     30649     30651     30652
     30650     30649     30651     30653     30650     30649     30651     30654
     30651     30654     30657     30658     30651     30654     30657     30659
     30651     30654     30657     30660     30652     30651     30654     30655
     30652     30651     30654     30656     30652     30651     30654     30657
     30653     30651     30654     30655     30653     30651     30654     30656
     30653     30651     30654     30657     30654     30657     30660     30661
     30654     30657     30660     30662     30654     30657     30660     30663
     30655     30654     30657     30658     30655     30654     30657     30659
     30655     30654     30657     30660     30656     30654     30657     30658
     30656     30654     30657     30659     30656     30654     30657     30660
     30657     30660     30663     30664     30657     30660     30663     30665
     30657     30660     30663     30666     30658     30657     30660     30661
     30658     30657     30660     30662     30658     30657     30660     30663
     30659     30657     30660     30661     30659     30657     30660     30662
     30659     30657     30660     30663     30660     30663     30666     30667
     30660     30663     30666     30668     30660     30663     30666     30669
     30661     30660     30663     30664     30661     30660     30663     30665
     30661     30660     30663     30666     30662     30660     30663     30664
     30662     30660     30663     30665     30662     30660     30663     30666
     30663     30666     30669     30670     30663     30666     30669     30671
     30663     30666     30669     30672     30664     30663     30666     30667
     30664     30663     30666     30668     30664     30663     30666     30669
     30665     30663     30666     30667     30665     30663     30666     30668
     30665     30663     30666     30669     30666     30669     30672     30673
     30666     30669     30672     30674     30666     30669     30672     30675
     30667     30666     30669     30670     30667     30666     30669     30671
     30667     30666     30669     30672     30668     30666     30669     30670
     30668     30666     30669     30671     30668     30666     30669     30672
     30670     30669     30672     30673     30670     30669     30672     30674
     30670     30669     30672     30675     30671     30669     30672     30673
     30671     30669     30672     30674     30671     30669     30672     30675
     30676     30679     30682     30683     30676     30679     30682     30684
     30676     30679     30682     30685     30677     30676     30679     30680
     30677     30676     30679     30681     30677     30676     30679     30682
     30678     30676     30679     30680     30678     30676     30679     30681
     30678     30676     30679     30682     30679     30682     30685     30686
     30679     30682     30685     30687     30679     30682     30685     30688
     30680     30679     30682     30683     30680     30679     30682     30684
     30680     30679     30682     30685     30681     30679     30682     30683
     30681     30679     30682     30684     30681     30679     30682     30685
     30682     30685     30688     30689     30682     30685     30688     30690
     30682     30685     30688     30691     30683     30682     30685     30686
     30683     30682     30685     30687     30683     30682     30685     30688
     30684     30682     30685     30686     30684     30682     30685     30687
     30684     30682     30685     30688     30685     30688     30691     30692
     30685     30688     30691     30693     30685     30688     30691     30694
     30686     30685     30688     30689     30686     30685     30688     30690
     30686     30685     30688     30691     30687     30685     30688     30689
     30687     30685     30688     30690     30687     30685     30688     30691
     30688     30691     30694     30695     30688     30691     30694     30696
     30688     30691     30694     30697     30689     30688     30691     30692
     30689     30688     30691     30693     30689     30688     30691     30694
     30690     30688     30691     30692     30690     30688     30691     30693
     30690     30688     30691     30694     30691     30694     30697     30698
     30691     30694     30697     30699     30691     30694     30697     30700
     30692     30691     30694     30695     30692     30691     30694     30696
     30692     30691     30694     30697     30693     30691     30694     30695
     30693     30691     30694     30696     30693     30691     30694     30697
     30694     30697     30700     30701     30694     30697     30700     30702
     30694     30697     30700     30703     30695     30694     30697     30698
     30695     30694     30697     30699     30695     30694     30697     30700
     30696     30694     30697     30698     30696     30694     30697     30699
     30696     30694     30697     30700     30697     30700     30703     30704
     30697     30700     30703     30705     30697     30700     30703     30706
     30698     30697     30700     30701     30698     30697     30700     30702
     30698     30697     30700     30703     30699     30697     30700     30701
     30699     30697     30700     30702     30699     30697     30700     30703
     30700     30703     30706     30707     30700     30703     30706     30708
     30700     30703     30706     30709     30701     30700     30703     30704
     30701     30700     30703     30705     30701     30700     30703     30706
     30702     30700     30703     30704     30702     30700     30703     30705
     30702     30700     30703     30706     30703     30706     30709     30710
     30703     30706     30709     30711     30703     30706     30709     30712
     30704     30703     30706     30707     30704     30703     30706     30708
     30704     30703     30706     30709     30705     30703     30706     30707
     30705     30703     30706     30708     30705     30703     30706     30709
     30706     30709     30712     30713     30706     30709     30712     30714
     30706     30709     30712     30715     30707     30706     30709     30710
     30707     30706     30709     30711     30707     30706     30709     30712
     30708     30706     30709     30710     30708     30706     30709     30711
     30708     30706     30709     30712     30709     30712     30715     30716
     30709     30712     30715     30717     30709     30712     30715     30718
     30710     30709     30712     30713     30710     30709     30712     30714
     30710     30709     30712     30715     30711     30709     30712     30713
     30711     30709     30712     30714     30711     30709     30712     30715
     30713     30712     30715     30716     30713     30712     30715     30717
     30713     30712     30715     30718     30714     30712     30715     30716
     30714     30712     30715     30717     30714     30712     30715     30718
     30719     30720     30735     30736     30719     30720     30735     30737
     30719     30720     30735     30741     30720     30719     30723     30724
     30720     30719     30723     30725     30720     30719     30723     30726
     30720     30719     30727     30728     30720     30719     30727     30729
     30720     30719     30727     30730     30720     30719     30731     30732
     30720     30719     30731     30733     30720     30719     30731     30734
     30720     30735     30741     30738     30721     30720     30719     30723
     30721     30720     30719     30727     30721     30720     30719     30731
     30721     30720     30735     30736     30721     30720     30735     30737
     30721     30720     30735     30741     30722     30720     30719     30723
     30722     30720     30719     30727     30722     30720     30719     30731
     30722     30720     30735     30736     30722     30720     30735     30737
     30722     30720     30735     30741     30723     30719     30720     30735
     30723     30719     30727     30728     30723     30719     30727     30729
     30723     30719     30727     30730     30723     30719     30731     30732
     30723     30719     30731     30733     30723     30719     30731     30734
     30724     30723     30719     30727     30724     30723     30719     30731
     30725     30723     30719     30727     30725     30723     30719     30731
     30726     30723     30719     30727     30726     30723     30719     30731
     30727     30719     30720     30735     30727     30719     30731     30732
     30727     30719     30731     30733     30727     30719     30731     30734
     30728     30727     30719     30731     30729     30727     30719     30731
     30730     30727     30719     30731     30731     30719     30720     30735
     30735     30741     30738     30739     30735     30741     30738     30740
     30735     30741     30738     30742     30736     30735     30741     30738
     30737     30735     30741     30738     30738     30742     30743     30744
     30738     30742     30743     30745     30738     30742     30743     30746
     30739     30738     30742     30743     30740     30738     30742     30743
     30741     30738     30742     30743     30742     30743     30746     30747
     30742     30743     30746     30748     30742     30743     30746     30754
     30743     30746     30748     30749     30743     30746     30754     30755
     30743     30746     30754     30756     30743     30746     30754     30757
     30744     30743     30746     30747     30744     30743     30746     30748
     30744     30743     30746     30754     30745     30743     30746     30747
     30745     30743     30746     30748     30745     30743     30746     30754
     30746     30748     30749     30750     30746     30748     30749     30751
     30746     30754     30757     30758     30747     30746     30748     30749
     30747     30746     30754     30755     30747     30746     30754     30756
     30747     30746     30754     30757     30748     30746     30754     30755
     30748     30746     30754     30756     30748     30746     30754     30757
     30748     30749     30751     30752     30748     30749     30751     30753
     30748     30749     30751     30763     30749     30748     30746     30754
     30749     30751     30763     30764     30749     30751     30763     30765
     30749     30751     30763     30766     30750     30749     30751     30752
     30750     30749     30751     30753     30750     30749     30751     30763
     30751     30763     30766     30767     30751     30763     30766     30768
     30751     30763     30766     30769     30752     30751     30763     30764
     30752     30751     30763     30765     30752     30751     30763     30766
     30753     30751     30763     30764     30753     30751     30763     30765
     30753     30751     30763     30766     30754     30757     30758     30759
     30754     30757     30758     30760     30755     30754     30757     30758
     30756     30754     30757     30758     30757     30758     30760     30761
     30757     30758     30760     30762     30757     30758     30760     30810
     30758     30760     30810     30811     30758     30760     30810     30812
     30758     30760     30810     30813     30759     30758     30760     30761
     30759     30758     30760     30762     30759     30758     30760     30810
     30760     30810     30813     30814     30760     30810     30813     30815
     30760     30810     30813     30816     30761     30760     30810     30811
     30761     30760     30810     30812     30761     30760     30810     30813
     30762     30760     30810     30811     30762     30760     30810     30812
     30762     30760     30810     30813     30763     30766     30769     30770
     30763     30766     30769     30771     30763     30766     30769     30772
     30764     30763     30766     30767     30764     30763     30766     30768
     30764     30763     30766     30769     30765     30763     30766     30767
     30765     30763     30766     30768     30765     30763     30766     30769
     30766     30769     30772     30773     30766     30769     30772     30774
     30766     30769     30772     30775     30767     30766     30769     30770
     30767     30766     30769     30771     30767     30766     30769     30772
     30768     30766     30769     30770     30768     30766     30769     30771
     30768     30766     30769     30772     30769     30772     30775     30776
     30769     30772     30775     30777     30769     30772     30775     30778
     30770     30769     30772     30773     30770     30769     30772     30774
     30770     30769     30772     30775     30771     30769     30772     30773
     30771     30769     30772     30774     30771     30769     30772     30775
     30772     30775     30778     30779     30772     30775     30778     30780
     30772     30775     30778     30781     30773     30772     30775     30776
     30773     30772     30775     30777     30773     30772     30775     30778
     30774     30772     30775     30776     30774     30772     30775     30777
     30774     30772     30775     30778     30775     30778     30781     30782
     30775     30778     30781     30783     30776     30775     30778     30779
     30776     30775     30778     30780     30776     30775     30778     30781
     30777     30775     30778     30779     30777     30775     30778     30780
     30777     30775     30778     30781     30778     30781     30783     30784
     30778     30781     30783     30785     30779     30778     30781     30782
     30779     30778     30781     30783     30780     30778     30781     30782
     30780     30778     30781     30783     30781     30783     30785     30786
     30781     30783     30785     30787     30781     30783     30785     30788
     30782     30781     30783     30784     30782     30781     30783     30785
     30783     30785     30788     30789     30783     30785     30788     30790
     30783     30785     30788     30791     30784     30783     30785     30786
     30784     30783     30785     30787     30784     30783     30785     30788
     30785     30788     30791     30792     30785     30788     30791     30793
     30785     30788     30791     30794     30786     30785     30788     30789
     30786     30785     30788     30790     30786     30785     30788     30791
     30787     30785     30788     30789     30787     30785     30788     30790
     30787     30785     30788     30791     30788     30791     30794     30795
     30788     30791     30794     30796     30788     30791     30794     30797
     30789     30788     30791     30792     30789     30788     30791     30793
     30789     30788     30791     30794     30790     30788     30791     30792
     30790     30788     30791     30793     30790     30788     30791     30794
     30791     30794     30797     30798     30791     30794     30797     30799
     30791     30794     30797     30800     30792     30791     30794     30795
     30792     30791     30794     30796     30792     30791     30794     30797
     30793     30791     30794     30795     30793     30791     30794     30796
     30793     30791     30794     30797     30794     30797     30800     30801
     30794     30797     30800     30802     30794     30797     30800     30803
     30795     30794     30797     30798     30795     30794     30797     30799
     30795     30794     30797     30800     30796     30794     30797     30798
     30796     30794     30797     30799     30796     30794     30797     30800
     30797     30800     30803     30804     30797     30800     30803     30805
     30797     30800     30803     30806     30798     30797     30800     30801
     30798     30797     30800     30802     30798     30797     30800     30803
     30799     30797     30800     30801     30799     30797     30800     30802
     30799     30797     30800     30803     30800     30803     30806     30807
     30800     30803     30806     30808     30800     30803     30806     30809
     30801     30800     30803     30804     30801     30800     30803     30805
     30801     30800     30803     30806     30802     30800     30803     30804
     30802     30800     30803     30805     30802     30800     30803     30806
     30804     30803     30806     30807     30804     30803     30806     30808
     30804     30803     30806     30809     30805     30803     30806     30807
     30805     30803     30806     30808     30805     30803     30806     30809
     30810     30813     30816     30817     30810     30813     30816     30818
     30810     30813     30816     30819     30811     30810     30813     30814
     30811     30810     30813     30815     30811     30810     30813     30816
     30812     30810     30813     30814     30812     30810     30813     30815
     30812     30810     30813     30816     30813     30816     30819     30820
     30813     30816     30819     30821     30813     30816     30819     30822
     30814     30813     30816     30817     30814     30813     30816     30818
     30814     30813     30816     30819     30815     30813     30816     30817
     30815     30813     30816     30818     30815     30813     30816     30819
     30816     30819     30822     30823     30816     30819     30822     30824
     30816     30819     30822     30825     30817     30816     30819     30820
     30817     30816     30819     30821     30817     30816     30819     30822
     30818     30816     30819     30820     30818     30816     30819     30821
     30818     30816     30819     30822     30819     30822     30825     30826
     30819     30822     30825     30827     30819     30822     30825     30828
     30820     30819     30822     30823     30820     30819     30822     30824
     30820     30819     30822     30825     30821     30819     30822     30823
     30821     30819     30822     30824     30821     30819     30822     30825
     30822     30825     30828     30829     30822     30825     30828     30830
     30822     30825     30828     30831     30823     30822     30825     30826
     30823     30822     30825     30827     30823     30822     30825     30828
     30824     30822     30825     30826     30824     30822     30825     30827
     30824     30822     30825     30828     30825     30828     30831     30832
     30825     30828     30831     30833     30825     30828     30831     30834
     30826     30825     30828     30829     30826     30825     30828     30830
     30826     30825     30828     30831     30827     30825     30828     30829
     30827     30825     30828     30830     30827     30825     30828     30831
     30828     30831     30834     30835     30828     30831     30834     30836
     30828     30831     30834     30837     30829     30828     30831     30832
     30829     30828     30831     30833     30829     30828     30831     30834
     30830     30828     30831     30832     30830     30828     30831     30833
     30830     30828     30831     30834     30831     30834     30837     30838
     30831     30834     30837     30839     30831     30834     30837     30840
     30832     30831     30834     30835     30832     30831     30834     30836
     30832     30831     30834     30837     30833     30831     30834     30835
     30833     30831     30834     30836     30833     30831     30834     30837
     30834     30837     30840     30841     30834     30837     30840     30842
     30834     30837     30840     30843     30835     30834     30837     30838
     30835     30834     30837     30839     30835     30834     30837     30840
     30836     30834     30837     30838     30836     30834     30837     30839
     30836     30834     30837     30840     30837     30840     30843     30844
     30837     30840     30843     30845     30837     30840     30843     30846
     30838     30837     30840     30841     30838     30837     30840     30842
     30838     30837     30840     30843     30839     30837     30840     30841
     30839     30837     30840     30842     30839     30837     30840     30843
     30840     30843     30846     30847     30840     30843     30846     30848
     30840     30843     30846     30849     30841     30840     30843     30844
     30841     30840     30843     30845     30841     30840     30843     30846
     30842     30840     30843     30844     30842     30840     30843     30845
     30842     30840     30843     30846     30843     30846     30849     30850
     30843     30846     30849     30851     30843     30846     30849     30852
     30844     30843     30846     30847     30844     30843     30846     30848
     30844     30843     30846     30849     30845     30843     30846     30847
     30845     30843     30846     30848     30845     30843     30846     30849
     30847     30846     30849     30850     30847     30846     30849     30851
     30847     30846     30849     30852     30848     30846     30849     30850
     30848     30846     30849     30851     30848     30846     30849     30852
     30853     30854     30869     30870     30853     30854     30869     30871
     30853     30854     30869     30875     30854     30853     30857     30858
     30854     30853     30857     30859     30854     30853     30857     30860
     30854     30853     30861     30862     30854     30853     30861     30863
     30854     30853     30861     30864     30854     30853     30865     30866
     30854     30853     30865     30867     30854     30853     30865     30868
     30854     30869     30875     30872     30855     30854     30853     30857
     30855     30854     30853     30861     30855     30854     30853     30865
     30855     30854     30869     30870     30855     30854     30869     30871
     30855     30854     30869     30875     30856     30854     30853     30857
     30856     30854     30853     30861     30856     30854     30853     30865
     30856     30854     30869     30870     30856     30854     30869     30871
     30856     30854     30869     30875     30857     30853     30854     30869
     30857     30853     30861     30862     30857     30853     30861     30863
     30857     30853     30861     30864     30857     30853     30865     30866
     30857     30853     30865     30867     30857     30853     30865     30868
     30858     30857     30853     30861     30858     30857     30853     30865
     30859     30857     30853     30861     30859     30857     30853     30865
     30860     30857     30853     30861     30860     30857     30853     30865
     30861     30853     30854     30869     30861     30853     30865     30866
     30861     30853     30865     30867     30861     30853     30865     30868
     30862     30861     30853     30865     30863     30861     30853     30865
     30864     30861     30853     30865     30865     30853     30854     30869
     30869     30875     30872     30873     30869     30875     30872     30874
     30869     30875     30872     30876     30870     30869     30875     30872
     30871     30869     30875     30872     30872     30876     30877     30878
     30872     30876     30877     30879     30872     30876     30877     30880
     30873     30872     30876     30877     30874     30872     30876     30877
     30875     30872     30876     30877     30876     30877     30880     30881
     30876     30877     30880     30882     30876     30877     30880     30888
     30877     30880     30882     30883     30877     30880     30888     30889
     30877     30880     30888     30890     30877     30880     30888     30891
     30878     30877     30880     30881     30878     30877     30880     30882
     30878     30877     30880     30888     30879     30877     30880     30881
     30879     30877     30880     30882     30879     30877     30880     30888
     30880     30882     30883     30884     30880     30882     30883     30885
     30880     30888     30891     30892     30881     30880     30882     30883
     30881     30880     30888     30889     30881     30880     30888     30890
     30881     30880     30888     30891     30882     30880     30888     30889
     30882     30880     30888     30890     30882     30880     30888     30891
     30882     30883     30885     30886     30882     30883     30885     30887
     30882     30883     30885     30897     30883     30882     30880     30888
     30883     30885     30897     30898     30883     30885     30897     30899
     30883     30885     30897     30900     30884     30883     30885     30886
     30884     30883     30885     30887     30884     30883     30885     30897
     30885     30897     30900     30901     30885     30897     30900     30902
     30885     30897     30900     30903     30886     30885     30897     30898
     30886     30885     30897     30899     30886     30885     30897     30900
     30887     30885     30897     30898     30887     30885     30897     30899
     30887     30885     30897     30900     30888     30891     30892     30893
     30888     30891     30892     30894     30889     30888     30891     30892
     30890     30888     30891     30892     30891     30892     30894     30895
     30891     30892     30894     30896     30891     30892     30894     30944
     30892     30894     30944     30945     30892     30894     30944     30946
     30892     30894     30944     30947     30893     30892     30894     30895
     30893     30892     30894     30896     30893     30892     30894     30944
     30894     30944     30947     30948     30894     30944     30947     30949
     30894     30944     30947     30950     30895     30894     30944     30945
     30895     30894     30944     30946     30895     30894     30944     30947
     30896     30894     30944     30945     30896     30894     30944     30946
     30896     30894     30944     30947     30897     30900     30903     30904
     30897     30900     30903     30905     30897     30900     30903     30906
     30898     30897     30900     30901     30898     30897     30900     30902
     30898     30897     30900     30903     30899     30897     30900     30901
     30899     30897     30900     30902     30899     30897     30900     30903
     30900     30903     30906     30907     30900     30903     30906     30908
     30900     30903     30906     30909     30901     30900     30903     30904
     30901     30900     30903     30905     30901     30900     30903     30906
     30902     30900     30903     30904     30902     30900     30903     30905
     30902     30900     30903     30906     30903     30906     30909     30910
     30903     30906     30909     30911     30903     30906     30909     30912
     30904     30903     30906     30907     30904     30903     30906     30908
     30904     30903     30906     30909     30905     30903     30906     30907
     30905     30903     30906     30908     30905     30903     30906     30909
     30906     30909     30912     30913     30906     30909     30912     30914
     30906     30909     30912     30915     30907     30906     30909     30910
     30907     30906     30909     30911     30907     30906     30909     30912
     30908     30906     30909     30910     30908     30906     30909     30911
     30908     30906     30909     30912     30909     30912     30915     30916
     30909     30912     30915     30917     30910     30909     30912     30913
     30910     30909     30912     30914     30910     30909     30912     30915
     30911     30909     30912     30913     30911     30909     30912     30914
     30911     30909     30912     30915     30912     30915     30917     30918
     30912     30915     30917     30919     30913     30912     30915     30916
     30913     30912     30915     30917     30914     30912     30915     30916
     30914     30912     30915     30917     30915     30917     30919     30920
     30915     30917     30919     30921     30915     30917     30919     30922
     30916     30915     30917     30918     30916     30915     30917     30919
     30917     30919     30922     30923     30917     30919     30922     30924
     30917     30919     30922     30925     30918     30917     30919     30920
     30918     30917     30919     30921     30918     30917     30919     30922
     30919     30922     30925     30926     30919     30922     30925     30927
     30919     30922     30925     30928     30920     30919     30922     30923
     30920     30919     30922     30924     30920     30919     30922     30925
     30921     30919     30922     30923     30921     30919     30922     30924
     30921     30919     30922     30925     30922     30925     30928     30929
     30922     30925     30928     30930     30922     30925     30928     30931
     30923     30922     30925     30926     30923     30922     30925     30927
     30923     30922     30925     30928     30924     30922     30925     30926
     30924     30922     30925     30927     30924     30922     30925     30928
     30925     30928     30931     30932     30925     30928     30931     30933
     30925     30928     30931     30934     30926     30925     30928     30929
     30926     30925     30928     30930     30926     30925     30928     30931
     30927     30925     30928     30929     30927     30925     30928     30930
     30927     30925     30928     30931     30928     30931     30934     30935
     30928     30931     30934     30936     30928     30931     30934     30937
     30929     30928     30931     30932     30929     30928     30931     30933
     30929     30928     30931     30934     30930     30928     30931     30932
     30930     30928     30931     30933     30930     30928     30931     30934
     30931     30934     30937     30938     30931     30934     30937     30939
     30931     30934     30937     30940     30932     30931     30934     30935
     30932     30931     30934     30936     30932     30931     30934     30937
     30933     30931     30934     30935     30933     30931     30934     30936
     30933     30931     30934     30937     30934     30937     30940     30941
     30934     30937     30940     30942     30934     30937     30940     30943
     30935     30934     30937     30938     30935     30934     30937     30939
     30935     30934     30937     30940     30936     30934     30937     30938
     30936     30934     30937     30939     30936     30934     30937     30940
     30938     30937     30940     30941     30938     30937     30940     30942
     30938     30937     30940     30943     30939     30937     30940     30941
     30939     30937     30940     30942     30939     30937     30940     30943
     30944     30947     30950     30951     30944     30947     30950     30952
     30944     30947     30950     30953     30945     30944     30947     30948
     30945     30944     30947     30949     30945     30944     30947     30950
     30946     30944     30947     30948     30946     30944     30947     30949
     30946     30944     30947     30950     30947     30950     30953     30954
     30947     30950     30953     30955     30947     30950     30953     30956
     30948     30947     30950     30951     30948     30947     30950     30952
     30948     30947     30950     30953     30949     30947     30950     30951
     30949     30947     30950     30952     30949     30947     30950     30953
     30950     30953     30956     30957     30950     30953     30956     30958
     30950     30953     30956     30959     30951     30950     30953     30954
     30951     30950     30953     30955     30951     30950     30953     30956
     30952     30950     30953     30954     30952     30950     30953     30955
     30952     30950     30953     30956     30953     30956     30959     30960
     30953     30956     30959     30961     30953     30956     30959     30962
     30954     30953     30956     30957     30954     30953     30956     30958
     30954     30953     30956     30959     30955     30953     30956     30957
     30955     30953     30956     30958     30955     30953     30956     30959
     30956     30959     30962     30963     30956     30959     30962     30964
     30956     30959     30962     30965     30957     30956     30959     30960
     30957     30956     30959     30961     30957     30956     30959     30962
     30958     30956     30959     30960     30958     30956     30959     30961
     30958     30956     30959     30962     30959     30962     30965     30966
     30959     30962     30965     30967     30959     30962     30965     30968
     30960     30959     30962     30963     30960     30959     30962     30964
     30960     30959     30962     30965     30961     30959     30962     30963
     30961     30959     30962     30964     30961     30959     30962     30965
     30962     30965     30968     30969     30962     30965     30968     30970
     30962     30965     30968     30971     30963     30962     30965     30966
     30963     30962     30965     30967     30963     30962     30965     30968
     30964     30962     30965     30966     30964     30962     30965     30967
     30964     30962     30965     30968     30965     30968     30971     30972
     30965     30968     30971     30973     30965     30968     30971     30974
     30966     30965     30968     30969     30966     30965     30968     30970
     30966     30965     30968     30971     30967     30965     30968     30969
     30967     30965     30968     30970     30967     30965     30968     30971
     30968     30971     30974     30975     30968     30971     30974     30976
     30968     30971     30974     30977     30969     30968     30971     30972
     30969     30968     30971     30973     30969     30968     30971     30974
     30970     30968     30971     30972     30970     30968     30971     30973
     30970     30968     30971     30974     30971     30974     30977     30978
     30971     30974     30977     30979     30971     30974     30977     30980
     30972     30971     30974     30975     30972     30971     30974     30976
     30972     30971     30974     30977     30973     30971     30974     30975
     30973     30971     30974     30976     30973     30971     30974     30977
     30974     30977     30980     30981     30974     30977     30980     30982
     30974     30977     30980     30983     30975     30974     30977     30978
     30975     30974     30977     30979     30975     30974     30977     30980
     30976     30974     30977     30978     30976     30974     30977     30979
     30976     30974     30977     30980     30977     30980     30983     30984
     30977     30980     30983     30985     30977     30980     30983     30986
     30978     30977     30980     30981     30978     30977     30980     30982
     30978     30977     30980     30983     30979     30977     30980     30981
     30979     30977     30980     30982     30979     30977     30980     30983
     30981     30980     30983     30984     30981     30980     30983     30985
     30981     30980     30983     30986     30982     30980     30983     30984
     30982     30980     30983     30985     30982     30980     30983     30986
     30987     30991     30994     30995     30987     30991     30994     30996
     30987     30991     30994     31001     30988     30987     30991     30992
     30988     30987     30991     30993     30988     30987     30991     30994
     30989     30987     30991     30992     30989     30987     30991     30993
     30989     30987     30991     30994     30990     30987     30991     30992
     30990     30987     30991     30993     30990     30987     30991     30994
     30991     30994     31001     30997     30992     30991     30994     30995
     30992     30991     30994     30996     30992     30991     30994     31001
     30993     30991     30994     30995     30993     30991     30994     30996
     30993     30991     30994     31001     30994     31001     30997     30998
     30994     31001     30997     30999     30994     31001     30997     31000
     30995     30994     31001     30997     30996     30994     31001     30997
     30997     31000     31002     31003     30997     31000     31002     31004
     30997     31000     31002     31005     30998     30997     31000     31002
     30999     30997     31000     31002     31000     31002     31005     31006
     31000     31002     31005     31007     31000     31002     31005     31013
     31001     30997     31000     31002     31002     31005     31007     31008
     31002     31005     31013     31014     31002     31005     31013     31015
     31002     31005     31013     31016     31003     31002     31005     31006
     31003     31002     31005     31007     31003     31002     31005     31013
     31004     31002     31005     31006     31004     31002     31005     31007
     31004     31002     31005     31013     31005     31007     31008     31009
     31005     31007     31008     31010     31005     31013     31016     31017
     31006     31005     31007     31008     31006     31005     31013     31014
     31006     31005     31013     31015     31006     31005     31013     31016
     31007     31005     31013     31014     31007     31005     31013     31015
     31007     31005     31013     31016     31007     31008     31010     31011
     31007     31008     31010     31012     31007     31008     31010     31022
     31008     31007     31005     31013     31008     31010     31022     31023
     31008     31010     31022     31024     31008     31010     31022     31025
     31009     31008     31010     31011     31009     31008     31010     31012
     31009     31008     31010     31022     31010     31022     31025     31026
     31010     31022     31025     31027     31010     31022     31025     31028
     31011     31010     31022     31023     31011     31010     31022     31024
     31011     31010     31022     31025     31012     31010     31022     31023
     31012     31010     31022     31024     31012     31010     31022     31025
     31013     31016     31017     31018     31013     31016     31017     31019
     31014     31013     31016     31017     31015     31013     31016     31017
     31016     31017     31019     31020     31016     31017     31019     31021
     31016     31017     31019     31069     31017     31019     31069     31070
     31017     31019     31069     31071     31017     31019     31069     31072
     31018     31017     31019     31020     31018     31017     31019     31021
     31018     31017     31019     31069     31019     31069     31072     31073
     31019     31069     31072     31074     31019     31069     31072     31075
     31020     31019     31069     31070     31020     31019     31069     31071
     31020     31019     31069     31072     31021     31019     31069     31070
     31021     31019     31069     31071     31021     31019     31069     31072
     31022     31025     31028     31029     31022     31025     31028     31030
     31022     31025     31028     31031     31023     31022     31025     31026
     31023     31022     31025     31027     31023     31022     31025     31028
     31024     31022     31025     31026     31024     31022     31025     31027
     31024     31022     31025     31028     31025     31028     31031     31032
     31025     31028     31031     31033     31025     31028     31031     31034
     31026     31025     31028     31029     31026     31025     31028     31030
     31026     31025     31028     31031     31027     31025     31028     31029
     31027     31025     31028     31030     31027     31025     31028     31031
     31028     31031     31034     31035     31028     31031     31034     31036
     31028     31031     31034     31037     31029     31028     31031     31032
     31029     31028     31031     31033     31029     31028     31031     31034
     31030     31028     31031     31032     31030     31028     31031     31033
     31030     31028     31031     31034     31031     31034     31037     31038
     31031     31034     31037     31039     31031     31034     31037     31040
     31032     31031     31034     31035     31032     31031     31034     31036
     31032     31031     31034     31037     31033     31031     31034     31035
     31033     31031     31034     31036     31033     31031     31034     31037
     31034     31037     31040     31041     31034     31037     31040     31042
     31035     31034     31037     31038     31035     31034     31037     31039
     31035     31034     31037     31040     31036     31034     31037     31038
     31036     31034     31037     31039     31036     31034     31037     31040
     31037     31040     31042     31043     31037     31040     31042     31044
     31038     31037     31040     31041     31038     31037     31040     31042
     31039     31037     31040     31041     31039     31037     31040     31042
     31040     31042     31044     31045     31040     31042     31044     31046
     31040     31042     31044     31047     31041     31040     31042     31043
     31041     31040     31042     31044     31042     31044     31047     31048
     31042     31044     31047     31049     31042     31044     31047     31050
     31043     31042     31044     31045     31043     31042     31044     31046
     31043     31042     31044     31047     31044     31047     31050     31051
     31044     31047     31050     31052     31044     31047     31050     31053
     31045     31044     31047     31048     31045     31044     31047     31049
     31045     31044     31047     31050     31046     31044     31047     31048
     31046     31044     31047     31049     31046     31044     31047     31050
     31047     31050     31053     31054     31047     31050     31053     31055
     31047     31050     31053     31056     31048     31047     31050     31051
     31048     31047     31050     31052     31048     31047     31050     31053
     31049     31047     31050     31051     31049     31047     31050     31052
     31049     31047     31050     31053     31050     31053     31056     31057
     31050     31053     31056     31058     31050     31053     31056     31059
     31051     31050     31053     31054     31051     31050     31053     31055
     31051     31050     31053     31056     31052     31050     31053     31054
     31052     31050     31053     31055     31052     31050     31053     31056
     31053     31056     31059     31060     31053     31056     31059     31061
     31053     31056     31059     31062     31054     31053     31056     31057
     31054     31053     31056     31058     31054     31053     31056     31059
     31055     31053     31056     31057     31055     31053     31056     31058
     31055     31053     31056     31059     31056     31059     31062     31063
     31056     31059     31062     31064     31056     31059     31062     31065
     31057     31056     31059     31060     31057     31056     31059     31061
     31057     31056     31059     31062     31058     31056     31059     31060
     31058     31056     31059     31061     31058     31056     31059     31062
     31059     31062     31065     31066     31059     31062     31065     31067
     31059     31062     31065     31068     31060     31059     31062     31063
     31060     31059     31062     31064     31060     31059     31062     31065
     31061     31059     31062     31063     31061     31059     31062     31064
     31061     31059     31062     31065     31063     31062     31065     31066
     31063     31062     31065     31067     31063     31062     31065     31068
     31064     31062     31065     31066     31064     31062     31065     31067
     31064     31062     31065     31068     31069     31072     31075     31076
     31069     31072     31075     31077     31069     31072     31075     31078
     31070     31069     31072     31073     31070     31069     31072     31074
     31070     31069     31072     31075     31071     31069     31072     31073
     31071     31069     31072     31074     31071     31069     31072     31075
     31072     31075     31078     31079     31072     31075     31078     31080
     31072     31075     31078     31081     31073     31072     31075     31076
     31073     31072     31075     31077     31073     31072     31075     31078
     31074     31072     31075     31076     31074     31072     31075     31077
     31074     31072     31075     31078     31075     31078     31081     31082
     31075     31078     31081     31083     31075     31078     31081     31084
     31076     31075     31078     31079     31076     31075     31078     31080
     31076     31075     31078     31081     31077     31075     31078     31079
     31077     31075     31078     31080     31077     31075     31078     31081
     31078     31081     31084     31085     31078     31081     31084     31086
     31078     31081     31084     31087     31079     31078     31081     31082
     31079     31078     31081     31083     31079     31078     31081     31084
     31080     31078     31081     31082     31080     31078     31081     31083
     31080     31078     31081     31084     31081     31084     31087     31088
     31081     31084     31087     31089     31081     31084     31087     31090
     31082     31081     31084     31085     31082     31081     31084     31086
     31082     31081     31084     31087     31083     31081     31084     31085
     31083     31081     31084     31086     31083     31081     31084     31087
     31084     31087     31090     31091     31084     31087     31090     31092
     31084     31087     31090     31093     31085     31084     31087     31088
     31085     31084     31087     31089     31085     31084     31087     31090
     31086     31084     31087     31088     31086     31084     31087     31089
     31086     31084     31087     31090     31087     31090     31093     31094
     31087     31090     31093     31095     31087     31090     31093     31096
     31088     31087     31090     31091     31088     31087     31090     31092
     31088     31087     31090     31093     31089     31087     31090     31091
     31089     31087     31090     31092     31089     31087     31090     31093
     31090     31093     31096     31097     31090     31093     31096     31098
     31090     31093     31096     31099     31091     31090     31093     31094
     31091     31090     31093     31095     31091     31090     31093     31096
     31092     31090     31093     31094     31092     31090     31093     31095
     31092     31090     31093     31096     31093     31096     31099     31100
     31093     31096     31099     31101     31093     31096     31099     31102
     31094     31093     31096     31097     31094     31093     31096     31098
     31094     31093     31096     31099     31095     31093     31096     31097
     31095     31093     31096     31098     31095     31093     31096     31099
     31096     31099     31102     31103     31096     31099     31102     31104
     31096     31099     31102     31105     31097     31096     31099     31100
     31097     31096     31099     31101     31097     31096     31099     31102
     31098     31096     31099     31100     31098     31096     31099     31101
     31098     31096     31099     31102     31099     31102     31105     31106
     31099     31102     31105     31107     31099     31102     31105     31108
     31100     31099     31102     31103     31100     31099     31102     31104
     31100     31099     31102     31105     31101     31099     31102     31103
     31101     31099     31102     31104     31101     31099     31102     31105
     31102     31105     31108     31109     31102     31105     31108     31110
     31102     31105     31108     31111     31103     31102     31105     31106
     31103     31102     31105     31107     31103     31102     31105     31108
     31104     31102     31105     31106     31104     31102     31105     31107
     31104     31102     31105     31108     31106     31105     31108     31109
     31106     31105     31108     31110     31106     31105     31108     31111
     31107     31105     31108     31109     31107     31105     31108     31110
     31107     31105     31108     31111     31112     31116     31119     31120
     31112     31116     31119     31121     31112     31116     31119     31126
     31113     31112     31116     31117     31113     31112     31116     31118
     31113     31112     31116     31119     31114     31112     31116     31117
     31114     31112     31116     31118     31114     31112     31116     31119
     31115     31112     31116     31117     31115     31112     31116     31118
     31115     31112     31116     31119     31116     31119     31126     31122
     31117     31116     31119     31120     31117     31116     31119     31121
     31117     31116     31119     31126     31118     31116     31119     31120
     31118     31116     31119     31121     31118     31116     31119     31126
     31119     31126     31122     31123     31119     31126     31122     31124
     31119     31126     31122     31125     31120     31119     31126     31122
     31121     31119     31126     31122     31122     31125     31127     31128
     31122     31125     31127     31129     31122     31125     31127     31130
     31123     31122     31125     31127     31124     31122     31125     31127
     31125     31127     31130     31131     31125     31127     31130     31132
     31125     31127     31130     31138     31126     31122     31125     31127
     31127     31130     31132     31133     31127     31130     31138     31139
     31127     31130     31138     31140     31127     31130     31138     31141
     31128     31127     31130     31131     31128     31127     31130     31132
     31128     31127     31130     31138     31129     31127     31130     31131
     31129     31127     31130     31132     31129     31127     31130     31138
     31130     31132     31133     31134     31130     31132     31133     31135
     31130     31138     31141     31142     31131     31130     31132     31133
     31131     31130     31138     31139     31131     31130     31138     31140
     31131     31130     31138     31141     31132     31130     31138     31139
     31132     31130     31138     31140     31132     31130     31138     31141
     31132     31133     31135     31136     31132     31133     31135     31137
     31132     31133     31135     31147     31133     31132     31130     31138
     31133     31135     31147     31148     31133     31135     31147     31149
     31133     31135     31147     31150     31134     31133     31135     31136
     31134     31133     31135     31137     31134     31133     31135     31147
     31135     31147     31150     31151     31135     31147     31150     31152
     31135     31147     31150     31153     31136     31135     31147     31148
     31136     31135     31147     31149     31136     31135     31147     31150
     31137     31135     31147     31148     31137     31135     31147     31149
     31137     31135     31147     31150     31138     31141     31142     31143
     31138     31141     31142     31144     31139     31138     31141     31142
     31140     31138     31141     31142     31141     31142     31144     31145
     31141     31142     31144     31146     31141     31142     31144     31194
     31142     31144     31194     31195     31142     31144     31194     31196
     31142     31144     31194     31197     31143     31142     31144     31145
     31143     31142     31144     31146     31143     31142     31144     31194
     31144     31194     31197     31198     31144     31194     31197     31199
     31144     31194     31197     31200     31145     31144     31194     31195
     31145     31144     31194     31196     31145     31144     31194     31197
     31146     31144     31194     31195     31146     31144     31194     31196
     31146     31144     31194     31197     31147     31150     31153     31154
     31147     31150     31153     31155     31147     31150     31153     31156
     31148     31147     31150     31151     31148     31147     31150     31152
     31148     31147     31150     31153     31149     31147     31150     31151
     31149     31147     31150     31152     31149     31147     31150     31153
     31150     31153     31156     31157     31150     31153     31156     31158
     31150     31153     31156     31159     31151     31150     31153     31154
     31151     31150     31153     31155     31151     31150     31153     31156
     31152     31150     31153     31154     31152     31150     31153     31155
     31152     31150     31153     31156     31153     31156     31159     31160
     31153     31156     31159     31161     31153     31156     31159     31162
     31154     31153     31156     31157     31154     31153     31156     31158
     31154     31153     31156     31159     31155     31153     31156     31157
     31155     31153     31156     31158     31155     31153     31156     31159
     31156     31159     31162     31163     31156     31159     31162     31164
     31156     31159     31162     31165     31157     31156     31159     31160
     31157     31156     31159     31161     31157     31156     31159     31162
     31158     31156     31159     31160     31158     31156     31159     31161
     31158     31156     31159     31162     31159     31162     31165     31166
     31159     31162     31165     31167     31160     31159     31162     31163
     31160     31159     31162     31164     31160     31159     31162     31165
     31161     31159     31162     31163     31161     31159     31162     31164
     31161     31159     31162     31165     31162     31165     31167     31168
     31162     31165     31167     31169     31163     31162     31165     31166
     31163     31162     31165     31167     31164     31162     31165     31166
     31164     31162     31165     31167     31165     31167     31169     31170
     31165     31167     31169     31171     31165     31167     31169     31172
     31166     31165     31167     31168     31166     31165     31167     31169
     31167     31169     31172     31173     31167     31169     31172     31174
     31167     31169     31172     31175     31168     31167     31169     31170
     31168     31167     31169     31171     31168     31167     31169     31172
     31169     31172     31175     31176     31169     31172     31175     31177
     31169     31172     31175     31178     31170     31169     31172     31173
     31170     31169     31172     31174     31170     31169     31172     31175
     31171     31169     31172     31173     31171     31169     31172     31174
     31171     31169     31172     31175     31172     31175     31178     31179
     31172     31175     31178     31180     31172     31175     31178     31181
     31173     31172     31175     31176     31173     31172     31175     31177
     31173     31172     31175     31178     31174     31172     31175     31176
     31174     31172     31175     31177     31174     31172     31175     31178
     31175     31178     31181     31182     31175     31178     31181     31183
     31175     31178     31181     31184     31176     31175     31178     31179
     31176     31175     31178     31180     31176     31175     31178     31181
     31177     31175     31178     31179     31177     31175     31178     31180
     31177     31175     31178     31181     31178     31181     31184     31185
     31178     31181     31184     31186     31178     31181     31184     31187
     31179     31178     31181     31182     31179     31178     31181     31183
     31179     31178     31181     31184     31180     31178     31181     31182
     31180     31178     31181     31183     31180     31178     31181     31184
     31181     31184     31187     31188     31181     31184     31187     31189
     31181     31184     31187     31190     31182     31181     31184     31185
     31182     31181     31184     31186     31182     31181     31184     31187
     31183     31181     31184     31185     31183     31181     31184     31186
     31183     31181     31184     31187     31184     31187     31190     31191
     31184     31187     31190     31192     31184     31187     31190     31193
     31185     31184     31187     31188     31185     31184     31187     31189
     31185     31184     31187     31190     31186     31184     31187     31188
     31186     31184     31187     31189     31186     31184     31187     31190
     31188     31187     31190     31191     31188     31187     31190     31192
     31188     31187     31190     31193     31189     31187     31190     31191
     31189     31187     31190     31192     31189     31187     31190     31193
     31194     31197     31200     31201     31194     31197     31200     31202
     31194     31197     31200     31203     31195     31194     31197     31198
     31195     31194     31197     31199     31195     31194     31197     31200
     31196     31194     31197     31198     31196     31194     31197     31199
     31196     31194     31197     31200     31197     31200     31203     31204
     31197     31200     31203     31205     31197     31200     31203     31206
     31198     31197     31200     31201     31198     31197     31200     31202
     31198     31197     31200     31203     31199     31197     31200     31201
     31199     31197     31200     31202     31199     31197     31200     31203
     31200     31203     31206     31207     31200     31203     31206     31208
     31200     31203     31206     31209     31201     31200     31203     31204
     31201     31200     31203     31205     31201     31200     31203     31206
     31202     31200     31203     31204     31202     31200     31203     31205
     31202     31200     31203     31206     31203     31206     31209     31210
     31203     31206     31209     31211     31203     31206     31209     31212
     31204     31203     31206     31207     31204     31203     31206     31208
     31204     31203     31206     31209     31205     31203     31206     31207
     31205     31203     31206     31208     31205     31203     31206     31209
     31206     31209     31212     31213     31206     31209     31212     31214
     31206     31209     31212     31215     31207     31206     31209     31210
     31207     31206     31209     31211     31207     31206     31209     31212
     31208     31206     31209     31210     31208     31206     31209     31211
     31208     31206     31209     31212     31209     31212     31215     31216
     31209     31212     31215     31217     31209     31212     31215     31218
     31210     31209     31212     31213     31210     31209     31212     31214
     31210     31209     31212     31215     31211     31209     31212     31213
     31211     31209     31212     31214     31211     31209     31212     31215
     31212     31215     31218     31219     31212     31215     31218     31220
     31212     31215     31218     31221     31213     31212     31215     31216
     31213     31212     31215     31217     31213     31212     31215     31218
     31214     31212     31215     31216     31214     31212     31215     31217
     31214     31212     31215     31218     31215     31218     31221     31222
     31215     31218     31221     31223     31215     31218     31221     31224
     31216     31215     31218     31219     31216     31215     31218     31220
     31216     31215     31218     31221     31217     31215     31218     31219
     31217     31215     31218     31220     31217     31215     31218     31221
     31218     31221     31224     31225     31218     31221     31224     31226
     31218     31221     31224     31227     31219     31218     31221     31222
     31219     31218     31221     31223     31219     31218     31221     31224
     31220     31218     31221     31222     31220     31218     31221     31223
     31220     31218     31221     31224     31221     31224     31227     31228
     31221     31224     31227     31229     31221     31224     31227     31230
     31222     31221     31224     31225     31222     31221     31224     31226
     31222     31221     31224     31227     31223     31221     31224     31225
     31223     31221     31224     31226     31223     31221     31224     31227
     31224     31227     31230     31231     31224     31227     31230     31232
     31224     31227     31230     31233     31225     31224     31227     31228
     31225     31224     31227     31229     31225     31224     31227     31230
     31226     31224     31227     31228     31226     31224     31227     31229
     31226     31224     31227     31230     31227     31230     31233     31234
     31227     31230     31233     31235     31227     31230     31233     31236
     31228     31227     31230     31231     31228     31227     31230     31232
     31228     31227     31230     31233     31229     31227     31230     31231
     31229     31227     31230     31232     31229     31227     31230     31233
     31231     31230     31233     31234     31231     31230     31233     31235
     31231     31230     31233     31236     31232     31230     31233     31234
     31232     31230     31233     31235     31232     31230     31233     31236
     31237     31241     31244     31245     31237     31241     31244     31246
     31237     31241     31244     31251     31238     31237     31241     31242
     31238     31237     31241     31243     31238     31237     31241     31244
     31239     31237     31241     31242     31239     31237     31241     31243
     31239     31237     31241     31244     31240     31237     31241     31242
     31240     31237     31241     31243     31240     31237     31241     31244
     31241     31244     31251     31247     31242     31241     31244     31245
     31242     31241     31244     31246     31242     31241     31244     31251
     31243     31241     31244     31245     31243     31241     31244     31246
     31243     31241     31244     31251     31244     31251     31247     31248
     31244     31251     31247     31249     31244     31251     31247     31250
     31245     31244     31251     31247     31246     31244     31251     31247
     31247     31250     31252     31253     31247     31250     31252     31254
     31247     31250     31252     31255     31248     31247     31250     31252
     31249     31247     31250     31252     31250     31252     31255     31256
     31250     31252     31255     31257     31250     31252     31255     31263
     31251     31247     31250     31252     31252     31255     31257     31258
     31252     31255     31263     31264     31252     31255     31263     31265
     31252     31255     31263     31266     31253     31252     31255     31256
     31253     31252     31255     31257     31253     31252     31255     31263
     31254     31252     31255     31256     31254     31252     31255     31257
     31254     31252     31255     31263     31255     31257     31258     31259
     31255     31257     31258     31260     31255     31263     31266     31267
     31256     31255     31257     31258     31256     31255     31263     31264
     31256     31255     31263     31265     31256     31255     31263     31266
     31257     31255     31263     31264     31257     31255     31263     31265
     31257     31255     31263     31266     31257     31258     31260     31261
     31257     31258     31260     31262     31257     31258     31260     31272
     31258     31257     31255     31263     31258     31260     31272     31273
     31258     31260     31272     31274     31258     31260     31272     31275
     31259     31258     31260     31261     31259     31258     31260     31262
     31259     31258     31260     31272     31260     31272     31275     31276
     31260     31272     31275     31277     31260     31272     31275     31278
     31261     31260     31272     31273     31261     31260     31272     31274
     31261     31260     31272     31275     31262     31260     31272     31273
     31262     31260     31272     31274     31262     31260     31272     31275
     31263     31266     31267     31268     31263     31266     31267     31269
     31264     31263     31266     31267     31265     31263     31266     31267
     31266     31267     31269     31270     31266     31267     31269     31271
     31266     31267     31269     31319     31267     31269     31319     31320
     31267     31269     31319     31321     31267     31269     31319     31322
     31268     31267     31269     31270     31268     31267     31269     31271
     31268     31267     31269     31319     31269     31319     31322     31323
     31269     31319     31322     31324     31269     31319     31322     31325
     31270     31269     31319     31320     31270     31269     31319     31321
     31270     31269     31319     31322     31271     31269     31319     31320
     31271     31269     31319     31321     31271     31269     31319     31322
     31272     31275     31278     31279     31272     31275     31278     31280
     31272     31275     31278     31281     31273     31272     31275     31276
     31273     31272     31275     31277     31273     31272     31275     31278
     31274     31272     31275     31276     31274     31272     31275     31277
     31274     31272     31275     31278     31275     31278     31281     31282
     31275     31278     31281     31283     31275     31278     31281     31284
     31276     31275     31278     31279     31276     31275     31278     31280
     31276     31275     31278     31281     31277     31275     31278     31279
     31277     31275     31278     31280     31277     31275     31278     31281
     31278     31281     31284     31285     31278     31281     31284     31286
     31278     31281     31284     31287     31279     31278     31281     31282
     31279     31278     31281     31283     31279     31278     31281     31284
     31280     31278     31281     31282     31280     31278     31281     31283
     31280     31278     31281     31284     31281     31284     31287     31288
     31281     31284     31287     31289     31281     31284     31287     31290
     31282     31281     31284     31285     31282     31281     31284     31286
     31282     31281     31284     31287     31283     31281     31284     31285
     31283     31281     31284     31286     31283     31281     31284     31287
     31284     31287     31290     31291     31284     31287     31290     31292
     31285     31284     31287     31288     31285     31284     31287     31289
     31285     31284     31287     31290     31286     31284     31287     31288
     31286     31284     31287     31289     31286     31284     31287     31290
     31287     31290     31292     31293     31287     31290     31292     31294
     31288     31287     31290     31291     31288     31287     31290     31292
     31289     31287     31290     31291     31289     31287     31290     31292
     31290     31292     31294     31295     31290     31292     31294     31296
     31290     31292     31294     31297     31291     31290     31292     31293
     31291     31290     31292     31294     31292     31294     31297     31298
     31292     31294     31297     31299     31292     31294     31297     31300
     31293     31292     31294     31295     31293     31292     31294     31296
     31293     31292     31294     31297     31294     31297     31300     31301
     31294     31297     31300     31302     31294     31297     31300     31303
     31295     31294     31297     31298     31295     31294     31297     31299
     31295     31294     31297     31300     31296     31294     31297     31298
     31296     31294     31297     31299     31296     31294     31297     31300
     31297     31300     31303     31304     31297     31300     31303     31305
     31297     31300     31303     31306     31298     31297     31300     31301
     31298     31297     31300     31302     31298     31297     31300     31303
     31299     31297     31300     31301     31299     31297     31300     31302
     31299     31297     31300     31303     31300     31303     31306     31307
     31300     31303     31306     31308     31300     31303     31306     31309
     31301     31300     31303     31304     31301     31300     31303     31305
     31301     31300     31303     31306     31302     31300     31303     31304
     31302     31300     31303     31305     31302     31300     31303     31306
     31303     31306     31309     31310     31303     31306     31309     31311
     31303     31306     31309     31312     31304     31303     31306     31307
     31304     31303     31306     31308     31304     31303     31306     31309
     31305     31303     31306     31307     31305     31303     31306     31308
     31305     31303     31306     31309     31306     31309     31312     31313
     31306     31309     31312     31314     31306     31309     31312     31315
     31307     31306     31309     31310     31307     31306     31309     31311
     31307     31306     31309     31312     31308     31306     31309     31310
     31308     31306     31309     31311     31308     31306     31309     31312
     31309     31312     31315     31316     31309     31312     31315     31317
     31309     31312     31315     31318     31310     31309     31312     31313
     31310     31309     31312     31314     31310     31309     31312     31315
     31311     31309     31312     31313     31311     31309     31312     31314
     31311     31309     31312     31315     31313     31312     31315     31316
     31313     31312     31315     31317     31313     31312     31315     31318
     31314     31312     31315     31316     31314     31312     31315     31317
     31314     31312     31315     31318     31319     31322     31325     31326
     31319     31322     31325     31327     31319     31322     31325     31328
     31320     31319     31322     31323     31320     31319     31322     31324
     31320     31319     31322     31325     31321     31319     31322     31323
     31321     31319     31322     31324     31321     31319     31322     31325
     31322     31325     31328     31329     31322     31325     31328     31330
     31322     31325     31328     31331     31323     31322     31325     31326
     31323     31322     31325     31327     31323     31322     31325     31328
     31324     31322     31325     31326     31324     31322     31325     31327
     31324     31322     31325     31328     31325     31328     31331     31332
     31325     31328     31331     31333     31325     31328     31331     31334
     31326     31325     31328     31329     31326     31325     31328     31330
     31326     31325     31328     31331     31327     31325     31328     31329
     31327     31325     31328     31330     31327     31325     31328     31331
     31328     31331     31334     31335     31328     31331     31334     31336
     31328     31331     31334     31337     31329     31328     31331     31332
     31329     31328     31331     31333     31329     31328     31331     31334
     31330     31328     31331     31332     31330     31328     31331     31333
     31330     31328     31331     31334     31331     31334     31337     31338
     31331     31334     31337     31339     31331     31334     31337     31340
     31332     31331     31334     31335     31332     31331     31334     31336
     31332     31331     31334     31337     31333     31331     31334     31335
     31333     31331     31334     31336     31333     31331     31334     31337
     31334     31337     31340     31341     31334     31337     31340     31342
     31334     31337     31340     31343     31335     31334     31337     31338
     31335     31334     31337     31339     31335     31334     31337     31340
     31336     31334     31337     31338     31336     31334     31337     31339
     31336     31334     31337     31340     31337     31340     31343     31344
     31337     31340     31343     31345     31337     31340     31343     31346
     31338     31337     31340     31341     31338     31337     31340     31342
     31338     31337     31340     31343     31339     31337     31340     31341
     31339     31337     31340     31342     31339     31337     31340     31343
     31340     31343     31346     31347     31340     31343     31346     31348
     31340     31343     31346     31349     31341     31340     31343     31344
     31341     31340     31343     31345     31341     31340     31343     31346
     31342     31340     31343     31344     31342     31340     31343     31345
     31342     31340     31343     31346     31343     31346     31349     31350
     31343     31346     31349     31351     31343     31346     31349     31352
     31344     31343     31346     31347     31344     31343     31346     31348
     31344     31343     31346     31349     31345     31343     31346     31347
     31345     31343     31346     31348     31345     31343     31346     31349
     31346     31349     31352     31353     31346     31349     31352     31354
     31346     31349     31352     31355     31347     31346     31349     31350
     31347     31346     31349     31351     31347     31346     31349     31352
     31348     31346     31349     31350     31348     31346     31349     31351
     31348     31346     31349     31352     31349     31352     31355     31356
     31349     31352     31355     31357     31349     31352     31355     31358
     31350     31349     31352     31353     31350     31349     31352     31354
     31350     31349     31352     31355     31351     31349     31352     31353
     31351     31349     31352     31354     31351     31349     31352     31355
     31352     31355     31358     31359     31352     31355     31358     31360
     31352     31355     31358     31361     31353     31352     31355     31356
     31353     31352     31355     31357     31353     31352     31355     31358
     31354     31352     31355     31356     31354     31352     31355     31357
     31354     31352     31355     31358     31356     31355     31358     31359
     31356     31355     31358     31360     31356     31355     31358     31361
     31357     31355     31358     31359     31357     31355     31358     31360
     31357     31355     31358     31361     31362     31363     31378     31379
     31362     31363     31378     31380     31362     31363     31378     31384
     31363     31362     31366     31367     31363     31362     31366     31368
     31363     31362     31366     31369     31363     31362     31370     31371
     31363     31362     31370     31372     31363     31362     31370     31373
     31363     31362     31374     31375     31363     31362     31374     31376
     31363     31362     31374     31377     31363     31378     31384     31381
     31364     31363     31362     31366     31364     31363     31362     31370
     31364     31363     31362     31374     31364     31363     31378     31379
     31364     31363     31378     31380     31364     31363     31378     31384
     31365     31363     31362     31366     31365     31363     31362     31370
     31365     31363     31362     31374     31365     31363     31378     31379
     31365     31363     31378     31380     31365     31363     31378     31384
     31366     31362     31363     31378     31366     31362     31370     31371
     31366     31362     31370     31372     31366     31362     31370     31373
     31366     31362     31374     31375     31366     31362     31374     31376
     31366     31362     31374     31377     31367     31366     31362     31370
     31367     31366     31362     31374     31368     31366     31362     31370
     31368     31366     31362     31374     31369     31366     31362     31370
     31369     31366     31362     31374     31370     31362     31363     31378
     31370     31362     31374     31375     31370     31362     31374     31376
     31370     31362     31374     31377     31371     31370     31362     31374
     31372     31370     31362     31374     31373     31370     31362     31374
     31374     31362     31363     31378     31378     31384     31381     31382
     31378     31384     31381     31383     31378     31384     31381     31385
     31379     31378     31384     31381     31380     31378     31384     31381
     31381     31385     31386     31387     31381     31385     31386     31388
     31381     31385     31386     31389     31382     31381     31385     31386
     31383     31381     31385     31386     31384     31381     31385     31386
     31385     31386     31389     31390     31385     31386     31389     31391
     31385     31386     31389     31397     31386     31389     31391     31392
     31386     31389     31397     31398     31386     31389     31397     31399
     31386     31389     31397     31400     31387     31386     31389     31390
     31387     31386     31389     31391     31387     31386     31389     31397
     31388     31386     31389     31390     31388     31386     31389     31391
     31388     31386     31389     31397     31389     31391     31392     31393
     31389     31391     31392     31394     31389     31397     31400     31401
     31390     31389     31391     31392     31390     31389     31397     31398
     31390     31389     31397     31399     31390     31389     31397     31400
     31391     31389     31397     31398     31391     31389     31397     31399
     31391     31389     31397     31400     31391     31392     31394     31395
     31391     31392     31394     31396     31391     31392     31394     31406
     31392     31391     31389     31397     31392     31394     31406     31407
     31392     31394     31406     31408     31392     31394     31406     31409
     31393     31392     31394     31395     31393     31392     31394     31396
     31393     31392     31394     31406     31394     31406     31409     31410
     31394     31406     31409     31411     31394     31406     31409     31412
     31395     31394     31406     31407     31395     31394     31406     31408
     31395     31394     31406     31409     31396     31394     31406     31407
     31396     31394     31406     31408     31396     31394     31406     31409
     31397     31400     31401     31402     31397     31400     31401     31403
     31398     31397     31400     31401     31399     31397     31400     31401
     31400     31401     31403     31404     31400     31401     31403     31405
     31400     31401     31403     31453     31401     31403     31453     31454
     31401     31403     31453     31455     31401     31403     31453     31456
     31402     31401     31403     31404     31402     31401     31403     31405
     31402     31401     31403     31453     31403     31453     31456     31457
     31403     31453     31456     31458     31403     31453     31456     31459
     31404     31403     31453     31454     31404     31403     31453     31455
     31404     31403     31453     31456     31405     31403     31453     31454
     31405     31403     31453     31455     31405     31403     31453     31456
     31406     31409     31412     31413     31406     31409     31412     31414
     31406     31409     31412     31415     31407     31406     31409     31410
     31407     31406     31409     31411     31407     31406     31409     31412
     31408     31406     31409     31410     31408     31406     31409     31411
     31408     31406     31409     31412     31409     31412     31415     31416
     31409     31412     31415     31417     31409     31412     31415     31418
     31410     31409     31412     31413     31410     31409     31412     31414
     31410     31409     31412     31415     31411     31409     31412     31413
     31411     31409     31412     31414     31411     31409     31412     31415
     31412     31415     31418     31419     31412     31415     31418     31420
     31412     31415     31418     31421     31413     31412     31415     31416
     31413     31412     31415     31417     31413     31412     31415     31418
     31414     31412     31415     31416     31414     31412     31415     31417
     31414     31412     31415     31418     31415     31418     31421     31422
     31415     31418     31421     31423     31415     31418     31421     31424
     31416     31415     31418     31419     31416     31415     31418     31420
     31416     31415     31418     31421     31417     31415     31418     31419
     31417     31415     31418     31420     31417     31415     31418     31421
     31418     31421     31424     31425     31418     31421     31424     31426
     31419     31418     31421     31422     31419     31418     31421     31423
     31419     31418     31421     31424     31420     31418     31421     31422
     31420     31418     31421     31423     31420     31418     31421     31424
     31421     31424     31426     31427     31421     31424     31426     31428
     31422     31421     31424     31425     31422     31421     31424     31426
     31423     31421     31424     31425     31423     31421     31424     31426
     31424     31426     31428     31429     31424     31426     31428     31430
     31424     31426     31428     31431     31425     31424     31426     31427
     31425     31424     31426     31428     31426     31428     31431     31432
     31426     31428     31431     31433     31426     31428     31431     31434
     31427     31426     31428     31429     31427     31426     31428     31430
     31427     31426     31428     31431     31428     31431     31434     31435
     31428     31431     31434     31436     31428     31431     31434     31437
     31429     31428     31431     31432     31429     31428     31431     31433
     31429     31428     31431     31434     31430     31428     31431     31432
     31430     31428     31431     31433     31430     31428     31431     31434
     31431     31434     31437     31438     31431     31434     31437     31439
     31431     31434     31437     31440     31432     31431     31434     31435
     31432     31431     31434     31436     31432     31431     31434     31437
     31433     31431     31434     31435     31433     31431     31434     31436
     31433     31431     31434     31437     31434     31437     31440     31441
     31434     31437     31440     31442     31434     31437     31440     31443
     31435     31434     31437     31438     31435     31434     31437     31439
     31435     31434     31437     31440     31436     31434     31437     31438
     31436     31434     31437     31439     31436     31434     31437     31440
     31437     31440     31443     31444     31437     31440     31443     31445
     31437     31440     31443     31446     31438     31437     31440     31441
     31438     31437     31440     31442     31438     31437     31440     31443
     31439     31437     31440     31441     31439     31437     31440     31442
     31439     31437     31440     31443     31440     31443     31446     31447
     31440     31443     31446     31448     31440     31443     31446     31449
     31441     31440     31443     31444     31441     31440     31443     31445
     31441     31440     31443     31446     31442     31440     31443     31444
     31442     31440     31443     31445     31442     31440     31443     31446
     31443     31446     31449     31450     31443     31446     31449     31451
     31443     31446     31449     31452     31444     31443     31446     31447
     31444     31443     31446     31448     31444     31443     31446     31449
     31445     31443     31446     31447     31445     31443     31446     31448
     31445     31443     31446     31449     31447     31446     31449     31450
     31447     31446     31449     31451     31447     31446     31449     31452
     31448     31446     31449     31450     31448     31446     31449     31451
     31448     31446     31449     31452     31453     31456     31459     31460
     31453     31456     31459     31461     31453     31456     31459     31462
     31454     31453     31456     31457     31454     31453     31456     31458
     31454     31453     31456     31459     31455     31453     31456     31457
     31455     31453     31456     31458     31455     31453     31456     31459
     31456     31459     31462     31463     31456     31459     31462     31464
     31456     31459     31462     31465     31457     31456     31459     31460
     31457     31456     31459     31461     31457     31456     31459     31462
     31458     31456     31459     31460     31458     31456     31459     31461
     31458     31456     31459     31462     31459     31462     31465     31466
     31459     31462     31465     31467     31459     31462     31465     31468
     31460     31459     31462     31463     31460     31459     31462     31464
     31460     31459     31462     31465     31461     31459     31462     31463
     31461     31459     31462     31464     31461     31459     31462     31465
     31462     31465     31468     31469     31462     31465     31468     31470
     31462     31465     31468     31471     31463     31462     31465     31466
     31463     31462     31465     31467     31463     31462     31465     31468
     31464     31462     31465     31466     31464     31462     31465     31467
     31464     31462     31465     31468     31465     31468     31471     31472
     31465     31468     31471     31473     31465     31468     31471     31474
     31466     31465     31468     31469     31466     31465     31468     31470
     31466     31465     31468     31471     31467     31465     31468     31469
     31467     31465     31468     31470     31467     31465     31468     31471
     31468     31471     31474     31475     31468     31471     31474     31476
     31468     31471     31474     31477     31469     31468     31471     31472
     31469     31468     31471     31473     31469     31468     31471     31474
     31470     31468     31471     31472     31470     31468     31471     31473
     31470     31468     31471     31474     31471     31474     31477     31478
     31471     31474     31477     31479     31471     31474     31477     31480
     31472     31471     31474     31475     31472     31471     31474     31476
     31472     31471     31474     31477     31473     31471     31474     31475
     31473     31471     31474     31476     31473     31471     31474     31477
     31474     31477     31480     31481     31474     31477     31480     31482
     31474     31477     31480     31483     31475     31474     31477     31478
     31475     31474     31477     31479     31475     31474     31477     31480
     31476     31474     31477     31478     31476     31474     31477     31479
     31476     31474     31477     31480     31477     31480     31483     31484
     31477     31480     31483     31485     31477     31480     31483     31486
     31478     31477     31480     31481     31478     31477     31480     31482
     31478     31477     31480     31483     31479     31477     31480     31481
     31479     31477     31480     31482     31479     31477     31480     31483
     31480     31483     31486     31487     31480     31483     31486     31488
     31480     31483     31486     31489     31481     31480     31483     31484
     31481     31480     31483     31485     31481     31480     31483     31486
     31482     31480     31483     31484     31482     31480     31483     31485
     31482     31480     31483     31486     31483     31486     31489     31490
     31483     31486     31489     31491     31483     31486     31489     31492
     31484     31483     31486     31487     31484     31483     31486     31488
     31484     31483     31486     31489     31485     31483     31486     31487
     31485     31483     31486     31488     31485     31483     31486     31489
     31486     31489     31492     31493     31486     31489     31492     31494
     31486     31489     31492     31495     31487     31486     31489     31490
     31487     31486     31489     31491     31487     31486     31489     31492
     31488     31486     31489     31490     31488     31486     31489     31491
     31488     31486     31489     31492     31490     31489     31492     31493
     31490     31489     31492     31494     31490     31489     31492     31495
     31491     31489     31492     31493     31491     31489     31492     31494
     31491     31489     31492     31495     31496     31497     31512     31513
     31496     31497     31512     31514     31496     31497     31512     31518
     31497     31496     31500     31501     31497     31496     31500     31502
     31497     31496     31500     31503     31497     31496     31504     31505
     31497     31496     31504     31506     31497     31496     31504     31507
     31497     31496     31508     31509     31497     31496     31508     31510
     31497     31496     31508     31511     31497     31512     31518     31515
     31498     31497     31496     31500     31498     31497     31496     31504
     31498     31497     31496     31508     31498     31497     31512     31513
     31498     31497     31512     31514     31498     31497     31512     31518
     31499     31497     31496     31500     31499     31497     31496     31504
     31499     31497     31496     31508     31499     31497     31512     31513
     31499     31497     31512     31514     31499     31497     31512     31518
     31500     31496     31497     31512     31500     31496     31504     31505
     31500     31496     31504     31506     31500     31496     31504     31507
     31500     31496     31508     31509     31500     31496     31508     31510
     31500     31496     31508     31511     31501     31500     31496     31504
     31501     31500     31496     31508     31502     31500     31496     31504
     31502     31500     31496     31508     31503     31500     31496     31504
     31503     31500     31496     31508     31504     31496     31497     31512
     31504     31496     31508     31509     31504     31496     31508     31510
     31504     31496     31508     31511     31505     31504     31496     31508
     31506     31504     31496     31508     31507     31504     31496     31508
     31508     31496     31497     31512     31512     31518     31515     31516
     31512     31518     31515     31517     31512     31518     31515     31519
     31513     31512     31518     31515     31514     31512     31518     31515
     31515     31519     31520     31521     31515     31519     31520     31522
     31515     31519     31520     31523     31516     31515     31519     31520
     31517     31515     31519     31520     31518     31515     31519     31520
     31519     31520     31523     31524     31519     31520     31523     31525
     31519     31520     31523     31531     31520     31523     31525     31526
     31520     31523     31531     31532     31520     31523     31531     31533
     31520     31523     31531     31534     31521     31520     31523     31524
     31521     31520     31523     31525     31521     31520     31523     31531
     31522     31520     31523     31524     31522     31520     31523     31525
     31522     31520     31523     31531     31523     31525     31526     31527
     31523     31525     31526     31528     31523     31531     31534     31535
     31524     31523     31525     31526     31524     31523     31531     31532
     31524     31523     31531     31533     31524     31523     31531     31534
     31525     31523     31531     31532     31525     31523     31531     31533
     31525     31523     31531     31534     31525     31526     31528     31529
     31525     31526     31528     31530     31525     31526     31528     31540
     31526     31525     31523     31531     31526     31528     31540     31541
     31526     31528     31540     31542     31526     31528     31540     31543
     31527     31526     31528     31529     31527     31526     31528     31530
     31527     31526     31528     31540     31528     31540     31543     31544
     31528     31540     31543     31545     31528     31540     31543     31546
     31529     31528     31540     31541     31529     31528     31540     31542
     31529     31528     31540     31543     31530     31528     31540     31541
     31530     31528     31540     31542     31530     31528     31540     31543
     31531     31534     31535     31536     31531     31534     31535     31537
     31532     31531     31534     31535     31533     31531     31534     31535
     31534     31535     31537     31538     31534     31535     31537     31539
     31534     31535     31537     31587     31535     31537     31587     31588
     31535     31537     31587     31589     31535     31537     31587     31590
     31536     31535     31537     31538     31536     31535     31537     31539
     31536     31535     31537     31587     31537     31587     31590     31591
     31537     31587     31590     31592     31537     31587     31590     31593
     31538     31537     31587     31588     31538     31537     31587     31589
     31538     31537     31587     31590     31539     31537     31587     31588
     31539     31537     31587     31589     31539     31537     31587     31590
     31540     31543     31546     31547     31540     31543     31546     31548
     31540     31543     31546     31549     31541     31540     31543     31544
     31541     31540     31543     31545     31541     31540     31543     31546
     31542     31540     31543     31544     31542     31540     31543     31545
     31542     31540     31543     31546     31543     31546     31549     31550
     31543     31546     31549     31551     31543     31546     31549     31552
     31544     31543     31546     31547     31544     31543     31546     31548
     31544     31543     31546     31549     31545     31543     31546     31547
     31545     31543     31546     31548     31545     31543     31546     31549
     31546     31549     31552     31553     31546     31549     31552     31554
     31546     31549     31552     31555     31547     31546     31549     31550
     31547     31546     31549     31551     31547     31546     31549     31552
     31548     31546     31549     31550     31548     31546     31549     31551
     31548     31546     31549     31552     31549     31552     31555     31556
     31549     31552     31555     31557     31549     31552     31555     31558
     31550     31549     31552     31553     31550     31549     31552     31554
     31550     31549     31552     31555     31551     31549     31552     31553
     31551     31549     31552     31554     31551     31549     31552     31555
     31552     31555     31558     31559     31552     31555     31558     31560
     31553     31552     31555     31556     31553     31552     31555     31557
     31553     31552     31555     31558     31554     31552     31555     31556
     31554     31552     31555     31557     31554     31552     31555     31558
     31555     31558     31560     31561     31555     31558     31560     31562
     31556     31555     31558     31559     31556     31555     31558     31560
     31557     31555     31558     31559     31557     31555     31558     31560
     31558     31560     31562     31563     31558     31560     31562     31564
     31558     31560     31562     31565     31559     31558     31560     31561
     31559     31558     31560     31562     31560     31562     31565     31566
     31560     31562     31565     31567     31560     31562     31565     31568
     31561     31560     31562     31563     31561     31560     31562     31564
     31561     31560     31562     31565     31562     31565     31568     31569
     31562     31565     31568     31570     31562     31565     31568     31571
     31563     31562     31565     31566     31563     31562     31565     31567
     31563     31562     31565     31568     31564     31562     31565     31566
     31564     31562     31565     31567     31564     31562     31565     31568
     31565     31568     31571     31572     31565     31568     31571     31573
     31565     31568     31571     31574     31566     31565     31568     31569
     31566     31565     31568     31570     31566     31565     31568     31571
     31567     31565     31568     31569     31567     31565     31568     31570
     31567     31565     31568     31571     31568     31571     31574     31575
     31568     31571     31574     31576     31568     31571     31574     31577
     31569     31568     31571     31572     31569     31568     31571     31573
     31569     31568     31571     31574     31570     31568     31571     31572
     31570     31568     31571     31573     31570     31568     31571     31574
     31571     31574     31577     31578     31571     31574     31577     31579
     31571     31574     31577     31580     31572     31571     31574     31575
     31572     31571     31574     31576     31572     31571     31574     31577
     31573     31571     31574     31575     31573     31571     31574     31576
     31573     31571     31574     31577     31574     31577     31580     31581
     31574     31577     31580     31582     31574     31577     31580     31583
     31575     31574     31577     31578     31575     31574     31577     31579
     31575     31574     31577     31580     31576     31574     31577     31578
     31576     31574     31577     31579     31576     31574     31577     31580
     31577     31580     31583     31584     31577     31580     31583     31585
     31577     31580     31583     31586     31578     31577     31580     31581
     31578     31577     31580     31582     31578     31577     31580     31583
     31579     31577     31580     31581     31579     31577     31580     31582
     31579     31577     31580     31583     31581     31580     31583     31584
     31581     31580     31583     31585     31581     31580     31583     31586
     31582     31580     31583     31584     31582     31580     31583     31585
     31582     31580     31583     31586     31587     31590     31593     31594
     31587     31590     31593     31595     31587     31590     31593     31596
     31588     31587     31590     31591     31588     31587     31590     31592
     31588     31587     31590     31593     31589     31587     31590     31591
     31589     31587     31590     31592     31589     31587     31590     31593
     31590     31593     31596     31597     31590     31593     31596     31598
     31590     31593     31596     31599     31591     31590     31593     31594
     31591     31590     31593     31595     31591     31590     31593     31596
     31592     31590     31593     31594     31592     31590     31593     31595
     31592     31590     31593     31596     31593     31596     31599     31600
     31593     31596     31599     31601     31593     31596     31599     31602
     31594     31593     31596     31597     31594     31593     31596     31598
     31594     31593     31596     31599     31595     31593     31596     31597
     31595     31593     31596     31598     31595     31593     31596     31599
     31596     31599     31602     31603     31596     31599     31602     31604
     31596     31599     31602     31605     31597     31596     31599     31600
     31597     31596     31599     31601     31597     31596     31599     31602
     31598     31596     31599     31600     31598     31596     31599     31601
     31598     31596     31599     31602     31599     31602     31605     31606
     31599     31602     31605     31607     31599     31602     31605     31608
     31600     31599     31602     31603     31600     31599     31602     31604
     31600     31599     31602     31605     31601     31599     31602     31603
     31601     31599     31602     31604     31601     31599     31602     31605
     31602     31605     31608     31609     31602     31605     31608     31610
     31602     31605     31608     31611     31603     31602     31605     31606
     31603     31602     31605     31607     31603     31602     31605     31608
     31604     31602     31605     31606     31604     31602     31605     31607
     31604     31602     31605     31608     31605     31608     31611     31612
     31605     31608     31611     31613     31605     31608     31611     31614
     31606     31605     31608     31609     31606     31605     31608     31610
     31606     31605     31608     31611     31607     31605     31608     31609
     31607     31605     31608     31610     31607     31605     31608     31611
     31608     31611     31614     31615     31608     31611     31614     31616
     31608     31611     31614     31617     31609     31608     31611     31612
     31609     31608     31611     31613     31609     31608     31611     31614
     31610     31608     31611     31612     31610     31608     31611     31613
     31610     31608     31611     31614     31611     31614     31617     31618
     31611     31614     31617     31619     31611     31614     31617     31620
     31612     31611     31614     31615     31612     31611     31614     31616
     31612     31611     31614     31617     31613     31611     31614     31615
     31613     31611     31614     31616     31613     31611     31614     31617
     31614     31617     31620     31621     31614     31617     31620     31622
     31614     31617     31620     31623     31615     31614     31617     31618
     31615     31614     31617     31619     31615     31614     31617     31620
     31616     31614     31617     31618     31616     31614     31617     31619
     31616     31614     31617     31620     31617     31620     31623     31624
     31617     31620     31623     31625     31617     31620     31623     31626
     31618     31617     31620     31621     31618     31617     31620     31622
     31618     31617     31620     31623     31619     31617     31620     31621
     31619     31617     31620     31622     31619     31617     31620     31623
     31620     31623     31626     31627     31620     31623     31626     31628
     31620     31623     31626     31629     31621     31620     31623     31624
     31621     31620     31623     31625     31621     31620     31623     31626
     31622     31620     31623     31624     31622     31620     31623     31625
     31622     31620     31623     31626     31624     31623     31626     31627
     31624     31623     31626     31628     31624     31623     31626     31629
     31625     31623     31626     31627     31625     31623     31626     31628
     31625     31623     31626     31629     31630     31634     31637     31638
     31630     31634     31637     31639     31630     31634     31637     31644
     31631     31630     31634     31635     31631     31630     31634     31636
     31631     31630     31634     31637     31632     31630     31634     31635
     31632     31630     31634     31636     31632     31630     31634     31637
     31633     31630     31634     31635     31633     31630     31634     31636
     31633     31630     31634     31637     31634     31637     31644     31640
     31635     31634     31637     31638     31635     31634     31637     31639
     31635     31634     31637     31644     31636     31634     31637     31638
     31636     31634     31637     31639     31636     31634     31637     31644
     31637     31644     31640     31641     31637     31644     31640     31642
     31637     31644     31640     31643     31638     31637     31644     31640
     31639     31637     31644     31640     31640     31643     31645     31646
     31640     31643     31645     31647     31640     31643     31645     31648
     31641     31640     31643     31645     31642     31640     31643     31645
     31643     31645     31648     31649     31643     31645     31648     31650
     31643     31645     31648     31656     31644     31640     31643     31645
     31645     31648     31650     31651     31645     31648     31656     31657
     31645     31648     31656     31658     31645     31648     31656     31659
     31646     31645     31648     31649     31646     31645     31648     31650
     31646     31645     31648     31656     31647     31645     31648     31649
     31647     31645     31648     31650     31647     31645     31648     31656
     31648     31650     31651     31652     31648     31650     31651     31653
     31648     31656     31659     31660     31649     31648     31650     31651
     31649     31648     31656     31657     31649     31648     31656     31658
     31649     31648     31656     31659     31650     31648     31656     31657
     31650     31648     31656     31658     31650     31648     31656     31659
     31650     31651     31653     31654     31650     31651     31653     31655
     31650     31651     31653     31665     31651     31650     31648     31656
     31651     31653     31665     31666     31651     31653     31665     31667
     31651     31653     31665     31668     31652     31651     31653     31654
     31652     31651     31653     31655     31652     31651     31653     31665
     31653     31665     31668     31669     31653     31665     31668     31670
     31653     31665     31668     31671     31654     31653     31665     31666
     31654     31653     31665     31667     31654     31653     31665     31668
     31655     31653     31665     31666     31655     31653     31665     31667
     31655     31653     31665     31668     31656     31659     31660     31661
     31656     31659     31660     31662     31657     31656     31659     31660
     31658     31656     31659     31660     31659     31660     31662     31663
     31659     31660     31662     31664     31659     31660     31662     31712
     31660     31662     31712     31713     31660     31662     31712     31714
     31660     31662     31712     31715     31661     31660     31662     31663
     31661     31660     31662     31664     31661     31660     31662     31712
     31662     31712     31715     31716     31662     31712     31715     31717
     31662     31712     31715     31718     31663     31662     31712     31713
     31663     31662     31712     31714     31663     31662     31712     31715
     31664     31662     31712     31713     31664     31662     31712     31714
     31664     31662     31712     31715     31665     31668     31671     31672
     31665     31668     31671     31673     31665     31668     31671     31674
     31666     31665     31668     31669     31666     31665     31668     31670
     31666     31665     31668     31671     31667     31665     31668     31669
     31667     31665     31668     31670     31667     31665     31668     31671
     31668     31671     31674     31675     31668     31671     31674     31676
     31668     31671     31674     31677     31669     31668     31671     31672
     31669     31668     31671     31673     31669     31668     31671     31674
     31670     31668     31671     31672     31670     31668     31671     31673
     31670     31668     31671     31674     31671     31674     31677     31678
     31671     31674     31677     31679     31671     31674     31677     31680
     31672     31671     31674     31675     31672     31671     31674     31676
     31672     31671     31674     31677     31673     31671     31674     31675
     31673     31671     31674     31676     31673     31671     31674     31677
     31674     31677     31680     31681     31674     31677     31680     31682
     31674     31677     31680     31683     31675     31674     31677     31678
     31675     31674     31677     31679     31675     31674     31677     31680
     31676     31674     31677     31678     31676     31674     31677     31679
     31676     31674     31677     31680     31677     31680     31683     31684
     31677     31680     31683     31685     31678     31677     31680     31681
     31678     31677     31680     31682     31678     31677     31680     31683
     31679     31677     31680     31681     31679     31677     31680     31682
     31679     31677     31680     31683     31680     31683     31685     31686
     31680     31683     31685     31687     31681     31680     31683     31684
     31681     31680     31683     31685     31682     31680     31683     31684
     31682     31680     31683     31685     31683     31685     31687     31688
     31683     31685     31687     31689     31683     31685     31687     31690
     31684     31683     31685     31686     31684     31683     31685     31687
     31685     31687     31690     31691     31685     31687     31690     31692
     31685     31687     31690     31693     31686     31685     31687     31688
     31686     31685     31687     31689     31686     31685     31687     31690
     31687     31690     31693     31694     31687     31690     31693     31695
     31687     31690     31693     31696     31688     31687     31690     31691
     31688     31687     31690     31692     31688     31687     31690     31693
     31689     31687     31690     31691     31689     31687     31690     31692
     31689     31687     31690     31693     31690     31693     31696     31697
     31690     31693     31696     31698     31690     31693     31696     31699
     31691     31690     31693     31694     31691     31690     31693     31695
     31691     31690     31693     31696     31692     31690     31693     31694
     31692     31690     31693     31695     31692     31690     31693     31696
     31693     31696     31699     31700     31693     31696     31699     31701
     31693     31696     31699     31702     31694     31693     31696     31697
     31694     31693     31696     31698     31694     31693     31696     31699
     31695     31693     31696     31697     31695     31693     31696     31698
     31695     31693     31696     31699     31696     31699     31702     31703
     31696     31699     31702     31704     31696     31699     31702     31705
     31697     31696     31699     31700     31697     31696     31699     31701
     31697     31696     31699     31702     31698     31696     31699     31700
     31698     31696     31699     31701     31698     31696     31699     31702
     31699     31702     31705     31706     31699     31702     31705     31707
     31699     31702     31705     31708     31700     31699     31702     31703
     31700     31699     31702     31704     31700     31699     31702     31705
     31701     31699     31702     31703     31701     31699     31702     31704
     31701     31699     31702     31705     31702     31705     31708     31709
     31702     31705     31708     31710     31702     31705     31708     31711
     31703     31702     31705     31706     31703     31702     31705     31707
     31703     31702     31705     31708     31704     31702     31705     31706
     31704     31702     31705     31707     31704     31702     31705     31708
     31706     31705     31708     31709     31706     31705     31708     31710
     31706     31705     31708     31711     31707     31705     31708     31709
     31707     31705     31708     31710     31707     31705     31708     31711
     31712     31715     31718     31719     31712     31715     31718     31720
     31712     31715     31718     31721     31713     31712     31715     31716
     31713     31712     31715     31717     31713     31712     31715     31718
     31714     31712     31715     31716     31714     31712     31715     31717
     31714     31712     31715     31718     31715     31718     31721     31722
     31715     31718     31721     31723     31715     31718     31721     31724
     31716     31715     31718     31719     31716     31715     31718     31720
     31716     31715     31718     31721     31717     31715     31718     31719
     31717     31715     31718     31720     31717     31715     31718     31721
     31718     31721     31724     31725     31718     31721     31724     31726
     31718     31721     31724     31727     31719     31718     31721     31722
     31719     31718     31721     31723     31719     31718     31721     31724
     31720     31718     31721     31722     31720     31718     31721     31723
     31720     31718     31721     31724     31721     31724     31727     31728
     31721     31724     31727     31729     31721     31724     31727     31730
     31722     31721     31724     31725     31722     31721     31724     31726
     31722     31721     31724     31727     31723     31721     31724     31725
     31723     31721     31724     31726     31723     31721     31724     31727
     31724     31727     31730     31731     31724     31727     31730     31732
     31724     31727     31730     31733     31725     31724     31727     31728
     31725     31724     31727     31729     31725     31724     31727     31730
     31726     31724     31727     31728     31726     31724     31727     31729
     31726     31724     31727     31730     31727     31730     31733     31734
     31727     31730     31733     31735     31727     31730     31733     31736
     31728     31727     31730     31731     31728     31727     31730     31732
     31728     31727     31730     31733     31729     31727     31730     31731
     31729     31727     31730     31732     31729     31727     31730     31733
     31730     31733     31736     31737     31730     31733     31736     31738
     31730     31733     31736     31739     31731     31730     31733     31734
     31731     31730     31733     31735     31731     31730     31733     31736
     31732     31730     31733     31734     31732     31730     31733     31735
     31732     31730     31733     31736     31733     31736     31739     31740
     31733     31736     31739     31741     31733     31736     31739     31742
     31734     31733     31736     31737     31734     31733     31736     31738
     31734     31733     31736     31739     31735     31733     31736     31737
     31735     31733     31736     31738     31735     31733     31736     31739
     31736     31739     31742     31743     31736     31739     31742     31744
     31736     31739     31742     31745     31737     31736     31739     31740
     31737     31736     31739     31741     31737     31736     31739     31742
     31738     31736     31739     31740     31738     31736     31739     31741
     31738     31736     31739     31742     31739     31742     31745     31746
     31739     31742     31745     31747     31739     31742     31745     31748
     31740     31739     31742     31743     31740     31739     31742     31744
     31740     31739     31742     31745     31741     31739     31742     31743
     31741     31739     31742     31744     31741     31739     31742     31745
     31742     31745     31748     31749     31742     31745     31748     31750
     31742     31745     31748     31751     31743     31742     31745     31746
     31743     31742     31745     31747     31743     31742     31745     31748
     31744     31742     31745     31746     31744     31742     31745     31747
     31744     31742     31745     31748     31745     31748     31751     31752
     31745     31748     31751     31753     31745     31748     31751     31754
     31746     31745     31748     31749     31746     31745     31748     31750
     31746     31745     31748     31751     31747     31745     31748     31749
     31747     31745     31748     31750     31747     31745     31748     31751
     31749     31748     31751     31752     31749     31748     31751     31753
     31749     31748     31751     31754     31750     31748     31751     31752
     31750     31748     31751     31753     31750     31748     31751     31754
     31755     31756     31771     31772     31755     31756     31771     31773
     31755     31756     31771     31777     31756     31755     31759     31760
     31756     31755     31759     31761     31756     31755     31759     31762
     31756     31755     31763     31764     31756     31755     31763     31765
     31756     31755     31763     31766     31756     31755     31767     31768
     31756     31755     31767     31769     31756     31755     31767     31770
     31756     31771     31777     31774     31757     31756     31755     31759
     31757     31756     31755     31763     31757     31756     31755     31767
     31757     31756     31771     31772     31757     31756     31771     31773
     31757     31756     31771     31777     31758     31756     31755     31759
     31758     31756     31755     31763     31758     31756     31755     31767
     31758     31756     31771     31772     31758     31756     31771     31773
     31758     31756     31771     31777     31759     31755     31756     31771
     31759     31755     31763     31764     31759     31755     31763     31765
     31759     31755     31763     31766     31759     31755     31767     31768
     31759     31755     31767     31769     31759     31755     31767     31770
     31760     31759     31755     31763     31760     31759     31755     31767
     31761     31759     31755     31763     31761     31759     31755     31767
     31762     31759     31755     31763     31762     31759     31755     31767
     31763     31755     31756     31771     31763     31755     31767     31768
     31763     31755     31767     31769     31763     31755     31767     31770
     31764     31763     31755     31767     31765     31763     31755     31767
     31766     31763     31755     31767     31767     31755     31756     31771
     31771     31777     31774     31775     31771     31777     31774     31776
     31771     31777     31774     31778     31772     31771     31777     31774
     31773     31771     31777     31774     31774     31778     31779     31780
     31774     31778     31779     31781     31774     31778     31779     31782
     31775     31774     31778     31779     31776     31774     31778     31779
     31777     31774     31778     31779     31778     31779     31782     31783
     31778     31779     31782     31784     31778     31779     31782     31790
     31779     31782     31784     31785     31779     31782     31790     31791
     31779     31782     31790     31792     31779     31782     31790     31793
     31780     31779     31782     31783     31780     31779     31782     31784
     31780     31779     31782     31790     31781     31779     31782     31783
     31781     31779     31782     31784     31781     31779     31782     31790
     31782     31784     31785     31786     31782     31784     31785     31787
     31782     31790     31793     31794     31783     31782     31784     31785
     31783     31782     31790     31791     31783     31782     31790     31792
     31783     31782     31790     31793     31784     31782     31790     31791
     31784     31782     31790     31792     31784     31782     31790     31793
     31784     31785     31787     31788     31784     31785     31787     31789
     31784     31785     31787     31799     31785     31784     31782     31790
     31785     31787     31799     31800     31785     31787     31799     31801
     31785     31787     31799     31802     31786     31785     31787     31788
     31786     31785     31787     31789     31786     31785     31787     31799
     31787     31799     31802     31803     31787     31799     31802     31804
     31787     31799     31802     31805     31788     31787     31799     31800
     31788     31787     31799     31801     31788     31787     31799     31802
     31789     31787     31799     31800     31789     31787     31799     31801
     31789     31787     31799     31802     31790     31793     31794     31795
     31790     31793     31794     31796     31791     31790     31793     31794
     31792     31790     31793     31794     31793     31794     31796     31797
     31793     31794     31796     31798     31793     31794     31796     31846
     31794     31796     31846     31847     31794     31796     31846     31848
     31794     31796     31846     31849     31795     31794     31796     31797
     31795     31794     31796     31798     31795     31794     31796     31846
     31796     31846     31849     31850     31796     31846     31849     31851
     31796     31846     31849     31852     31797     31796     31846     31847
     31797     31796     31846     31848     31797     31796     31846     31849
     31798     31796     31846     31847     31798     31796     31846     31848
     31798     31796     31846     31849     31799     31802     31805     31806
     31799     31802     31805     31807     31799     31802     31805     31808
     31800     31799     31802     31803     31800     31799     31802     31804
     31800     31799     31802     31805     31801     31799     31802     31803
     31801     31799     31802     31804     31801     31799     31802     31805
     31802     31805     31808     31809     31802     31805     31808     31810
     31802     31805     31808     31811     31803     31802     31805     31806
     31803     31802     31805     31807     31803     31802     31805     31808
     31804     31802     31805     31806     31804     31802     31805     31807
     31804     31802     31805     31808     31805     31808     31811     31812
     31805     31808     31811     31813     31805     31808     31811     31814
     31806     31805     31808     31809     31806     31805     31808     31810
     31806     31805     31808     31811     31807     31805     31808     31809
     31807     31805     31808     31810     31807     31805     31808     31811
     31808     31811     31814     31815     31808     31811     31814     31816
     31808     31811     31814     31817     31809     31808     31811     31812
     31809     31808     31811     31813     31809     31808     31811     31814
     31810     31808     31811     31812     31810     31808     31811     31813
     31810     31808     31811     31814     31811     31814     31817     31818
     31811     31814     31817     31819     31812     31811     31814     31815
     31812     31811     31814     31816     31812     31811     31814     31817
     31813     31811     31814     31815     31813     31811     31814     31816
     31813     31811     31814     31817     31814     31817     31819     31820
     31814     31817     31819     31821     31815     31814     31817     31818
     31815     31814     31817     31819     31816     31814     31817     31818
     31816     31814     31817     31819     31817     31819     31821     31822
     31817     31819     31821     31823     31817     31819     31821     31824
     31818     31817     31819     31820     31818     31817     31819     31821
     31819     31821     31824     31825     31819     31821     31824     31826
     31819     31821     31824     31827     31820     31819     31821     31822
     31820     31819     31821     31823     31820     31819     31821     31824
     31821     31824     31827     31828     31821     31824     31827     31829
     31821     31824     31827     31830     31822     31821     31824     31825
     31822     31821     31824     31826     31822     31821     31824     31827
     31823     31821     31824     31825     31823     31821     31824     31826
     31823     31821     31824     31827     31824     31827     31830     31831
     31824     31827     31830     31832     31824     31827     31830     31833
     31825     31824     31827     31828     31825     31824     31827     31829
     31825     31824     31827     31830     31826     31824     31827     31828
     31826     31824     31827     31829     31826     31824     31827     31830
     31827     31830     31833     31834     31827     31830     31833     31835
     31827     31830     31833     31836     31828     31827     31830     31831
     31828     31827     31830     31832     31828     31827     31830     31833
     31829     31827     31830     31831     31829     31827     31830     31832
     31829     31827     31830     31833     31830     31833     31836     31837
     31830     31833     31836     31838     31830     31833     31836     31839
     31831     31830     31833     31834     31831     31830     31833     31835
     31831     31830     31833     31836     31832     31830     31833     31834
     31832     31830     31833     31835     31832     31830     31833     31836
     31833     31836     31839     31840     31833     31836     31839     31841
     31833     31836     31839     31842     31834     31833     31836     31837
     31834     31833     31836     31838     31834     31833     31836     31839
     31835     31833     31836     31837     31835     31833     31836     31838
     31835     31833     31836     31839     31836     31839     31842     31843
     31836     31839     31842     31844     31836     31839     31842     31845
     31837     31836     31839     31840     31837     31836     31839     31841
     31837     31836     31839     31842     31838     31836     31839     31840
     31838     31836     31839     31841     31838     31836     31839     31842
     31840     31839     31842     31843     31840     31839     31842     31844
     31840     31839     31842     31845     31841     31839     31842     31843
     31841     31839     31842     31844     31841     31839     31842     31845
     31846     31849     31852     31853     31846     31849     31852     31854
     31846     31849     31852     31855     31847     31846     31849     31850
     31847     31846     31849     31851     31847     31846     31849     31852
     31848     31846     31849     31850     31848     31846     31849     31851
     31848     31846     31849     31852     31849     31852     31855     31856
     31849     31852     31855     31857     31849     31852     31855     31858
     31850     31849     31852     31853     31850     31849     31852     31854
     31850     31849     31852     31855     31851     31849     31852     31853
     31851     31849     31852     31854     31851     31849     31852     31855
     31852     31855     31858     31859     31852     31855     31858     31860
     31852     31855     31858     31861     31853     31852     31855     31856
     31853     31852     31855     31857     31853     31852     31855     31858
     31854     31852     31855     31856     31854     31852     31855     31857
     31854     31852     31855     31858     31855     31858     31861     31862
     31855     31858     31861     31863     31855     31858     31861     31864
     31856     31855     31858     31859     31856     31855     31858     31860
     31856     31855     31858     31861     31857     31855     31858     31859
     31857     31855     31858     31860     31857     31855     31858     31861
     31858     31861     31864     31865     31858     31861     31864     31866
     31858     31861     31864     31867     31859     31858     31861     31862
     31859     31858     31861     31863     31859     31858     31861     31864
     31860     31858     31861     31862     31860     31858     31861     31863
     31860     31858     31861     31864     31861     31864     31867     31868
     31861     31864     31867     31869     31861     31864     31867     31870
     31862     31861     31864     31865     31862     31861     31864     31866
     31862     31861     31864     31867     31863     31861     31864     31865
     31863     31861     31864     31866     31863     31861     31864     31867
     31864     31867     31870     31871     31864     31867     31870     31872
     31864     31867     31870     31873     31865     31864     31867     31868
     31865     31864     31867     31869     31865     31864     31867     31870
     31866     31864     31867     31868     31866     31864     31867     31869
     31866     31864     31867     31870     31867     31870     31873     31874
     31867     31870     31873     31875     31867     31870     31873     31876
     31868     31867     31870     31871     31868     31867     31870     31872
     31868     31867     31870     31873     31869     31867     31870     31871
     31869     31867     31870     31872     31869     31867     31870     31873
     31870     31873     31876     31877     31870     31873     31876     31878
     31870     31873     31876     31879     31871     31870     31873     31874
     31871     31870     31873     31875     31871     31870     31873     31876
     31872     31870     31873     31874     31872     31870     31873     31875
     31872     31870     31873     31876     31873     31876     31879     31880
     31873     31876     31879     31881     31873     31876     31879     31882
     31874     31873     31876     31877     31874     31873     31876     31878
     31874     31873     31876     31879     31875     31873     31876     31877
     31875     31873     31876     31878     31875     31873     31876     31879
     31876     31879     31882     31883     31876     31879     31882     31884
     31876     31879     31882     31885     31877     31876     31879     31880
     31877     31876     31879     31881     31877     31876     31879     31882
     31878     31876     31879     31880     31878     31876     31879     31881
     31878     31876     31879     31882     31879     31882     31885     31886
     31879     31882     31885     31887     31879     31882     31885     31888
     31880     31879     31882     31883     31880     31879     31882     31884
     31880     31879     31882     31885     31881     31879     31882     31883
     31881     31879     31882     31884     31881     31879     31882     31885
     31883     31882     31885     31886     31883     31882     31885     31887
     31883     31882     31885     31888     31884     31882     31885     31886
     31884     31882     31885     31887     31884     31882     31885     31888
     31889     31890     31905     31906     31889     31890     31905     31907
     31889     31890     31905     31911     31890     31889     31893     31894
     31890     31889     31893     31895     31890     31889     31893     31896
     31890     31889     31897     31898     31890     31889     31897     31899
     31890     31889     31897     31900     31890     31889     31901     31902
     31890     31889     31901     31903     31890     31889     31901     31904
     31890     31905     31911     31908     31891     31890     31889     31893
     31891     31890     31889     31897     31891     31890     31889     31901
     31891     31890     31905     31906     31891     31890     31905     31907
     31891     31890     31905     31911     31892     31890     31889     31893
     31892     31890     31889     31897     31892     31890     31889     31901
     31892     31890     31905     31906     31892     31890     31905     31907
     31892     31890     31905     31911     31893     31889     31890     31905
     31893     31889     31897     31898     31893     31889     31897     31899
     31893     31889     31897     31900     31893     31889     31901     31902
     31893     31889     31901     31903     31893     31889     31901     31904
     31894     31893     31889     31897     31894     31893     31889     31901
     31895     31893     31889     31897     31895     31893     31889     31901
     31896     31893     31889     31897     31896     31893     31889     31901
     31897     31889     31890     31905     31897     31889     31901     31902
     31897     31889     31901     31903     31897     31889     31901     31904
     31898     31897     31889     31901     31899     31897     31889     31901
     31900     31897     31889     31901     31901     31889     31890     31905
     31905     31911     31908     31909     31905     31911     31908     31910
     31905     31911     31908     31912     31906     31905     31911     31908
     31907     31905     31911     31908     31908     31912     31913     31914
     31908     31912     31913     31915     31908     31912     31913     31916
     31909     31908     31912     31913     31910     31908     31912     31913
     31911     31908     31912     31913     31912     31913     31916     31917
     31912     31913     31916     31918     31912     31913     31916     31924
     31913     31916     31918     31919     31913     31916     31924     31925
     31913     31916     31924     31926     31913     31916     31924     31927
     31914     31913     31916     31917     31914     31913     31916     31918
     31914     31913     31916     31924     31915     31913     31916     31917
     31915     31913     31916     31918     31915     31913     31916     31924
     31916     31918     31919     31920     31916     31918     31919     31921
     31916     31924     31927     31928     31917     31916     31918     31919
     31917     31916     31924     31925     31917     31916     31924     31926
     31917     31916     31924     31927     31918     31916     31924     31925
     31918     31916     31924     31926     31918     31916     31924     31927
     31918     31919     31921     31922     31918     31919     31921     31923
     31918     31919     31921     31933     31919     31918     31916     31924
     31919     31921     31933     31934     31919     31921     31933     31935
     31919     31921     31933     31936     31920     31919     31921     31922
     31920     31919     31921     31923     31920     31919     31921     31933
     31921     31933     31936     31937     31921     31933     31936     31938
     31921     31933     31936     31939     31922     31921     31933     31934
     31922     31921     31933     31935     31922     31921     31933     31936
     31923     31921     31933     31934     31923     31921     31933     31935
     31923     31921     31933     31936     31924     31927     31928     31929
     31924     31927     31928     31930     31925     31924     31927     31928
     31926     31924     31927     31928     31927     31928     31930     31931
     31927     31928     31930     31932     31927     31928     31930     31980
     31928     31930     31980     31981     31928     31930     31980     31982
     31928     31930     31980     31983     31929     31928     31930     31931
     31929     31928     31930     31932     31929     31928     31930     31980
     31930     31980     31983     31984     31930     31980     31983     31985
     31930     31980     31983     31986     31931     31930     31980     31981
     31931     31930     31980     31982     31931     31930     31980     31983
     31932     31930     31980     31981     31932     31930     31980     31982
     31932     31930     31980     31983     31933     31936     31939     31940
     31933     31936     31939     31941     31933     31936     31939     31942
     31934     31933     31936     31937     31934     31933     31936     31938
     31934     31933     31936     31939     31935     31933     31936     31937
     31935     31933     31936     31938     31935     31933     31936     31939
     31936     31939     31942     31943     31936     31939     31942     31944
     31936     31939     31942     31945     31937     31936     31939     31940
     31937     31936     31939     31941     31937     31936     31939     31942
     31938     31936     31939     31940     31938     31936     31939     31941
     31938     31936     31939     31942     31939     31942     31945     31946
     31939     31942     31945     31947     31939     31942     31945     31948
     31940     31939     31942     31943     31940     31939     31942     31944
     31940     31939     31942     31945     31941     31939     31942     31943
     31941     31939     31942     31944     31941     31939     31942     31945
     31942     31945     31948     31949     31942     31945     31948     31950
     31942     31945     31948     31951     31943     31942     31945     31946
     31943     31942     31945     31947     31943     31942     31945     31948
     31944     31942     31945     31946     31944     31942     31945     31947
     31944     31942     31945     31948     31945     31948     31951     31952
     31945     31948     31951     31953     31946     31945     31948     31949
     31946     31945     31948     31950     31946     31945     31948     31951
     31947     31945     31948     31949     31947     31945     31948     31950
     31947     31945     31948     31951     31948     31951     31953     31954
     31948     31951     31953     31955     31949     31948     31951     31952
     31949     31948     31951     31953     31950     31948     31951     31952
     31950     31948     31951     31953     31951     31953     31955     31956
     31951     31953     31955     31957     31951     31953     31955     31958
     31952     31951     31953     31954     31952     31951     31953     31955
     31953     31955     31958     31959     31953     31955     31958     31960
     31953     31955     31958     31961     31954     31953     31955     31956
     31954     31953     31955     31957     31954     31953     31955     31958
     31955     31958     31961     31962     31955     31958     31961     31963
     31955     31958     31961     31964     31956     31955     31958     31959
     31956     31955     31958     31960     31956     31955     31958     31961
     31957     31955     31958     31959     31957     31955     31958     31960
     31957     31955     31958     31961     31958     31961     31964     31965
     31958     31961     31964     31966     31958     31961     31964     31967
     31959     31958     31961     31962     31959     31958     31961     31963
     31959     31958     31961     31964     31960     31958     31961     31962
     31960     31958     31961     31963     31960     31958     31961     31964
     31961     31964     31967     31968     31961     31964     31967     31969
     31961     31964     31967     31970     31962     31961     31964     31965
     31962     31961     31964     31966     31962     31961     31964     31967
     31963     31961     31964     31965     31963     31961     31964     31966
     31963     31961     31964     31967     31964     31967     31970     31971
     31964     31967     31970     31972     31964     31967     31970     31973
     31965     31964     31967     31968     31965     31964     31967     31969
     31965     31964     31967     31970     31966     31964     31967     31968
     31966     31964     31967     31969     31966     31964     31967     31970
     31967     31970     31973     31974     31967     31970     31973     31975
     31967     31970     31973     31976     31968     31967     31970     31971
     31968     31967     31970     31972     31968     31967     31970     31973
     31969     31967     31970     31971     31969     31967     31970     31972
     31969     31967     31970     31973     31970     31973     31976     31977
     31970     31973     31976     31978     31970     31973     31976     31979
     31971     31970     31973     31974     31971     31970     31973     31975
     31971     31970     31973     31976     31972     31970     31973     31974
     31972     31970     31973     31975     31972     31970     31973     31976
     31974     31973     31976     31977     31974     31973     31976     31978
     31974     31973     31976     31979     31975     31973     31976     31977
     31975     31973     31976     31978     31975     31973     31976     31979
     31980     31983     31986     31987     31980     31983     31986     31988
     31980     31983     31986     31989     31981     31980     31983     31984
     31981     31980     31983     31985     31981     31980     31983     31986
     31982     31980     31983     31984     31982     31980     31983     31985
     31982     31980     31983     31986     31983     31986     31989     31990
     31983     31986     31989     31991     31983     31986     31989     31992
     31984     31983     31986     31987     31984     31983     31986     31988
     31984     31983     31986     31989     31985     31983     31986     31987
     31985     31983     31986     31988     31985     31983     31986     31989
     31986     31989     31992     31993     31986     31989     31992     31994
     31986     31989     31992     31995     31987     31986     31989     31990
     31987     31986     31989     31991     31987     31986     31989     31992
     31988     31986     31989     31990     31988     31986     31989     31991
     31988     31986     31989     31992     31989     31992     31995     31996
     31989     31992     31995     31997     31989     31992     31995     31998
     31990     31989     31992     31993     31990     31989     31992     31994
     31990     31989     31992     31995     31991     31989     31992     31993
     31991     31989     31992     31994     31991     31989     31992     31995
     31992     31995     31998     31999     31992     31995     31998     32000
     31992     31995     31998     32001     31993     31992     31995     31996
     31993     31992     31995     31997     31993     31992     31995     31998
     31994     31992     31995     31996     31994     31992     31995     31997
     31994     31992     31995     31998     31995     31998     32001     32002
     31995     31998     32001     32003     31995     31998     32001     32004
     31996     31995     31998     31999     31996     31995     31998     32000
     31996     31995     31998     32001     31997     31995     31998     31999
     31997     31995     31998     32000     31997     31995     31998     32001
     31998     32001     32004     32005     31998     32001     32004     32006
     31998     32001     32004     32007     31999     31998     32001     32002
     31999     31998     32001     32003     31999     31998     32001     32004
     32000     31998     32001     32002     32000     31998     32001     32003
     32000     31998     32001     32004     32001     32004     32007     32008
     32001     32004     32007     32009     32001     32004     32007     32010
     32002     32001     32004     32005     32002     32001     32004     32006
     32002     32001     32004     32007     32003     32001     32004     32005
     32003     32001     32004     32006     32003     32001     32004     32007
     32004     32007     32010     32011     32004     32007     32010     32012
     32004     32007     32010     32013     32005     32004     32007     32008
     32005     32004     32007     32009     32005     32004     32007     32010
     32006     32004     32007     32008     32006     32004     32007     32009
     32006     32004     32007     32010     32007     32010     32013     32014
     32007     32010     32013     32015     32007     32010     32013     32016
     32008     32007     32010     32011     32008     32007     32010     32012
     32008     32007     32010     32013     32009     32007     32010     32011
     32009     32007     32010     32012     32009     32007     32010     32013
     32010     32013     32016     32017     32010     32013     32016     32018
     32010     32013     32016     32019     32011     32010     32013     32014
     32011     32010     32013     32015     32011     32010     32013     32016
     32012     32010     32013     32014     32012     32010     32013     32015
     32012     32010     32013     32016     32013     32016     32019     32020
     32013     32016     32019     32021     32013     32016     32019     32022
     32014     32013     32016     32017     32014     32013     32016     32018
     32014     32013     32016     32019     32015     32013     32016     32017
     32015     32013     32016     32018     32015     32013     32016     32019
     32017     32016     32019     32020     32017     32016     32019     32021
     32017     32016     32019     32022     32018     32016     32019     32020
     32018     32016     32019     32021     32018     32016     32019     32022
     32023     32027     32030     32031     32023     32027     32030     32032
     32023     32027     32030     32037     32024     32023     32027     32028
     32024     32023     32027     32029     32024     32023     32027     32030
     32025     32023     32027     32028     32025     32023     32027     32029
     32025     32023     32027     32030     32026     32023     32027     32028
     32026     32023     32027     32029     32026     32023     32027     32030
     32027     32030     32037     32033     32028     32027     32030     32031
     32028     32027     32030     32032     32028     32027     32030     32037
     32029     32027     32030     32031     32029     32027     32030     32032
     32029     32027     32030     32037     32030     32037     32033     32034
     32030     32037     32033     32035     32030     32037     32033     32036
     32031     32030     32037     32033     32032     32030     32037     32033
     32033     32036     32038     32039     32033     32036     32038     32040
     32033     32036     32038     32041     32034     32033     32036     32038
     32035     32033     32036     32038     32036     32038     32041     32042
     32036     32038     32041     32043     32036     32038     32041     32049
     32037     32033     32036     32038     32038     32041     32043     32044
     32038     32041     32049     32050     32038     32041     32049     32051
     32038     32041     32049     32052     32039     32038     32041     32042
     32039     32038     32041     32043     32039     32038     32041     32049
     32040     32038     32041     32042     32040     32038     32041     32043
     32040     32038     32041     32049     32041     32043     32044     32045
     32041     32043     32044     32046     32041     32049     32052     32053
     32042     32041     32043     32044     32042     32041     32049     32050
     32042     32041     32049     32051     32042     32041     32049     32052
     32043     32041     32049     32050     32043     32041     32049     32051
     32043     32041     32049     32052     32043     32044     32046     32047
     32043     32044     32046     32048     32043     32044     32046     32058
     32044     32043     32041     32049     32044     32046     32058     32059
     32044     32046     32058     32060     32044     32046     32058     32061
     32045     32044     32046     32047     32045     32044     32046     32048
     32045     32044     32046     32058     32046     32058     32061     32062
     32046     32058     32061     32063     32046     32058     32061     32064
     32047     32046     32058     32059     32047     32046     32058     32060
     32047     32046     32058     32061     32048     32046     32058     32059
     32048     32046     32058     32060     32048     32046     32058     32061
     32049     32052     32053     32054     32049     32052     32053     32055
     32050     32049     32052     32053     32051     32049     32052     32053
     32052     32053     32055     32056     32052     32053     32055     32057
     32052     32053     32055     32105     32053     32055     32105     32106
     32053     32055     32105     32107     32053     32055     32105     32108
     32054     32053     32055     32056     32054     32053     32055     32057
     32054     32053     32055     32105     32055     32105     32108     32109
     32055     32105     32108     32110     32055     32105     32108     32111
     32056     32055     32105     32106     32056     32055     32105     32107
     32056     32055     32105     32108     32057     32055     32105     32106
     32057     32055     32105     32107     32057     32055     32105     32108
     32058     32061     32064     32065     32058     32061     32064     32066
     32058     32061     32064     32067     32059     32058     32061     32062
     32059     32058     32061     32063     32059     32058     32061     32064
     32060     32058     32061     32062     32060     32058     32061     32063
     32060     32058     32061     32064     32061     32064     32067     32068
     32061     32064     32067     32069     32061     32064     32067     32070
     32062     32061     32064     32065     32062     32061     32064     32066
     32062     32061     32064     32067     32063     32061     32064     32065
     32063     32061     32064     32066     32063     32061     32064     32067
     32064     32067     32070     32071     32064     32067     32070     32072
     32064     32067     32070     32073     32065     32064     32067     32068
     32065     32064     32067     32069     32065     32064     32067     32070
     32066     32064     32067     32068     32066     32064     32067     32069
     32066     32064     32067     32070     32067     32070     32073     32074
     32067     32070     32073     32075     32067     32070     32073     32076
     32068     32067     32070     32071     32068     32067     32070     32072
     32068     32067     32070     32073     32069     32067     32070     32071
     32069     32067     32070     32072     32069     32067     32070     32073
     32070     32073     32076     32077     32070     32073     32076     32078
     32071     32070     32073     32074     32071     32070     32073     32075
     32071     32070     32073     32076     32072     32070     32073     32074
     32072     32070     32073     32075     32072     32070     32073     32076
     32073     32076     32078     32079     32073     32076     32078     32080
     32074     32073     32076     32077     32074     32073     32076     32078
     32075     32073     32076     32077     32075     32073     32076     32078
     32076     32078     32080     32081     32076     32078     32080     32082
     32076     32078     32080     32083     32077     32076     32078     32079
     32077     32076     32078     32080     32078     32080     32083     32084
     32078     32080     32083     32085     32078     32080     32083     32086
     32079     32078     32080     32081     32079     32078     32080     32082
     32079     32078     32080     32083     32080     32083     32086     32087
     32080     32083     32086     32088     32080     32083     32086     32089
     32081     32080     32083     32084     32081     32080     32083     32085
     32081     32080     32083     32086     32082     32080     32083     32084
     32082     32080     32083     32085     32082     32080     32083     32086
     32083     32086     32089     32090     32083     32086     32089     32091
     32083     32086     32089     32092     32084     32083     32086     32087
     32084     32083     32086     32088     32084     32083     32086     32089
     32085     32083     32086     32087     32085     32083     32086     32088
     32085     32083     32086     32089     32086     32089     32092     32093
     32086     32089     32092     32094     32086     32089     32092     32095
     32087     32086     32089     32090     32087     32086     32089     32091
     32087     32086     32089     32092     32088     32086     32089     32090
     32088     32086     32089     32091     32088     32086     32089     32092
     32089     32092     32095     32096     32089     32092     32095     32097
     32089     32092     32095     32098     32090     32089     32092     32093
     32090     32089     32092     32094     32090     32089     32092     32095
     32091     32089     32092     32093     32091     32089     32092     32094
     32091     32089     32092     32095     32092     32095     32098     32099
     32092     32095     32098     32100     32092     32095     32098     32101
     32093     32092     32095     32096     32093     32092     32095     32097
     32093     32092     32095     32098     32094     32092     32095     32096
     32094     32092     32095     32097     32094     32092     32095     32098
     32095     32098     32101     32102     32095     32098     32101     32103
     32095     32098     32101     32104     32096     32095     32098     32099
     32096     32095     32098     32100     32096     32095     32098     32101
     32097     32095     32098     32099     32097     32095     32098     32100
     32097     32095     32098     32101     32099     32098     32101     32102
     32099     32098     32101     32103     32099     32098     32101     32104
     32100     32098     32101     32102     32100     32098     32101     32103
     32100     32098     32101     32104     32105     32108     32111     32112
     32105     32108     32111     32113     32105     32108     32111     32114
     32106     32105     32108     32109     32106     32105     32108     32110
     32106     32105     32108     32111     32107     32105     32108     32109
     32107     32105     32108     32110     32107     32105     32108     32111
     32108     32111     32114     32115     32108     32111     32114     32116
     32108     32111     32114     32117     32109     32108     32111     32112
     32109     32108     32111     32113     32109     32108     32111     32114
     32110     32108     32111     32112     32110     32108     32111     32113
     32110     32108     32111     32114     32111     32114     32117     32118
     32111     32114     32117     32119     32111     32114     32117     32120
     32112     32111     32114     32115     32112     32111     32114     32116
     32112     32111     32114     32117     32113     32111     32114     32115
     32113     32111     32114     32116     32113     32111     32114     32117
     32114     32117     32120     32121     32114     32117     32120     32122
     32114     32117     32120     32123     32115     32114     32117     32118
     32115     32114     32117     32119     32115     32114     32117     32120
     32116     32114     32117     32118     32116     32114     32117     32119
     32116     32114     32117     32120     32117     32120     32123     32124
     32117     32120     32123     32125     32117     32120     32123     32126
     32118     32117     32120     32121     32118     32117     32120     32122
     32118     32117     32120     32123     32119     32117     32120     32121
     32119     32117     32120     32122     32119     32117     32120     32123
     32120     32123     32126     32127     32120     32123     32126     32128
     32120     32123     32126     32129     32121     32120     32123     32124
     32121     32120     32123     32125     32121     32120     32123     32126
     32122     32120     32123     32124     32122     32120     32123     32125
     32122     32120     32123     32126     32123     32126     32129     32130
     32123     32126     32129     32131     32123     32126     32129     32132
     32124     32123     32126     32127     32124     32123     32126     32128
     32124     32123     32126     32129     32125     32123     32126     32127
     32125     32123     32126     32128     32125     32123     32126     32129
     32126     32129     32132     32133     32126     32129     32132     32134
     32126     32129     32132     32135     32127     32126     32129     32130
     32127     32126     32129     32131     32127     32126     32129     32132
     32128     32126     32129     32130     32128     32126     32129     32131
     32128     32126     32129     32132     32129     32132     32135     32136
     32129     32132     32135     32137     32129     32132     32135     32138
     32130     32129     32132     32133     32130     32129     32132     32134
     32130     32129     32132     32135     32131     32129     32132     32133
     32131     32129     32132     32134     32131     32129     32132     32135
     32132     32135     32138     32139     32132     32135     32138     32140
     32132     32135     32138     32141     32133     32132     32135     32136
     32133     32132     32135     32137     32133     32132     32135     32138
     32134     32132     32135     32136     32134     32132     32135     32137
     32134     32132     32135     32138     32135     32138     32141     32142
     32135     32138     32141     32143     32135     32138     32141     32144
     32136     32135     32138     32139     32136     32135     32138     32140
     32136     32135     32138     32141     32137     32135     32138     32139
     32137     32135     32138     32140     32137     32135     32138     32141
     32138     32141     32144     32145     32138     32141     32144     32146
     32138     32141     32144     32147     32139     32138     32141     32142
     32139     32138     32141     32143     32139     32138     32141     32144
     32140     32138     32141     32142     32140     32138     32141     32143
     32140     32138     32141     32144     32142     32141     32144     32145
     32142     32141     32144     32146     32142     32141     32144     32147
     32143     32141     32144     32145     32143     32141     32144     32146
     32143     32141     32144     32147     32148     32149     32164     32165
     32148     32149     32164     32166     32148     32149     32164     32170
     32149     32148     32152     32153     32149     32148     32152     32154
     32149     32148     32152     32155     32149     32148     32156     32157
     32149     32148     32156     32158     32149     32148     32156     32159
     32149     32148     32160     32161     32149     32148     32160     32162
     32149     32148     32160     32163     32149     32164     32170     32167
     32150     32149     32148     32152     32150     32149     32148     32156
     32150     32149     32148     32160     32150     32149     32164     32165
     32150     32149     32164     32166     32150     32149     32164     32170
     32151     32149     32148     32152     32151     32149     32148     32156
     32151     32149     32148     32160     32151     32149     32164     32165
     32151     32149     32164     32166     32151     32149     32164     32170
     32152     32148     32149     32164     32152     32148     32156     32157
     32152     32148     32156     32158     32152     32148     32156     32159
     32152     32148     32160     32161     32152     32148     32160     32162
     32152     32148     32160     32163     32153     32152     32148     32156
     32153     32152     32148     32160     32154     32152     32148     32156
     32154     32152     32148     32160     32155     32152     32148     32156
     32155     32152     32148     32160     32156     32148     32149     32164
     32156     32148     32160     32161     32156     32148     32160     32162
     32156     32148     32160     32163     32157     32156     32148     32160
     32158     32156     32148     32160     32159     32156     32148     32160
     32160     32148     32149     32164     32164     32170     32167     32168
     32164     32170     32167     32169     32164     32170     32167     32171
     32165     32164     32170     32167     32166     32164     32170     32167
     32167     32171     32172     32173     32167     32171     32172     32174
     32167     32171     32172     32175     32168     32167     32171     32172
     32169     32167     32171     32172     32170     32167     32171     32172
     32171     32172     32175     32176     32171     32172     32175     32177
     32171     32172     32175     32183     32172     32175     32177     32178
     32172     32175     32183     32184     32172     32175     32183     32185
     32172     32175     32183     32186     32173     32172     32175     32176
     32173     32172     32175     32177     32173     32172     32175     32183
     32174     32172     32175     32176     32174     32172     32175     32177
     32174     32172     32175     32183     32175     32177     32178     32179
     32175     32177     32178     32180     32175     32183     32186     32187
     32176     32175     32177     32178     32176     32175     32183     32184
     32176     32175     32183     32185     32176     32175     32183     32186
     32177     32175     32183     32184     32177     32175     32183     32185
     32177     32175     32183     32186     32177     32178     32180     32181
     32177     32178     32180     32182     32177     32178     32180     32192
     32178     32177     32175     32183     32178     32180     32192     32193
     32178     32180     32192     32194     32178     32180     32192     32195
     32179     32178     32180     32181     32179     32178     32180     32182
     32179     32178     32180     32192     32180     32192     32195     32196
     32180     32192     32195     32197     32180     32192     32195     32198
     32181     32180     32192     32193     32181     32180     32192     32194
     32181     32180     32192     32195     32182     32180     32192     32193
     32182     32180     32192     32194     32182     32180     32192     32195
     32183     32186     32187     32188     32183     32186     32187     32189
     32184     32183     32186     32187     32185     32183     32186     32187
     32186     32187     32189     32190     32186     32187     32189     32191
     32186     32187     32189     32239     32187     32189     32239     32240
     32187     32189     32239     32241     32187     32189     32239     32242
     32188     32187     32189     32190     32188     32187     32189     32191
     32188     32187     32189     32239     32189     32239     32242     32243
     32189     32239     32242     32244     32189     32239     32242     32245
     32190     32189     32239     32240     32190     32189     32239     32241
     32190     32189     32239     32242     32191     32189     32239     32240
     32191     32189     32239     32241     32191     32189     32239     32242
     32192     32195     32198     32199     32192     32195     32198     32200
     32192     32195     32198     32201     32193     32192     32195     32196
     32193     32192     32195     32197     32193     32192     32195     32198
     32194     32192     32195     32196     32194     32192     32195     32197
     32194     32192     32195     32198     32195     32198     32201     32202
     32195     32198     32201     32203     32195     32198     32201     32204
     32196     32195     32198     32199     32196     32195     32198     32200
     32196     32195     32198     32201     32197     32195     32198     32199
     32197     32195     32198     32200     32197     32195     32198     32201
     32198     32201     32204     32205     32198     32201     32204     32206
     32198     32201     32204     32207     32199     32198     32201     32202
     32199     32198     32201     32203     32199     32198     32201     32204
     32200     32198     32201     32202     32200     32198     32201     32203
     32200     32198     32201     32204     32201     32204     32207     32208
     32201     32204     32207     32209     32201     32204     32207     32210
     32202     32201     32204     32205     32202     32201     32204     32206
     32202     32201     32204     32207     32203     32201     32204     32205
     32203     32201     32204     32206     32203     32201     32204     32207
     32204     32207     32210     32211     32204     32207     32210     32212
     32205     32204     32207     32208     32205     32204     32207     32209
     32205     32204     32207     32210     32206     32204     32207     32208
     32206     32204     32207     32209     32206     32204     32207     32210
     32207     32210     32212     32213     32207     32210     32212     32214
     32208     32207     32210     32211     32208     32207     32210     32212
     32209     32207     32210     32211     32209     32207     32210     32212
     32210     32212     32214     32215     32210     32212     32214     32216
     32210     32212     32214     32217     32211     32210     32212     32213
     32211     32210     32212     32214     32212     32214     32217     32218
     32212     32214     32217     32219     32212     32214     32217     32220
     32213     32212     32214     32215     32213     32212     32214     32216
     32213     32212     32214     32217     32214     32217     32220     32221
     32214     32217     32220     32222     32214     32217     32220     32223
     32215     32214     32217     32218     32215     32214     32217     32219
     32215     32214     32217     32220     32216     32214     32217     32218
     32216     32214     32217     32219     32216     32214     32217     32220
     32217     32220     32223     32224     32217     32220     32223     32225
     32217     32220     32223     32226     32218     32217     32220     32221
     32218     32217     32220     32222     32218     32217     32220     32223
     32219     32217     32220     32221     32219     32217     32220     32222
     32219     32217     32220     32223     32220     32223     32226     32227
     32220     32223     32226     32228     32220     32223     32226     32229
     32221     32220     32223     32224     32221     32220     32223     32225
     32221     32220     32223     32226     32222     32220     32223     32224
     32222     32220     32223     32225     32222     32220     32223     32226
     32223     32226     32229     32230     32223     32226     32229     32231
     32223     32226     32229     32232     32224     32223     32226     32227
     32224     32223     32226     32228     32224     32223     32226     32229
     32225     32223     32226     32227     32225     32223     32226     32228
     32225     32223     32226     32229     32226     32229     32232     32233
     32226     32229     32232     32234     32226     32229     32232     32235
     32227     32226     32229     32230     32227     32226     32229     32231
     32227     32226     32229     32232     32228     32226     32229     32230
     32228     32226     32229     32231     32228     32226     32229     32232
     32229     32232     32235     32236     32229     32232     32235     32237
     32229     32232     32235     32238     32230     32229     32232     32233
     32230     32229     32232     32234     32230     32229     32232     32235
     32231     32229     32232     32233     32231     32229     32232     32234
     32231     32229     32232     32235     32233     32232     32235     32236
     32233     32232     32235     32237     32233     32232     32235     32238
     32234     32232     32235     32236     32234     32232     32235     32237
     32234     32232     32235     32238     32239     32242     32245     32246
     32239     32242     32245     32247     32239     32242     32245     32248
     32240     32239     32242     32243     32240     32239     32242     32244
     32240     32239     32242     32245     32241     32239     32242     32243
     32241     32239     32242     32244     32241     32239     32242     32245
     32242     32245     32248     32249     32242     32245     32248     32250
     32242     32245     32248     32251     32243     32242     32245     32246
     32243     32242     32245     32247     32243     32242     32245     32248
     32244     32242     32245     32246     32244     32242     32245     32247
     32244     32242     32245     32248     32245     32248     32251     32252
     32245     32248     32251     32253     32245     32248     32251     32254
     32246     32245     32248     32249     32246     32245     32248     32250
     32246     32245     32248     32251     32247     32245     32248     32249
     32247     32245     32248     32250     32247     32245     32248     32251
     32248     32251     32254     32255     32248     32251     32254     32256
     32248     32251     32254     32257     32249     32248     32251     32252
     32249     32248     32251     32253     32249     32248     32251     32254
     32250     32248     32251     32252     32250     32248     32251     32253
     32250     32248     32251     32254     32251     32254     32257     32258
     32251     32254     32257     32259     32251     32254     32257     32260
     32252     32251     32254     32255     32252     32251     32254     32256
     32252     32251     32254     32257     32253     32251     32254     32255
     32253     32251     32254     32256     32253     32251     32254     32257
     32254     32257     32260     32261     32254     32257     32260     32262
     32254     32257     32260     32263     32255     32254     32257     32258
     32255     32254     32257     32259     32255     32254     32257     32260
     32256     32254     32257     32258     32256     32254     32257     32259
     32256     32254     32257     32260     32257     32260     32263     32264
     32257     32260     32263     32265     32257     32260     32263     32266
     32258     32257     32260     32261     32258     32257     32260     32262
     32258     32257     32260     32263     32259     32257     32260     32261
     32259     32257     32260     32262     32259     32257     32260     32263
     32260     32263     32266     32267     32260     32263     32266     32268
     32260     32263     32266     32269     32261     32260     32263     32264
     32261     32260     32263     32265     32261     32260     32263     32266
     32262     32260     32263     32264     32262     32260     32263     32265
     32262     32260     32263     32266     32263     32266     32269     32270
     32263     32266     32269     32271     32263     32266     32269     32272
     32264     32263     32266     32267     32264     32263     32266     32268
     32264     32263     32266     32269     32265     32263     32266     32267
     32265     32263     32266     32268     32265     32263     32266     32269
     32266     32269     32272     32273     32266     32269     32272     32274
     32266     32269     32272     32275     32267     32266     32269     32270
     32267     32266     32269     32271     32267     32266     32269     32272
     32268     32266     32269     32270     32268     32266     32269     32271
     32268     32266     32269     32272     32269     32272     32275     32276
     32269     32272     32275     32277     32269     32272     32275     32278
     32270     32269     32272     32273     32270     32269     32272     32274
     32270     32269     32272     32275     32271     32269     32272     32273
     32271     32269     32272     32274     32271     32269     32272     32275
     32272     32275     32278     32279     32272     32275     32278     32280
     32272     32275     32278     32281     32273     32272     32275     32276
     32273     32272     32275     32277     32273     32272     32275     32278
     32274     32272     32275     32276     32274     32272     32275     32277
     32274     32272     32275     32278     32276     32275     32278     32279
     32276     32275     32278     32280     32276     32275     32278     32281
     32277     32275     32278     32279     32277     32275     32278     32280
     32277     32275     32278     32281     32282     32286     32289     32290
     32282     32286     32289     32291     32282     32286     32289     32296
     32283     32282     32286     32287     32283     32282     32286     32288
     32283     32282     32286     32289     32284     32282     32286     32287
     32284     32282     32286     32288     32284     32282     32286     32289
     32285     32282     32286     32287     32285     32282     32286     32288
     32285     32282     32286     32289     32286     32289     32296     32292
     32287     32286     32289     32290     32287     32286     32289     32291
     32287     32286     32289     32296     32288     32286     32289     32290
     32288     32286     32289     32291     32288     32286     32289     32296
     32289     32296     32292     32293     32289     32296     32292     32294
     32289     32296     32292     32295     32290     32289     32296     32292
     32291     32289     32296     32292     32292     32295     32297     32298
     32292     32295     32297     32299     32292     32295     32297     32300
     32293     32292     32295     32297     32294     32292     32295     32297
     32295     32297     32300     32301     32295     32297     32300     32302
     32295     32297     32300     32308     32296     32292     32295     32297
     32297     32300     32302     32303     32297     32300     32308     32309
     32297     32300     32308     32310     32297     32300     32308     32311
     32298     32297     32300     32301     32298     32297     32300     32302
     32298     32297     32300     32308     32299     32297     32300     32301
     32299     32297     32300     32302     32299     32297     32300     32308
     32300     32302     32303     32304     32300     32302     32303     32305
     32300     32308     32311     32312     32301     32300     32302     32303
     32301     32300     32308     32309     32301     32300     32308     32310
     32301     32300     32308     32311     32302     32300     32308     32309
     32302     32300     32308     32310     32302     32300     32308     32311
     32302     32303     32305     32306     32302     32303     32305     32307
     32302     32303     32305     32317     32303     32302     32300     32308
     32303     32305     32317     32318     32303     32305     32317     32319
     32303     32305     32317     32320     32304     32303     32305     32306
     32304     32303     32305     32307     32304     32303     32305     32317
     32305     32317     32320     32321     32305     32317     32320     32322
     32305     32317     32320     32323     32306     32305     32317     32318
     32306     32305     32317     32319     32306     32305     32317     32320
     32307     32305     32317     32318     32307     32305     32317     32319
     32307     32305     32317     32320     32308     32311     32312     32313
     32308     32311     32312     32314     32309     32308     32311     32312
     32310     32308     32311     32312     32311     32312     32314     32315
     32311     32312     32314     32316     32311     32312     32314     32364
     32312     32314     32364     32365     32312     32314     32364     32366
     32312     32314     32364     32367     32313     32312     32314     32315
     32313     32312     32314     32316     32313     32312     32314     32364
     32314     32364     32367     32368     32314     32364     32367     32369
     32314     32364     32367     32370     32315     32314     32364     32365
     32315     32314     32364     32366     32315     32314     32364     32367
     32316     32314     32364     32365     32316     32314     32364     32366
     32316     32314     32364     32367     32317     32320     32323     32324
     32317     32320     32323     32325     32317     32320     32323     32326
     32318     32317     32320     32321     32318     32317     32320     32322
     32318     32317     32320     32323     32319     32317     32320     32321
     32319     32317     32320     32322     32319     32317     32320     32323
     32320     32323     32326     32327     32320     32323     32326     32328
     32320     32323     32326     32329     32321     32320     32323     32324
     32321     32320     32323     32325     32321     32320     32323     32326
     32322     32320     32323     32324     32322     32320     32323     32325
     32322     32320     32323     32326     32323     32326     32329     32330
     32323     32326     32329     32331     32323     32326     32329     32332
     32324     32323     32326     32327     32324     32323     32326     32328
     32324     32323     32326     32329     32325     32323     32326     32327
     32325     32323     32326     32328     32325     32323     32326     32329
     32326     32329     32332     32333     32326     32329     32332     32334
     32326     32329     32332     32335     32327     32326     32329     32330
     32327     32326     32329     32331     32327     32326     32329     32332
     32328     32326     32329     32330     32328     32326     32329     32331
     32328     32326     32329     32332     32329     32332     32335     32336
     32329     32332     32335     32337     32330     32329     32332     32333
     32330     32329     32332     32334     32330     32329     32332     32335
     32331     32329     32332     32333     32331     32329     32332     32334
     32331     32329     32332     32335     32332     32335     32337     32338
     32332     32335     32337     32339     32333     32332     32335     32336
     32333     32332     32335     32337     32334     32332     32335     32336
     32334     32332     32335     32337     32335     32337     32339     32340
     32335     32337     32339     32341     32335     32337     32339     32342
     32336     32335     32337     32338     32336     32335     32337     32339
     32337     32339     32342     32343     32337     32339     32342     32344
     32337     32339     32342     32345     32338     32337     32339     32340
     32338     32337     32339     32341     32338     32337     32339     32342
     32339     32342     32345     32346     32339     32342     32345     32347
     32339     32342     32345     32348     32340     32339     32342     32343
     32340     32339     32342     32344     32340     32339     32342     32345
     32341     32339     32342     32343     32341     32339     32342     32344
     32341     32339     32342     32345     32342     32345     32348     32349
     32342     32345     32348     32350     32342     32345     32348     32351
     32343     32342     32345     32346     32343     32342     32345     32347
     32343     32342     32345     32348     32344     32342     32345     32346
     32344     32342     32345     32347     32344     32342     32345     32348
     32345     32348     32351     32352     32345     32348     32351     32353
     32345     32348     32351     32354     32346     32345     32348     32349
     32346     32345     32348     32350     32346     32345     32348     32351
     32347     32345     32348     32349     32347     32345     32348     32350
     32347     32345     32348     32351     32348     32351     32354     32355
     32348     32351     32354     32356     32348     32351     32354     32357
     32349     32348     32351     32352     32349     32348     32351     32353
     32349     32348     32351     32354     32350     32348     32351     32352
     32350     32348     32351     32353     32350     32348     32351     32354
     32351     32354     32357     32358     32351     32354     32357     32359
     32351     32354     32357     32360     32352     32351     32354     32355
     32352     32351     32354     32356     32352     32351     32354     32357
     32353     32351     32354     32355     32353     32351     32354     32356
     32353     32351     32354     32357     32354     32357     32360     32361
     32354     32357     32360     32362     32354     32357     32360     32363
     32355     32354     32357     32358     32355     32354     32357     32359
     32355     32354     32357     32360     32356     32354     32357     32358
     32356     32354     32357     32359     32356     32354     32357     32360
     32358     32357     32360     32361     32358     32357     32360     32362
     32358     32357     32360     32363     32359     32357     32360     32361
     32359     32357     32360     32362     32359     32357     32360     32363
     32364     32367     32370     32371     32364     32367     32370     32372
     32364     32367     32370     32373     32365     32364     32367     32368
     32365     32364     32367     32369     32365     32364     32367     32370
     32366     32364     32367     32368     32366     32364     32367     32369
     32366     32364     32367     32370     32367     32370     32373     32374
     32367     32370     32373     32375     32367     32370     32373     32376
     32368     32367     32370     32371     32368     32367     32370     32372
     32368     32367     32370     32373     32369     32367     32370     32371
     32369     32367     32370     32372     32369     32367     32370     32373
     32370     32373     32376     32377     32370     32373     32376     32378
     32370     32373     32376     32379     32371     32370     32373     32374
     32371     32370     32373     32375     32371     32370     32373     32376
     32372     32370     32373     32374     32372     32370     32373     32375
     32372     32370     32373     32376     32373     32376     32379     32380
     32373     32376     32379     32381     32373     32376     32379     32382
     32374     32373     32376     32377     32374     32373     32376     32378
     32374     32373     32376     32379     32375     32373     32376     32377
     32375     32373     32376     32378     32375     32373     32376     32379
     32376     32379     32382     32383     32376     32379     32382     32384
     32376     32379     32382     32385     32377     32376     32379     32380
     32377     32376     32379     32381     32377     32376     32379     32382
     32378     32376     32379     32380     32378     32376     32379     32381
     32378     32376     32379     32382     32379     32382     32385     32386
     32379     32382     32385     32387     32379     32382     32385     32388
     32380     32379     32382     32383     32380     32379     32382     32384
     32380     32379     32382     32385     32381     32379     32382     32383
     32381     32379     32382     32384     32381     32379     32382     32385
     32382     32385     32388     32389     32382     32385     32388     32390
     32382     32385     32388     32391     32383     32382     32385     32386
     32383     32382     32385     32387     32383     32382     32385     32388
     32384     32382     32385     32386     32384     32382     32385     32387
     32384     32382     32385     32388     32385     32388     32391     32392
     32385     32388     32391     32393     32385     32388     32391     32394
     32386     32385     32388     32389     32386     32385     32388     32390
     32386     32385     32388     32391     32387     32385     32388     32389
     32387     32385     32388     32390     32387     32385     32388     32391
     32388     32391     32394     32395     32388     32391     32394     32396
     32388     32391     32394     32397     32389     32388     32391     32392
     32389     32388     32391     32393     32389     32388     32391     32394
     32390     32388     32391     32392     32390     32388     32391     32393
     32390     32388     32391     32394     32391     32394     32397     32398
     32391     32394     32397     32399     32391     32394     32397     32400
     32392     32391     32394     32395     32392     32391     32394     32396
     32392     32391     32394     32397     32393     32391     32394     32395
     32393     32391     32394     32396     32393     32391     32394     32397
     32394     32397     32400     32401     32394     32397     32400     32402
     32394     32397     32400     32403     32395     32394     32397     32398
     32395     32394     32397     32399     32395     32394     32397     32400
     32396     32394     32397     32398     32396     32394     32397     32399
     32396     32394     32397     32400     32397     32400     32403     32404
     32397     32400     32403     32405     32397     32400     32403     32406
     32398     32397     32400     32401     32398     32397     32400     32402
     32398     32397     32400     32403     32399     32397     32400     32401
     32399     32397     32400     32402     32399     32397     32400     32403
     32401     32400     32403     32404     32401     32400     32403     32405
     32401     32400     32403     32406     32402     32400     32403     32404
     32402     32400     32403     32405     32402     32400     32403     32406
     32407     32411     32414     32415     32407     32411     32414     32416
     32407     32411     32414     32421     32408     32407     32411     32412
     32408     32407     32411     32413     32408     32407     32411     32414
     32409     32407     32411     32412     32409     32407     32411     32413
     32409     32407     32411     32414     32410     32407     32411     32412
     32410     32407     32411     32413     32410     32407     32411     32414
     32411     32414     32421     32417     32412     32411     32414     32415
     32412     32411     32414     32416     32412     32411     32414     32421
     32413     32411     32414     32415     32413     32411     32414     32416
     32413     32411     32414     32421     32414     32421     32417     32418
     32414     32421     32417     32419     32414     32421     32417     32420
     32415     32414     32421     32417     32416     32414     32421     32417
     32417     32420     32422     32423     32417     32420     32422     32424
     32417     32420     32422     32425     32418     32417     32420     32422
     32419     32417     32420     32422     32420     32422     32425     32426
     32420     32422     32425     32427     32420     32422     32425     32433
     32421     32417     32420     32422     32422     32425     32427     32428
     32422     32425     32433     32434     32422     32425     32433     32435
     32422     32425     32433     32436     32423     32422     32425     32426
     32423     32422     32425     32427     32423     32422     32425     32433
     32424     32422     32425     32426     32424     32422     32425     32427
     32424     32422     32425     32433     32425     32427     32428     32429
     32425     32427     32428     32430     32425     32433     32436     32437
     32426     32425     32427     32428     32426     32425     32433     32434
     32426     32425     32433     32435     32426     32425     32433     32436
     32427     32425     32433     32434     32427     32425     32433     32435
     32427     32425     32433     32436     32427     32428     32430     32431
     32427     32428     32430     32432     32427     32428     32430     32442
     32428     32427     32425     32433     32428     32430     32442     32443
     32428     32430     32442     32444     32428     32430     32442     32445
     32429     32428     32430     32431     32429     32428     32430     32432
     32429     32428     32430     32442     32430     32442     32445     32446
     32430     32442     32445     32447     32430     32442     32445     32448
     32431     32430     32442     32443     32431     32430     32442     32444
     32431     32430     32442     32445     32432     32430     32442     32443
     32432     32430     32442     32444     32432     32430     32442     32445
     32433     32436     32437     32438     32433     32436     32437     32439
     32434     32433     32436     32437     32435     32433     32436     32437
     32436     32437     32439     32440     32436     32437     32439     32441
     32436     32437     32439     32489     32437     32439     32489     32490
     32437     32439     32489     32491     32437     32439     32489     32492
     32438     32437     32439     32440     32438     32437     32439     32441
     32438     32437     32439     32489     32439     32489     32492     32493
     32439     32489     32492     32494     32439     32489     32492     32495
     32440     32439     32489     32490     32440     32439     32489     32491
     32440     32439     32489     32492     32441     32439     32489     32490
     32441     32439     32489     32491     32441     32439     32489     32492
     32442     32445     32448     32449     32442     32445     32448     32450
     32442     32445     32448     32451     32443     32442     32445     32446
     32443     32442     32445     32447     32443     32442     32445     32448
     32444     32442     32445     32446     32444     32442     32445     32447
     32444     32442     32445     32448     32445     32448     32451     32452
     32445     32448     32451     32453     32445     32448     32451     32454
     32446     32445     32448     32449     32446     32445     32448     32450
     32446     32445     32448     32451     32447     32445     32448     32449
     32447     32445     32448     32450     32447     32445     32448     32451
     32448     32451     32454     32455     32448     32451     32454     32456
     32448     32451     32454     32457     32449     32448     32451     32452
     32449     32448     32451     32453     32449     32448     32451     32454
     32450     32448     32451     32452     32450     32448     32451     32453
     32450     32448     32451     32454     32451     32454     32457     32458
     32451     32454     32457     32459     32451     32454     32457     32460
     32452     32451     32454     32455     32452     32451     32454     32456
     32452     32451     32454     32457     32453     32451     32454     32455
     32453     32451     32454     32456     32453     32451     32454     32457
     32454     32457     32460     32461     32454     32457     32460     32462
     32455     32454     32457     32458     32455     32454     32457     32459
     32455     32454     32457     32460     32456     32454     32457     32458
     32456     32454     32457     32459     32456     32454     32457     32460
     32457     32460     32462     32463     32457     32460     32462     32464
     32458     32457     32460     32461     32458     32457     32460     32462
     32459     32457     32460     32461     32459     32457     32460     32462
     32460     32462     32464     32465     32460     32462     32464     32466
     32460     32462     32464     32467     32461     32460     32462     32463
     32461     32460     32462     32464     32462     32464     32467     32468
     32462     32464     32467     32469     32462     32464     32467     32470
     32463     32462     32464     32465     32463     32462     32464     32466
     32463     32462     32464     32467     32464     32467     32470     32471
     32464     32467     32470     32472     32464     32467     32470     32473
     32465     32464     32467     32468     32465     32464     32467     32469
     32465     32464     32467     32470     32466     32464     32467     32468
     32466     32464     32467     32469     32466     32464     32467     32470
     32467     32470     32473     32474     32467     32470     32473     32475
     32467     32470     32473     32476     32468     32467     32470     32471
     32468     32467     32470     32472     32468     32467     32470     32473
     32469     32467     32470     32471     32469     32467     32470     32472
     32469     32467     32470     32473     32470     32473     32476     32477
     32470     32473     32476     32478     32470     32473     32476     32479
     32471     32470     32473     32474     32471     32470     32473     32475
     32471     32470     32473     32476     32472     32470     32473     32474
     32472     32470     32473     32475     32472     32470     32473     32476
     32473     32476     32479     32480     32473     32476     32479     32481
     32473     32476     32479     32482     32474     32473     32476     32477
     32474     32473     32476     32478     32474     32473     32476     32479
     32475     32473     32476     32477     32475     32473     32476     32478
     32475     32473     32476     32479     32476     32479     32482     32483
     32476     32479     32482     32484     32476     32479     32482     32485
     32477     32476     32479     32480     32477     32476     32479     32481
     32477     32476     32479     32482     32478     32476     32479     32480
     32478     32476     32479     32481     32478     32476     32479     32482
     32479     32482     32485     32486     32479     32482     32485     32487
     32479     32482     32485     32488     32480     32479     32482     32483
     32480     32479     32482     32484     32480     32479     32482     32485
     32481     32479     32482     32483     32481     32479     32482     32484
     32481     32479     32482     32485     32483     32482     32485     32486
     32483     32482     32485     32487     32483     32482     32485     32488
     32484     32482     32485     32486     32484     32482     32485     32487
     32484     32482     32485     32488     32489     32492     32495     32496
     32489     32492     32495     32497     32489     32492     32495     32498
     32490     32489     32492     32493     32490     32489     32492     32494
     32490     32489     32492     32495     32491     32489     32492     32493
     32491     32489     32492     32494     32491     32489     32492     32495
     32492     32495     32498     32499     32492     32495     32498     32500
     32492     32495     32498     32501     32493     32492     32495     32496
     32493     32492     32495     32497     32493     32492     32495     32498
     32494     32492     32495     32496     32494     32492     32495     32497
     32494     32492     32495     32498     32495     32498     32501     32502
     32495     32498     32501     32503     32495     32498     32501     32504
     32496     32495     32498     32499     32496     32495     32498     32500
     32496     32495     32498     32501     32497     32495     32498     32499
     32497     32495     32498     32500     32497     32495     32498     32501
     32498     32501     32504     32505     32498     32501     32504     32506
     32498     32501     32504     32507     32499     32498     32501     32502
     32499     32498     32501     32503     32499     32498     32501     32504
     32500     32498     32501     32502     32500     32498     32501     32503
     32500     32498     32501     32504     32501     32504     32507     32508
     32501     32504     32507     32509     32501     32504     32507     32510
     32502     32501     32504     32505     32502     32501     32504     32506
     32502     32501     32504     32507     32503     32501     32504     32505
     32503     32501     32504     32506     32503     32501     32504     32507
     32504     32507     32510     32511     32504     32507     32510     32512
     32504     32507     32510     32513     32505     32504     32507     32508
     32505     32504     32507     32509     32505     32504     32507     32510
     32506     32504     32507     32508     32506     32504     32507     32509
     32506     32504     32507     32510     32507     32510     32513     32514
     32507     32510     32513     32515     32507     32510     32513     32516
     32508     32507     32510     32511     32508     32507     32510     32512
     32508     32507     32510     32513     32509     32507     32510     32511
     32509     32507     32510     32512     32509     32507     32510     32513
     32510     32513     32516     32517     32510     32513     32516     32518
     32510     32513     32516     32519     32511     32510     32513     32514
     32511     32510     32513     32515     32511     32510     32513     32516
     32512     32510     32513     32514     32512     32510     32513     32515
     32512     32510     32513     32516     32513     32516     32519     32520
     32513     32516     32519     32521     32513     32516     32519     32522
     32514     32513     32516     32517     32514     32513     32516     32518
     32514     32513     32516     32519     32515     32513     32516     32517
     32515     32513     32516     32518     32515     32513     32516     32519
     32516     32519     32522     32523     32516     32519     32522     32524
     32516     32519     32522     32525     32517     32516     32519     32520
     32517     32516     32519     32521     32517     32516     32519     32522
     32518     32516     32519     32520     32518     32516     32519     32521
     32518     32516     32519     32522     32519     32522     32525     32526
     32519     32522     32525     32527     32519     32522     32525     32528
     32520     32519     32522     32523     32520     32519     32522     32524
     32520     32519     32522     32525     32521     32519     32522     32523
     32521     32519     32522     32524     32521     32519     32522     32525
     32522     32525     32528     32529     32522     32525     32528     32530
     32522     32525     32528     32531     32523     32522     32525     32526
     32523     32522     32525     32527     32523     32522     32525     32528
     32524     32522     32525     32526     32524     32522     32525     32527
     32524     32522     32525     32528     32526     32525     32528     32529
     32526     32525     32528     32530     32526     32525     32528     32531
     32527     32525     32528     32529     32527     32525     32528     32530
     32527     32525     32528     32531     32532     32536     32539     32540
     32532     32536     32539     32541     32532     32536     32539     32546
     32533     32532     32536     32537     32533     32532     32536     32538
     32533     32532     32536     32539     32534     32532     32536     32537
     32534     32532     32536     32538     32534     32532     32536     32539
     32535     32532     32536     32537     32535     32532     32536     32538
     32535     32532     32536     32539     32536     32539     32546     32542
     32537     32536     32539     32540     32537     32536     32539     32541
     32537     32536     32539     32546     32538     32536     32539     32540
     32538     32536     32539     32541     32538     32536     32539     32546
     32539     32546     32542     32543     32539     32546     32542     32544
     32539     32546     32542     32545     32540     32539     32546     32542
     32541     32539     32546     32542     32542     32545     32547     32548
     32542     32545     32547     32549     32542     32545     32547     32550
     32543     32542     32545     32547     32544     32542     32545     32547
     32545     32547     32550     32551     32545     32547     32550     32552
     32545     32547     32550     32558     32546     32542     32545     32547
     32547     32550     32552     32553     32547     32550     32558     32559
     32547     32550     32558     32560     32547     32550     32558     32561
     32548     32547     32550     32551     32548     32547     32550     32552
     32548     32547     32550     32558     32549     32547     32550     32551
     32549     32547     32550     32552     32549     32547     32550     32558
     32550     32552     32553     32554     32550     32552     32553     32555
     32550     32558     32561     32562     32551     32550     32552     32553
     32551     32550     32558     32559     32551     32550     32558     32560
     32551     32550     32558     32561     32552     32550     32558     32559
     32552     32550     32558     32560     32552     32550     32558     32561
     32552     32553     32555     32556     32552     32553     32555     32557
     32552     32553     32555     32567     32553     32552     32550     32558
     32553     32555     32567     32568     32553     32555     32567     32569
     32553     32555     32567     32570     32554     32553     32555     32556
     32554     32553     32555     32557     32554     32553     32555     32567
     32555     32567     32570     32571     32555     32567     32570     32572
     32555     32567     32570     32573     32556     32555     32567     32568
     32556     32555     32567     32569     32556     32555     32567     32570
     32557     32555     32567     32568     32557     32555     32567     32569
     32557     32555     32567     32570     32558     32561     32562     32563
     32558     32561     32562     32564     32559     32558     32561     32562
     32560     32558     32561     32562     32561     32562     32564     32565
     32561     32562     32564     32566     32561     32562     32564     32614
     32562     32564     32614     32615     32562     32564     32614     32616
     32562     32564     32614     32617     32563     32562     32564     32565
     32563     32562     32564     32566     32563     32562     32564     32614
     32564     32614     32617     32618     32564     32614     32617     32619
     32564     32614     32617     32620     32565     32564     32614     32615
     32565     32564     32614     32616     32565     32564     32614     32617
     32566     32564     32614     32615     32566     32564     32614     32616
     32566     32564     32614     32617     32567     32570     32573     32574
     32567     32570     32573     32575     32567     32570     32573     32576
     32568     32567     32570     32571     32568     32567     32570     32572
     32568     32567     32570     32573     32569     32567     32570     32571
     32569     32567     32570     32572     32569     32567     32570     32573
     32570     32573     32576     32577     32570     32573     32576     32578
     32570     32573     32576     32579     32571     32570     32573     32574
     32571     32570     32573     32575     32571     32570     32573     32576
     32572     32570     32573     32574     32572     32570     32573     32575
     32572     32570     32573     32576     32573     32576     32579     32580
     32573     32576     32579     32581     32573     32576     32579     32582
     32574     32573     32576     32577     32574     32573     32576     32578
     32574     32573     32576     32579     32575     32573     32576     32577
     32575     32573     32576     32578     32575     32573     32576     32579
     32576     32579     32582     32583     32576     32579     32582     32584
     32576     32579     32582     32585     32577     32576     32579     32580
     32577     32576     32579     32581     32577     32576     32579     32582
     32578     32576     32579     32580     32578     32576     32579     32581
     32578     32576     32579     32582     32579     32582     32585     32586
     32579     32582     32585     32587     32580     32579     32582     32583
     32580     32579     32582     32584     32580     32579     32582     32585
     32581     32579     32582     32583     32581     32579     32582     32584
     32581     32579     32582     32585     32582     32585     32587     32588
     32582     32585     32587     32589     32583     32582     32585     32586
     32583     32582     32585     32587     32584     32582     32585     32586
     32584     32582     32585     32587     32585     32587     32589     32590
     32585     32587     32589     32591     32585     32587     32589     32592
     32586     32585     32587     32588     32586     32585     32587     32589
     32587     32589     32592     32593     32587     32589     32592     32594
     32587     32589     32592     32595     32588     32587     32589     32590
     32588     32587     32589     32591     32588     32587     32589     32592
     32589     32592     32595     32596     32589     32592     32595     32597
     32589     32592     32595     32598     32590     32589     32592     32593
     32590     32589     32592     32594     32590     32589     32592     32595
     32591     32589     32592     32593     32591     32589     32592     32594
     32591     32589     32592     32595     32592     32595     32598     32599
     32592     32595     32598     32600     32592     32595     32598     32601
     32593     32592     32595     32596     32593     32592     32595     32597
     32593     32592     32595     32598     32594     32592     32595     32596
     32594     32592     32595     32597     32594     32592     32595     32598
     32595     32598     32601     32602     32595     32598     32601     32603
     32595     32598     32601     32604     32596     32595     32598     32599
     32596     32595     32598     32600     32596     32595     32598     32601
     32597     32595     32598     32599     32597     32595     32598     32600
     32597     32595     32598     32601     32598     32601     32604     32605
     32598     32601     32604     32606     32598     32601     32604     32607
     32599     32598     32601     32602     32599     32598     32601     32603
     32599     32598     32601     32604     32600     32598     32601     32602
     32600     32598     32601     32603     32600     32598     32601     32604
     32601     32604     32607     32608     32601     32604     32607     32609
     32601     32604     32607     32610     32602     32601     32604     32605
     32602     32601     32604     32606     32602     32601     32604     32607
     32603     32601     32604     32605     32603     32601     32604     32606
     32603     32601     32604     32607     32604     32607     32610     32611
     32604     32607     32610     32612     32604     32607     32610     32613
     32605     32604     32607     32608     32605     32604     32607     32609
     32605     32604     32607     32610     32606     32604     32607     32608
     32606     32604     32607     32609     32606     32604     32607     32610
     32608     32607     32610     32611     32608     32607     32610     32612
     32608     32607     32610     32613     32609     32607     32610     32611
     32609     32607     32610     32612     32609     32607     32610     32613
     32614     32617     32620     32621     32614     32617     32620     32622
     32614     32617     32620     32623     32615     32614     32617     32618
     32615     32614     32617     32619     32615     32614     32617     32620
     32616     32614     32617     32618     32616     32614     32617     32619
     32616     32614     32617     32620     32617     32620     32623     32624
     32617     32620     32623     32625     32617     32620     32623     32626
     32618     32617     32620     32621     32618     32617     32620     32622
     32618     32617     32620     32623     32619     32617     32620     32621
     32619     32617     32620     32622     32619     32617     32620     32623
     32620     32623     32626     32627     32620     32623     32626     32628
     32620     32623     32626     32629     32621     32620     32623     32624
     32621     32620     32623     32625     32621     32620     32623     32626
     32622     32620     32623     32624     32622     32620     32623     32625
     32622     32620     32623     32626     32623     32626     32629     32630
     32623     32626     32629     32631     32623     32626     32629     32632
     32624     32623     32626     32627     32624     32623     32626     32628
     32624     32623     32626     32629     32625     32623     32626     32627
     32625     32623     32626     32628     32625     32623     32626     32629
     32626     32629     32632     32633     32626     32629     32632     32634
     32626     32629     32632     32635     32627     32626     32629     32630
     32627     32626     32629     32631     32627     32626     32629     32632
     32628     32626     32629     32630     32628     32626     32629     32631
     32628     32626     32629     32632     32629     32632     32635     32636
     32629     32632     32635     32637     32629     32632     32635     32638
     32630     32629     32632     32633     32630     32629     32632     32634
     32630     32629     32632     32635     32631     32629     32632     32633
     32631     32629     32632     32634     32631     32629     32632     32635
     32632     32635     32638     32639     32632     32635     32638     32640
     32632     32635     32638     32641     32633     32632     32635     32636
     32633     32632     32635     32637     32633     32632     32635     32638
     32634     32632     32635     32636     32634     32632     32635     32637
     32634     32632     32635     32638     32635     32638     32641     32642
     32635     32638     32641     32643     32635     32638     32641     32644
     32636     32635     32638     32639     32636     32635     32638     32640
     32636     32635     32638     32641     32637     32635     32638     32639
     32637     32635     32638     32640     32637     32635     32638     32641
     32638     32641     32644     32645     32638     32641     32644     32646
     32638     32641     32644     32647     32639     32638     32641     32642
     32639     32638     32641     32643     32639     32638     32641     32644
     32640     32638     32641     32642     32640     32638     32641     32643
     32640     32638     32641     32644     32641     32644     32647     32648
     32641     32644     32647     32649     32641     32644     32647     32650
     32642     32641     32644     32645     32642     32641     32644     32646
     32642     32641     32644     32647     32643     32641     32644     32645
     32643     32641     32644     32646     32643     32641     32644     32647
     32644     32647     32650     32651     32644     32647     32650     32652
     32644     32647     32650     32653     32645     32644     32647     32648
     32645     32644     32647     32649     32645     32644     32647     32650
     32646     32644     32647     32648     32646     32644     32647     32649
     32646     32644     32647     32650     32647     32650     32653     32654
     32647     32650     32653     32655     32647     32650     32653     32656
     32648     32647     32650     32651     32648     32647     32650     32652
     32648     32647     32650     32653     32649     32647     32650     32651
     32649     32647     32650     32652     32649     32647     32650     32653
     32651     32650     32653     32654     32651     32650     32653     32655
     32651     32650     32653     32656     32652     32650     32653     32654
     32652     32650     32653     32655     32652     32650     32653     32656
     32657     32658     32673     32674     32657     32658     32673     32675
     32657     32658     32673     32679     32658     32657     32661     32662
     32658     32657     32661     32663     32658     32657     32661     32664
     32658     32657     32665     32666     32658     32657     32665     32667
     32658     32657     32665     32668     32658     32657     32669     32670
     32658     32657     32669     32671     32658     32657     32669     32672
     32658     32673     32679     32676     32659     32658     32657     32661
     32659     32658     32657     32665     32659     32658     32657     32669
     32659     32658     32673     32674     32659     32658     32673     32675
     32659     32658     32673     32679     32660     32658     32657     32661
     32660     32658     32657     32665     32660     32658     32657     32669
     32660     32658     32673     32674     32660     32658     32673     32675
     32660     32658     32673     32679     32661     32657     32658     32673
     32661     32657     32665     32666     32661     32657     32665     32667
     32661     32657     32665     32668     32661     32657     32669     32670
     32661     32657     32669     32671     32661     32657     32669     32672
     32662     32661     32657     32665     32662     32661     32657     32669
     32663     32661     32657     32665     32663     32661     32657     32669
     32664     32661     32657     32665     32664     32661     32657     32669
     32665     32657     32658     32673     32665     32657     32669     32670
     32665     32657     32669     32671     32665     32657     32669     32672
     32666     32665     32657     32669     32667     32665     32657     32669
     32668     32665     32657     32669     32669     32657     32658     32673
     32673     32679     32676     32677     32673     32679     32676     32678
     32673     32679     32676     32680     32674     32673     32679     32676
     32675     32673     32679     32676     32676     32680     32681     32682
     32676     32680     32681     32683     32676     32680     32681     32684
     32677     32676     32680     32681     32678     32676     32680     32681
     32679     32676     32680     32681     32680     32681     32684     32685
     32680     32681     32684     32686     32680     32681     32684     32692
     32681     32684     32686     32687     32681     32684     32692     32693
     32681     32684     32692     32694     32681     32684     32692     32695
     32682     32681     32684     32685     32682     32681     32684     32686
     32682     32681     32684     32692     32683     32681     32684     32685
     32683     32681     32684     32686     32683     32681     32684     32692
     32684     32686     32687     32688     32684     32686     32687     32689
     32684     32692     32695     32696     32685     32684     32686     32687
     32685     32684     32692     32693     32685     32684     32692     32694
     32685     32684     32692     32695     32686     32684     32692     32693
     32686     32684     32692     32694     32686     32684     32692     32695
     32686     32687     32689     32690     32686     32687     32689     32691
     32686     32687     32689     32701     32687     32686     32684     32692
     32687     32689     32701     32702     32687     32689     32701     32703
     32687     32689     32701     32704     32688     32687     32689     32690
     32688     32687     32689     32691     32688     32687     32689     32701
     32689     32701     32704     32705     32689     32701     32704     32706
     32689     32701     32704     32707     32690     32689     32701     32702
     32690     32689     32701     32703     32690     32689     32701     32704
     32691     32689     32701     32702     32691     32689     32701     32703
     32691     32689     32701     32704     32692     32695     32696     32697
     32692     32695     32696     32698     32693     32692     32695     32696
     32694     32692     32695     32696     32695     32696     32698     32699
     32695     32696     32698     32700     32695     32696     32698     32748
     32696     32698     32748     32749     32696     32698     32748     32750
     32696     32698     32748     32751     32697     32696     32698     32699
     32697     32696     32698     32700     32697     32696     32698     32748
     32698     32748     32751     32752     32698     32748     32751     32753
     32698     32748     32751     32754     32699     32698     32748     32749
     32699     32698     32748     32750     32699     32698     32748     32751
     32700     32698     32748     32749     32700     32698     32748     32750
     32700     32698     32748     32751     32701     32704     32707     32708
     32701     32704     32707     32709     32701     32704     32707     32710
     32702     32701     32704     32705     32702     32701     32704     32706
     32702     32701     32704     32707     32703     32701     32704     32705
     32703     32701     32704     32706     32703     32701     32704     32707
     32704     32707     32710     32711     32704     32707     32710     32712
     32704     32707     32710     32713     32705     32704     32707     32708
     32705     32704     32707     32709     32705     32704     32707     32710
     32706     32704     32707     32708     32706     32704     32707     32709
     32706     32704     32707     32710     32707     32710     32713     32714
     32707     32710     32713     32715     32707     32710     32713     32716
     32708     32707     32710     32711     32708     32707     32710     32712
     32708     32707     32710     32713     32709     32707     32710     32711
     32709     32707     32710     32712     32709     32707     32710     32713
     32710     32713     32716     32717     32710     32713     32716     32718
     32710     32713     32716     32719     32711     32710     32713     32714
     32711     32710     32713     32715     32711     32710     32713     32716
     32712     32710     32713     32714     32712     32710     32713     32715
     32712     32710     32713     32716     32713     32716     32719     32720
     32713     32716     32719     32721     32714     32713     32716     32717
     32714     32713     32716     32718     32714     32713     32716     32719
     32715     32713     32716     32717     32715     32713     32716     32718
     32715     32713     32716     32719     32716     32719     32721     32722
     32716     32719     32721     32723     32717     32716     32719     32720
     32717     32716     32719     32721     32718     32716     32719     32720
     32718     32716     32719     32721     32719     32721     32723     32724
     32719     32721     32723     32725     32719     32721     32723     32726
     32720     32719     32721     32722     32720     32719     32721     32723
     32721     32723     32726     32727     32721     32723     32726     32728
     32721     32723     32726     32729     32722     32721     32723     32724
     32722     32721     32723     32725     32722     32721     32723     32726
     32723     32726     32729     32730     32723     32726     32729     32731
     32723     32726     32729     32732     32724     32723     32726     32727
     32724     32723     32726     32728     32724     32723     32726     32729
     32725     32723     32726     32727     32725     32723     32726     32728
     32725     32723     32726     32729     32726     32729     32732     32733
     32726     32729     32732     32734     32726     32729     32732     32735
     32727     32726     32729     32730     32727     32726     32729     32731
     32727     32726     32729     32732     32728     32726     32729     32730
     32728     32726     32729     32731     32728     32726     32729     32732
     32729     32732     32735     32736     32729     32732     32735     32737
     32729     32732     32735     32738     32730     32729     32732     32733
     32730     32729     32732     32734     32730     32729     32732     32735
     32731     32729     32732     32733     32731     32729     32732     32734
     32731     32729     32732     32735     32732     32735     32738     32739
     32732     32735     32738     32740     32732     32735     32738     32741
     32733     32732     32735     32736     32733     32732     32735     32737
     32733     32732     32735     32738     32734     32732     32735     32736
     32734     32732     32735     32737     32734     32732     32735     32738
     32735     32738     32741     32742     32735     32738     32741     32743
     32735     32738     32741     32744     32736     32735     32738     32739
     32736     32735     32738     32740     32736     32735     32738     32741
     32737     32735     32738     32739     32737     32735     32738     32740
     32737     32735     32738     32741     32738     32741     32744     32745
     32738     32741     32744     32746     32738     32741     32744     32747
     32739     32738     32741     32742     32739     32738     32741     32743
     32739     32738     32741     32744     32740     32738     32741     32742
     32740     32738     32741     32743     32740     32738     32741     32744
     32742     32741     32744     32745     32742     32741     32744     32746
     32742     32741     32744     32747     32743     32741     32744     32745
     32743     32741     32744     32746     32743     32741     32744     32747
     32748     32751     32754     32755     32748     32751     32754     32756
     32748     32751     32754     32757     32749     32748     32751     32752
     32749     32748     32751     32753     32749     32748     32751     32754
     32750     32748     32751     32752     32750     32748     32751     32753
     32750     32748     32751     32754     32751     32754     32757     32758
     32751     32754     32757     32759     32751     32754     32757     32760
     32752     32751     32754     32755     32752     32751     32754     32756
     32752     32751     32754     32757     32753     32751     32754     32755
     32753     32751     32754     32756     32753     32751     32754     32757
     32754     32757     32760     32761     32754     32757     32760     32762
     32754     32757     32760     32763     32755     32754     32757     32758
     32755     32754     32757     32759     32755     32754     32757     32760
     32756     32754     32757     32758     32756     32754     32757     32759
     32756     32754     32757     32760     32757     32760     32763     32764
     32757     32760     32763     32765     32757     32760     32763     32766
     32758     32757     32760     32761     32758     32757     32760     32762
     32758     32757     32760     32763     32759     32757     32760     32761
     32759     32757     32760     32762     32759     32757     32760     32763
     32760     32763     32766     32767     32760     32763     32766     32768
     32760     32763     32766     32769     32761     32760     32763     32764
     32761     32760     32763     32765     32761     32760     32763     32766
     32762     32760     32763     32764     32762     32760     32763     32765
     32762     32760     32763     32766     32763     32766     32769     32770
     32763     32766     32769     32771     32763     32766     32769     32772
     32764     32763     32766     32767     32764     32763     32766     32768
     32764     32763     32766     32769     32765     32763     32766     32767
     32765     32763     32766     32768     32765     32763     32766     32769
     32766     32769     32772     32773     32766     32769     32772     32774
     32766     32769     32772     32775     32767     32766     32769     32770
     32767     32766     32769     32771     32767     32766     32769     32772
     32768     32766     32769     32770     32768     32766     32769     32771
     32768     32766     32769     32772     32769     32772     32775     32776
     32769     32772     32775     32777     32769     32772     32775     32778
     32770     32769     32772     32773     32770     32769     32772     32774
     32770     32769     32772     32775     32771     32769     32772     32773
     32771     32769     32772     32774     32771     32769     32772     32775
     32772     32775     32778     32779     32772     32775     32778     32780
     32772     32775     32778     32781     32773     32772     32775     32776
     32773     32772     32775     32777     32773     32772     32775     32778
     32774     32772     32775     32776     32774     32772     32775     32777
     32774     32772     32775     32778     32775     32778     32781     32782
     32775     32778     32781     32783     32775     32778     32781     32784
     32776     32775     32778     32779     32776     32775     32778     32780
     32776     32775     32778     32781     32777     32775     32778     32779
     32777     32775     32778     32780     32777     32775     32778     32781
     32778     32781     32784     32785     32778     32781     32784     32786
     32778     32781     32784     32787     32779     32778     32781     32782
     32779     32778     32781     32783     32779     32778     32781     32784
     32780     32778     32781     32782     32780     32778     32781     32783
     32780     32778     32781     32784     32781     32784     32787     32788
     32781     32784     32787     32789     32781     32784     32787     32790
     32782     32781     32784     32785     32782     32781     32784     32786
     32782     32781     32784     32787     32783     32781     32784     32785
     32783     32781     32784     32786     32783     32781     32784     32787
     32785     32784     32787     32788     32785     32784     32787     32789
     32785     32784     32787     32790     32786     32784     32787     32788
     32786     32784     32787     32789     32786     32784     32787     32790
     32791     32795     32798     32799     32791     32795     32798     32800
     32791     32795     32798     32805     32792     32791     32795     32796
     32792     32791     32795     32797     32792     32791     32795     32798
     32793     32791     32795     32796     32793     32791     32795     32797
     32793     32791     32795     32798     32794     32791     32795     32796
     32794     32791     32795     32797     32794     32791     32795     32798
     32795     32798     32805     32801     32796     32795     32798     32799
     32796     32795     32798     32800     32796     32795     32798     32805
     32797     32795     32798     32799     32797     32795     32798     32800
     32797     32795     32798     32805     32798     32805     32801     32802
     32798     32805     32801     32803     32798     32805     32801     32804
     32799     32798     32805     32801     32800     32798     32805     32801
     32801     32804     32806     32807     32801     32804     32806     32808
     32801     32804     32806     32809     32802     32801     32804     32806
     32803     32801     32804     32806     32804     32806     32809     32810
     32804     32806     32809     32811     32804     32806     32809     32817
     32805     32801     32804     32806     32806     32809     32811     32812
     32806     32809     32817     32818     32806     32809     32817     32819
     32806     32809     32817     32820     32807     32806     32809     32810
     32807     32806     32809     32811     32807     32806     32809     32817
     32808     32806     32809     32810     32808     32806     32809     32811
     32808     32806     32809     32817     32809     32811     32812     32813
     32809     32811     32812     32814     32809     32817     32820     32821
     32810     32809     32811     32812     32810     32809     32817     32818
     32810     32809     32817     32819     32810     32809     32817     32820
     32811     32809     32817     32818     32811     32809     32817     32819
     32811     32809     32817     32820     32811     32812     32814     32815
     32811     32812     32814     32816     32811     32812     32814     32826
     32812     32811     32809     32817     32812     32814     32826     32827
     32812     32814     32826     32828     32812     32814     32826     32829
     32813     32812     32814     32815     32813     32812     32814     32816
     32813     32812     32814     32826     32814     32826     32829     32830
     32814     32826     32829     32831     32814     32826     32829     32832
     32815     32814     32826     32827     32815     32814     32826     32828
     32815     32814     32826     32829     32816     32814     32826     32827
     32816     32814     32826     32828     32816     32814     32826     32829
     32817     32820     32821     32822     32817     32820     32821     32823
     32818     32817     32820     32821     32819     32817     32820     32821
     32820     32821     32823     32824     32820     32821     32823     32825
     32820     32821     32823     32873     32821     32823     32873     32874
     32821     32823     32873     32875     32821     32823     32873     32876
     32822     32821     32823     32824     32822     32821     32823     32825
     32822     32821     32823     32873     32823     32873     32876     32877
     32823     32873     32876     32878     32823     32873     32876     32879
     32824     32823     32873     32874     32824     32823     32873     32875
     32824     32823     32873     32876     32825     32823     32873     32874
     32825     32823     32873     32875     32825     32823     32873     32876
     32826     32829     32832     32833     32826     32829     32832     32834
     32826     32829     32832     32835     32827     32826     32829     32830
     32827     32826     32829     32831     32827     32826     32829     32832
     32828     32826     32829     32830     32828     32826     32829     32831
     32828     32826     32829     32832     32829     32832     32835     32836
     32829     32832     32835     32837     32829     32832     32835     32838
     32830     32829     32832     32833     32830     32829     32832     32834
     32830     32829     32832     32835     32831     32829     32832     32833
     32831     32829     32832     32834     32831     32829     32832     32835
     32832     32835     32838     32839     32832     32835     32838     32840
     32832     32835     32838     32841     32833     32832     32835     32836
     32833     32832     32835     32837     32833     32832     32835     32838
     32834     32832     32835     32836     32834     32832     32835     32837
     32834     32832     32835     32838     32835     32838     32841     32842
     32835     32838     32841     32843     32835     32838     32841     32844
     32836     32835     32838     32839     32836     32835     32838     32840
     32836     32835     32838     32841     32837     32835     32838     32839
     32837     32835     32838     32840     32837     32835     32838     32841
     32838     32841     32844     32845     32838     32841     32844     32846
     32839     32838     32841     32842     32839     32838     32841     32843
     32839     32838     32841     32844     32840     32838     32841     32842
     32840     32838     32841     32843     32840     32838     32841     32844
     32841     32844     32846     32847     32841     32844     32846     32848
     32842     32841     32844     32845     32842     32841     32844     32846
     32843     32841     32844     32845     32843     32841     32844     32846
     32844     32846     32848     32849     32844     32846     32848     32850
     32844     32846     32848     32851     32845     32844     32846     32847
     32845     32844     32846     32848     32846     32848     32851     32852
     32846     32848     32851     32853     32846     32848     32851     32854
     32847     32846     32848     32849     32847     32846     32848     32850
     32847     32846     32848     32851     32848     32851     32854     32855
     32848     32851     32854     32856     32848     32851     32854     32857
     32849     32848     32851     32852     32849     32848     32851     32853
     32849     32848     32851     32854     32850     32848     32851     32852
     32850     32848     32851     32853     32850     32848     32851     32854
     32851     32854     32857     32858     32851     32854     32857     32859
     32851     32854     32857     32860     32852     32851     32854     32855
     32852     32851     32854     32856     32852     32851     32854     32857
     32853     32851     32854     32855     32853     32851     32854     32856
     32853     32851     32854     32857     32854     32857     32860     32861
     32854     32857     32860     32862     32854     32857     32860     32863
     32855     32854     32857     32858     32855     32854     32857     32859
     32855     32854     32857     32860     32856     32854     32857     32858
     32856     32854     32857     32859     32856     32854     32857     32860
     32857     32860     32863     32864     32857     32860     32863     32865
     32857     32860     32863     32866     32858     32857     32860     32861
     32858     32857     32860     32862     32858     32857     32860     32863
     32859     32857     32860     32861     32859     32857     32860     32862
     32859     32857     32860     32863     32860     32863     32866     32867
     32860     32863     32866     32868     32860     32863     32866     32869
     32861     32860     32863     32864     32861     32860     32863     32865
     32861     32860     32863     32866     32862     32860     32863     32864
     32862     32860     32863     32865     32862     32860     32863     32866
     32863     32866     32869     32870     32863     32866     32869     32871
     32863     32866     32869     32872     32864     32863     32866     32867
     32864     32863     32866     32868     32864     32863     32866     32869
     32865     32863     32866     32867     32865     32863     32866     32868
     32865     32863     32866     32869     32867     32866     32869     32870
     32867     32866     32869     32871     32867     32866     32869     32872
     32868     32866     32869     32870     32868     32866     32869     32871
     32868     32866     32869     32872     32873     32876     32879     32880
     32873     32876     32879     32881     32873     32876     32879     32882
     32874     32873     32876     32877     32874     32873     32876     32878
     32874     32873     32876     32879     32875     32873     32876     32877
     32875     32873     32876     32878     32875     32873     32876     32879
     32876     32879     32882     32883     32876     32879     32882     32884
     32876     32879     32882     32885     32877     32876     32879     32880
     32877     32876     32879     32881     32877     32876     32879     32882
     32878     32876     32879     32880     32878     32876     32879     32881
     32878     32876     32879     32882     32879     32882     32885     32886
     32879     32882     32885     32887     32879     32882     32885     32888
     32880     32879     32882     32883     32880     32879     32882     32884
     32880     32879     32882     32885     32881     32879     32882     32883
     32881     32879     32882     32884     32881     32879     32882     32885
     32882     32885     32888     32889     32882     32885     32888     32890
     32882     32885     32888     32891     32883     32882     32885     32886
     32883     32882     32885     32887     32883     32882     32885     32888
     32884     32882     32885     32886     32884     32882     32885     32887
     32884     32882     32885     32888     32885     32888     32891     32892
     32885     32888     32891     32893     32885     32888     32891     32894
     32886     32885     32888     32889     32886     32885     32888     32890
     32886     32885     32888     32891     32887     32885     32888     32889
     32887     32885     32888     32890     32887     32885     32888     32891
     32888     32891     32894     32895     32888     32891     32894     32896
     32888     32891     32894     32897     32889     32888     32891     32892
     32889     32888     32891     32893     32889     32888     32891     32894
     32890     32888     32891     32892     32890     32888     32891     32893
     32890     32888     32891     32894     32891     32894     32897     32898
     32891     32894     32897     32899     32891     32894     32897     32900
     32892     32891     32894     32895     32892     32891     32894     32896
     32892     32891     32894     32897     32893     32891     32894     32895
     32893     32891     32894     32896     32893     32891     32894     32897
     32894     32897     32900     32901     32894     32897     32900     32902
     32894     32897     32900     32903     32895     32894     32897     32898
     32895     32894     32897     32899     32895     32894     32897     32900
     32896     32894     32897     32898     32896     32894     32897     32899
     32896     32894     32897     32900     32897     32900     32903     32904
     32897     32900     32903     32905     32897     32900     32903     32906
     32898     32897     32900     32901     32898     32897     32900     32902
     32898     32897     32900     32903     32899     32897     32900     32901
     32899     32897     32900     32902     32899     32897     32900     32903
     32900     32903     32906     32907     32900     32903     32906     32908
     32900     32903     32906     32909     32901     32900     32903     32904
     32901     32900     32903     32905     32901     32900     32903     32906
     32902     32900     32903     32904     32902     32900     32903     32905
     32902     32900     32903     32906     32903     32906     32909     32910
     32903     32906     32909     32911     32903     32906     32909     32912
     32904     32903     32906     32907     32904     32903     32906     32908
     32904     32903     32906     32909     32905     32903     32906     32907
     32905     32903     32906     32908     32905     32903     32906     32909
     32906     32909     32912     32913     32906     32909     32912     32914
     32906     32909     32912     32915     32907     32906     32909     32910
     32907     32906     32909     32911     32907     32906     32909     32912
     32908     32906     32909     32910     32908     32906     32909     32911
     32908     32906     32909     32912     32910     32909     32912     32913
     32910     32909     32912     32914     32910     32909     32912     32915
     32911     32909     32912     32913     32911     32909     32912     32914
     32911     32909     32912     32915     32916     32917     32932     32933
     32916     32917     32932     32934     32916     32917     32932     32938
     32917     32916     32920     32921     32917     32916     32920     32922
     32917     32916     32920     32923     32917     32916     32924     32925
     32917     32916     32924     32926     32917     32916     32924     32927
     32917     32916     32928     32929     32917     32916     32928     32930
     32917     32916     32928     32931     32917     32932     32938     32935
     32918     32917     32916     32920     32918     32917     32916     32924
     32918     32917     32916     32928     32918     32917     32932     32933
     32918     32917     32932     32934     32918     32917     32932     32938
     32919     32917     32916     32920     32919     32917     32916     32924
     32919     32917     32916     32928     32919     32917     32932     32933
     32919     32917     32932     32934     32919     32917     32932     32938
     32920     32916     32917     32932     32920     32916     32924     32925
     32920     32916     32924     32926     32920     32916     32924     32927
     32920     32916     32928     32929     32920     32916     32928     32930
     32920     32916     32928     32931     32921     32920     32916     32924
     32921     32920     32916     32928     32922     32920     32916     32924
     32922     32920     32916     32928     32923     32920     32916     32924
     32923     32920     32916     32928     32924     32916     32917     32932
     32924     32916     32928     32929     32924     32916     32928     32930
     32924     32916     32928     32931     32925     32924     32916     32928
     32926     32924     32916     32928     32927     32924     32916     32928
     32928     32916     32917     32932     32932     32938     32935     32936
     32932     32938     32935     32937     32932     32938     32935     32939
     32933     32932     32938     32935     32934     32932     32938     32935
     32935     32939     32940     32941     32935     32939     32940     32942
     32935     32939     32940     32943     32936     32935     32939     32940
     32937     32935     32939     32940     32938     32935     32939     32940
     32939     32940     32943     32944     32939     32940     32943     32945
     32939     32940     32943     32951     32940     32943     32945     32946
     32940     32943     32951     32952     32940     32943     32951     32953
     32940     32943     32951     32954     32941     32940     32943     32944
     32941     32940     32943     32945     32941     32940     32943     32951
     32942     32940     32943     32944     32942     32940     32943     32945
     32942     32940     32943     32951     32943     32945     32946     32947
     32943     32945     32946     32948     32943     32951     32954     32955
     32944     32943     32945     32946     32944     32943     32951     32952
     32944     32943     32951     32953     32944     32943     32951     32954
     32945     32943     32951     32952     32945     32943     32951     32953
     32945     32943     32951     32954     32945     32946     32948     32949
     32945     32946     32948     32950     32945     32946     32948     32960
     32946     32945     32943     32951     32946     32948     32960     32961
     32946     32948     32960     32962     32946     32948     32960     32963
     32947     32946     32948     32949     32947     32946     32948     32950
     32947     32946     32948     32960     32948     32960     32963     32964
     32948     32960     32963     32965     32948     32960     32963     32966
     32949     32948     32960     32961     32949     32948     32960     32962
     32949     32948     32960     32963     32950     32948     32960     32961
     32950     32948     32960     32962     32950     32948     32960     32963
     32951     32954     32955     32956     32951     32954     32955     32957
     32952     32951     32954     32955     32953     32951     32954     32955
     32954     32955     32957     32958     32954     32955     32957     32959
     32954     32955     32957     33007     32955     32957     33007     33008
     32955     32957     33007     33009     32955     32957     33007     33010
     32956     32955     32957     32958     32956     32955     32957     32959
     32956     32955     32957     33007     32957     33007     33010     33011
     32957     33007     33010     33012     32957     33007     33010     33013
     32958     32957     33007     33008     32958     32957     33007     33009
     32958     32957     33007     33010     32959     32957     33007     33008
     32959     32957     33007     33009     32959     32957     33007     33010
     32960     32963     32966     32967     32960     32963     32966     32968
     32960     32963     32966     32969     32961     32960     32963     32964
     32961     32960     32963     32965     32961     32960     32963     32966
     32962     32960     32963     32964     32962     32960     32963     32965
     32962     32960     32963     32966     32963     32966     32969     32970
     32963     32966     32969     32971     32963     32966     32969     32972
     32964     32963     32966     32967     32964     32963     32966     32968
     32964     32963     32966     32969     32965     32963     32966     32967
     32965     32963     32966     32968     32965     32963     32966     32969
     32966     32969     32972     32973     32966     32969     32972     32974
     32966     32969     32972     32975     32967     32966     32969     32970
     32967     32966     32969     32971     32967     32966     32969     32972
     32968     32966     32969     32970     32968     32966     32969     32971
     32968     32966     32969     32972     32969     32972     32975     32976
     32969     32972     32975     32977     32969     32972     32975     32978
     32970     32969     32972     32973     32970     32969     32972     32974
     32970     32969     32972     32975     32971     32969     32972     32973
     32971     32969     32972     32974     32971     32969     32972     32975
     32972     32975     32978     32979     32972     32975     32978     32980
     32973     32972     32975     32976     32973     32972     32975     32977
     32973     32972     32975     32978     32974     32972     32975     32976
     32974     32972     32975     32977     32974     32972     32975     32978
     32975     32978     32980     32981     32975     32978     32980     32982
     32976     32975     32978     32979     32976     32975     32978     32980
     32977     32975     32978     32979     32977     32975     32978     32980
     32978     32980     32982     32983     32978     32980     32982     32984
     32978     32980     32982     32985     32979     32978     32980     32981
     32979     32978     32980     32982     32980     32982     32985     32986
     32980     32982     32985     32987     32980     32982     32985     32988
     32981     32980     32982     32983     32981     32980     32982     32984
     32981     32980     32982     32985     32982     32985     32988     32989
     32982     32985     32988     32990     32982     32985     32988     32991
     32983     32982     32985     32986     32983     32982     32985     32987
     32983     32982     32985     32988     32984     32982     32985     32986
     32984     32982     32985     32987     32984     32982     32985     32988
     32985     32988     32991     32992     32985     32988     32991     32993
     32985     32988     32991     32994     32986     32985     32988     32989
     32986     32985     32988     32990     32986     32985     32988     32991
     32987     32985     32988     32989     32987     32985     32988     32990
     32987     32985     32988     32991     32988     32991     32994     32995
     32988     32991     32994     32996     32988     32991     32994     32997
     32989     32988     32991     32992     32989     32988     32991     32993
     32989     32988     32991     32994     32990     32988     32991     32992
     32990     32988     32991     32993     32990     32988     32991     32994
     32991     32994     32997     32998     32991     32994     32997     32999
     32991     32994     32997     33000     32992     32991     32994     32995
     32992     32991     32994     32996     32992     32991     32994     32997
     32993     32991     32994     32995     32993     32991     32994     32996
     32993     32991     32994     32997     32994     32997     33000     33001
     32994     32997     33000     33002     32994     32997     33000     33003
     32995     32994     32997     32998     32995     32994     32997     32999
     32995     32994     32997     33000     32996     32994     32997     32998
     32996     32994     32997     32999     32996     32994     32997     33000
     32997     33000     33003     33004     32997     33000     33003     33005
     32997     33000     33003     33006     32998     32997     33000     33001
     32998     32997     33000     33002     32998     32997     33000     33003
     32999     32997     33000     33001     32999     32997     33000     33002
     32999     32997     33000     33003     33001     33000     33003     33004
     33001     33000     33003     33005     33001     33000     33003     33006
     33002     33000     33003     33004     33002     33000     33003     33005
     33002     33000     33003     33006     33007     33010     33013     33014
     33007     33010     33013     33015     33007     33010     33013     33016
     33008     33007     33010     33011     33008     33007     33010     33012
     33008     33007     33010     33013     33009     33007     33010     33011
     33009     33007     33010     33012     33009     33007     33010     33013
     33010     33013     33016     33017     33010     33013     33016     33018
     33010     33013     33016     33019     33011     33010     33013     33014
     33011     33010     33013     33015     33011     33010     33013     33016
     33012     33010     33013     33014     33012     33010     33013     33015
     33012     33010     33013     33016     33013     33016     33019     33020
     33013     33016     33019     33021     33013     33016     33019     33022
     33014     33013     33016     33017     33014     33013     33016     33018
     33014     33013     33016     33019     33015     33013     33016     33017
     33015     33013     33016     33018     33015     33013     33016     33019
     33016     33019     33022     33023     33016     33019     33022     33024
     33016     33019     33022     33025     33017     33016     33019     33020
     33017     33016     33019     33021     33017     33016     33019     33022
     33018     33016     33019     33020     33018     33016     33019     33021
     33018     33016     33019     33022     33019     33022     33025     33026
     33019     33022     33025     33027     33019     33022     33025     33028
     33020     33019     33022     33023     33020     33019     33022     33024
     33020     33019     33022     33025     33021     33019     33022     33023
     33021     33019     33022     33024     33021     33019     33022     33025
     33022     33025     33028     33029     33022     33025     33028     33030
     33022     33025     33028     33031     33023     33022     33025     33026
     33023     33022     33025     33027     33023     33022     33025     33028
     33024     33022     33025     33026     33024     33022     33025     33027
     33024     33022     33025     33028     33025     33028     33031     33032
     33025     33028     33031     33033     33025     33028     33031     33034
     33026     33025     33028     33029     33026     33025     33028     33030
     33026     33025     33028     33031     33027     33025     33028     33029
     33027     33025     33028     33030     33027     33025     33028     33031
     33028     33031     33034     33035     33028     33031     33034     33036
     33028     33031     33034     33037     33029     33028     33031     33032
     33029     33028     33031     33033     33029     33028     33031     33034
     33030     33028     33031     33032     33030     33028     33031     33033
     33030     33028     33031     33034     33031     33034     33037     33038
     33031     33034     33037     33039     33031     33034     33037     33040
     33032     33031     33034     33035     33032     33031     33034     33036
     33032     33031     33034     33037     33033     33031     33034     33035
     33033     33031     33034     33036     33033     33031     33034     33037
     33034     33037     33040     33041     33034     33037     33040     33042
     33034     33037     33040     33043     33035     33034     33037     33038
     33035     33034     33037     33039     33035     33034     33037     33040
     33036     33034     33037     33038     33036     33034     33037     33039
     33036     33034     33037     33040     33037     33040     33043     33044
     33037     33040     33043     33045     33037     33040     33043     33046
     33038     33037     33040     33041     33038     33037     33040     33042
     33038     33037     33040     33043     33039     33037     33040     33041
     33039     33037     33040     33042     33039     33037     33040     33043
     33040     33043     33046     33047     33040     33043     33046     33048
     33040     33043     33046     33049     33041     33040     33043     33044
     33041     33040     33043     33045     33041     33040     33043     33046
     33042     33040     33043     33044     33042     33040     33043     33045
     33042     33040     33043     33046     33044     33043     33046     33047
     33044     33043     33046     33048     33044     33043     33046     33049
     33045     33043     33046     33047     33045     33043     33046     33048
     33045     33043     33046     33049     33050     33054     33057     33058
     33050     33054     33057     33059     33050     33054     33057     33064
     33051     33050     33054     33055     33051     33050     33054     33056
     33051     33050     33054     33057     33052     33050     33054     33055
     33052     33050     33054     33056     33052     33050     33054     33057
     33053     33050     33054     33055     33053     33050     33054     33056
     33053     33050     33054     33057     33054     33057     33064     33060
     33055     33054     33057     33058     33055     33054     33057     33059
     33055     33054     33057     33064     33056     33054     33057     33058
     33056     33054     33057     33059     33056     33054     33057     33064
     33057     33064     33060     33061     33057     33064     33060     33062
     33057     33064     33060     33063     33058     33057     33064     33060
     33059     33057     33064     33060     33060     33063     33065     33066
     33060     33063     33065     33067     33060     33063     33065     33068
     33061     33060     33063     33065     33062     33060     33063     33065
     33063     33065     33068     33069     33063     33065     33068     33070
     33063     33065     33068     33076     33064     33060     33063     33065
     33065     33068     33070     33071     33065     33068     33076     33077
     33065     33068     33076     33078     33065     33068     33076     33079
     33066     33065     33068     33069     33066     33065     33068     33070
     33066     33065     33068     33076     33067     33065     33068     33069
     33067     33065     33068     33070     33067     33065     33068     33076
     33068     33070     33071     33072     33068     33070     33071     33073
     33068     33076     33079     33080     33069     33068     33070     33071
     33069     33068     33076     33077     33069     33068     33076     33078
     33069     33068     33076     33079     33070     33068     33076     33077
     33070     33068     33076     33078     33070     33068     33076     33079
     33070     33071     33073     33074     33070     33071     33073     33075
     33070     33071     33073     33085     33071     33070     33068     33076
     33071     33073     33085     33086     33071     33073     33085     33087
     33071     33073     33085     33088     33072     33071     33073     33074
     33072     33071     33073     33075     33072     33071     33073     33085
     33073     33085     33088     33089     33073     33085     33088     33090
     33073     33085     33088     33091     33074     33073     33085     33086
     33074     33073     33085     33087     33074     33073     33085     33088
     33075     33073     33085     33086     33075     33073     33085     33087
     33075     33073     33085     33088     33076     33079     33080     33081
     33076     33079     33080     33082     33077     33076     33079     33080
     33078     33076     33079     33080     33079     33080     33082     33083
     33079     33080     33082     33084     33079     33080     33082     33132
     33080     33082     33132     33133     33080     33082     33132     33134
     33080     33082     33132     33135     33081     33080     33082     33083
     33081     33080     33082     33084     33081     33080     33082     33132
     33082     33132     33135     33136     33082     33132     33135     33137
     33082     33132     33135     33138     33083     33082     33132     33133
     33083     33082     33132     33134     33083     33082     33132     33135
     33084     33082     33132     33133     33084     33082     33132     33134
     33084     33082     33132     33135     33085     33088     33091     33092
     33085     33088     33091     33093     33085     33088     33091     33094
     33086     33085     33088     33089     33086     33085     33088     33090
     33086     33085     33088     33091     33087     33085     33088     33089
     33087     33085     33088     33090     33087     33085     33088     33091
     33088     33091     33094     33095     33088     33091     33094     33096
     33088     33091     33094     33097     33089     33088     33091     33092
     33089     33088     33091     33093     33089     33088     33091     33094
     33090     33088     33091     33092     33090     33088     33091     33093
     33090     33088     33091     33094     33091     33094     33097     33098
     33091     33094     33097     33099     33091     33094     33097     33100
     33092     33091     33094     33095     33092     33091     33094     33096
     33092     33091     33094     33097     33093     33091     33094     33095
     33093     33091     33094     33096     33093     33091     33094     33097
     33094     33097     33100     33101     33094     33097     33100     33102
     33094     33097     33100     33103     33095     33094     33097     33098
     33095     33094     33097     33099     33095     33094     33097     33100
     33096     33094     33097     33098     33096     33094     33097     33099
     33096     33094     33097     33100     33097     33100     33103     33104
     33097     33100     33103     33105     33098     33097     33100     33101
     33098     33097     33100     33102     33098     33097     33100     33103
     33099     33097     33100     33101     33099     33097     33100     33102
     33099     33097     33100     33103     33100     33103     33105     33106
     33100     33103     33105     33107     33101     33100     33103     33104
     33101     33100     33103     33105     33102     33100     33103     33104
     33102     33100     33103     33105     33103     33105     33107     33108
     33103     33105     33107     33109     33103     33105     33107     33110
     33104     33103     33105     33106     33104     33103     33105     33107
     33105     33107     33110     33111     33105     33107     33110     33112
     33105     33107     33110     33113     33106     33105     33107     33108
     33106     33105     33107     33109     33106     33105     33107     33110
     33107     33110     33113     33114     33107     33110     33113     33115
     33107     33110     33113     33116     33108     33107     33110     33111
     33108     33107     33110     33112     33108     33107     33110     33113
     33109     33107     33110     33111     33109     33107     33110     33112
     33109     33107     33110     33113     33110     33113     33116     33117
     33110     33113     33116     33118     33110     33113     33116     33119
     33111     33110     33113     33114     33111     33110     33113     33115
     33111     33110     33113     33116     33112     33110     33113     33114
     33112     33110     33113     33115     33112     33110     33113     33116
     33113     33116     33119     33120     33113     33116     33119     33121
     33113     33116     33119     33122     33114     33113     33116     33117
     33114     33113     33116     33118     33114     33113     33116     33119
     33115     33113     33116     33117     33115     33113     33116     33118
     33115     33113     33116     33119     33116     33119     33122     33123
     33116     33119     33122     33124     33116     33119     33122     33125
     33117     33116     33119     33120     33117     33116     33119     33121
     33117     33116     33119     33122     33118     33116     33119     33120
     33118     33116     33119     33121     33118     33116     33119     33122
     33119     33122     33125     33126     33119     33122     33125     33127
     33119     33122     33125     33128     33120     33119     33122     33123
     33120     33119     33122     33124     33120     33119     33122     33125
     33121     33119     33122     33123     33121     33119     33122     33124
     33121     33119     33122     33125     33122     33125     33128     33129
     33122     33125     33128     33130     33122     33125     33128     33131
     33123     33122     33125     33126     33123     33122     33125     33127
     33123     33122     33125     33128     33124     33122     33125     33126
     33124     33122     33125     33127     33124     33122     33125     33128
     33126     33125     33128     33129     33126     33125     33128     33130
     33126     33125     33128     33131     33127     33125     33128     33129
     33127     33125     33128     33130     33127     33125     33128     33131
     33132     33135     33138     33139     33132     33135     33138     33140
     33132     33135     33138     33141     33133     33132     33135     33136
     33133     33132     33135     33137     33133     33132     33135     33138
     33134     33132     33135     33136     33134     33132     33135     33137
     33134     33132     33135     33138     33135     33138     33141     33142
     33135     33138     33141     33143     33135     33138     33141     33144
     33136     33135     33138     33139     33136     33135     33138     33140
     33136     33135     33138     33141     33137     33135     33138     33139
     33137     33135     33138     33140     33137     33135     33138     33141
     33138     33141     33144     33145     33138     33141     33144     33146
     33138     33141     33144     33147     33139     33138     33141     33142
     33139     33138     33141     33143     33139     33138     33141     33144
     33140     33138     33141     33142     33140     33138     33141     33143
     33140     33138     33141     33144     33141     33144     33147     33148
     33141     33144     33147     33149     33141     33144     33147     33150
     33142     33141     33144     33145     33142     33141     33144     33146
     33142     33141     33144     33147     33143     33141     33144     33145
     33143     33141     33144     33146     33143     33141     33144     33147
     33144     33147     33150     33151     33144     33147     33150     33152
     33144     33147     33150     33153     33145     33144     33147     33148
     33145     33144     33147     33149     33145     33144     33147     33150
     33146     33144     33147     33148     33146     33144     33147     33149
     33146     33144     33147     33150     33147     33150     33153     33154
     33147     33150     33153     33155     33147     33150     33153     33156
     33148     33147     33150     33151     33148     33147     33150     33152
     33148     33147     33150     33153     33149     33147     33150     33151
     33149     33147     33150     33152     33149     33147     33150     33153
     33150     33153     33156     33157     33150     33153     33156     33158
     33150     33153     33156     33159     33151     33150     33153     33154
     33151     33150     33153     33155     33151     33150     33153     33156
     33152     33150     33153     33154     33152     33150     33153     33155
     33152     33150     33153     33156     33153     33156     33159     33160
     33153     33156     33159     33161     33153     33156     33159     33162
     33154     33153     33156     33157     33154     33153     33156     33158
     33154     33153     33156     33159     33155     33153     33156     33157
     33155     33153     33156     33158     33155     33153     33156     33159
     33156     33159     33162     33163     33156     33159     33162     33164
     33156     33159     33162     33165     33157     33156     33159     33160
     33157     33156     33159     33161     33157     33156     33159     33162
     33158     33156     33159     33160     33158     33156     33159     33161
     33158     33156     33159     33162     33159     33162     33165     33166
     33159     33162     33165     33167     33159     33162     33165     33168
     33160     33159     33162     33163     33160     33159     33162     33164
     33160     33159     33162     33165     33161     33159     33162     33163
     33161     33159     33162     33164     33161     33159     33162     33165
     33162     33165     33168     33169     33162     33165     33168     33170
     33162     33165     33168     33171     33163     33162     33165     33166
     33163     33162     33165     33167     33163     33162     33165     33168
     33164     33162     33165     33166     33164     33162     33165     33167
     33164     33162     33165     33168     33165     33168     33171     33172
     33165     33168     33171     33173     33165     33168     33171     33174
     33166     33165     33168     33169     33166     33165     33168     33170
     33166     33165     33168     33171     33167     33165     33168     33169
     33167     33165     33168     33170     33167     33165     33168     33171
     33169     33168     33171     33172     33169     33168     33171     33173
     33169     33168     33171     33174     33170     33168     33171     33172
     33170     33168     33171     33173     33170     33168     33171     33174
     33175     33176     33191     33192     33175     33176     33191     33193
     33175     33176     33191     33197     33176     33175     33179     33180
     33176     33175     33179     33181     33176     33175     33179     33182
     33176     33175     33183     33184     33176     33175     33183     33185
     33176     33175     33183     33186     33176     33175     33187     33188
     33176     33175     33187     33189     33176     33175     33187     33190
     33176     33191     33197     33194     33177     33176     33175     33179
     33177     33176     33175     33183     33177     33176     33175     33187
     33177     33176     33191     33192     33177     33176     33191     33193
     33177     33176     33191     33197     33178     33176     33175     33179
     33178     33176     33175     33183     33178     33176     33175     33187
     33178     33176     33191     33192     33178     33176     33191     33193
     33178     33176     33191     33197     33179     33175     33176     33191
     33179     33175     33183     33184     33179     33175     33183     33185
     33179     33175     33183     33186     33179     33175     33187     33188
     33179     33175     33187     33189     33179     33175     33187     33190
     33180     33179     33175     33183     33180     33179     33175     33187
     33181     33179     33175     33183     33181     33179     33175     33187
     33182     33179     33175     33183     33182     33179     33175     33187
     33183     33175     33176     33191     33183     33175     33187     33188
     33183     33175     33187     33189     33183     33175     33187     33190
     33184     33183     33175     33187     33185     33183     33175     33187
     33186     33183     33175     33187     33187     33175     33176     33191
     33191     33197     33194     33195     33191     33197     33194     33196
     33191     33197     33194     33198     33192     33191     33197     33194
     33193     33191     33197     33194     33194     33198     33199     33200
     33194     33198     33199     33201     33194     33198     33199     33202
     33195     33194     33198     33199     33196     33194     33198     33199
     33197     33194     33198     33199     33198     33199     33202     33203
     33198     33199     33202     33204     33198     33199     33202     33210
     33199     33202     33204     33205     33199     33202     33210     33211
     33199     33202     33210     33212     33199     33202     33210     33213
     33200     33199     33202     33203     33200     33199     33202     33204
     33200     33199     33202     33210     33201     33199     33202     33203
     33201     33199     33202     33204     33201     33199     33202     33210
     33202     33204     33205     33206     33202     33204     33205     33207
     33202     33210     33213     33214     33203     33202     33204     33205
     33203     33202     33210     33211     33203     33202     33210     33212
     33203     33202     33210     33213     33204     33202     33210     33211
     33204     33202     33210     33212     33204     33202     33210     33213
     33204     33205     33207     33208     33204     33205     33207     33209
     33204     33205     33207     33219     33205     33204     33202     33210
     33205     33207     33219     33220     33205     33207     33219     33221
     33205     33207     33219     33222     33206     33205     33207     33208
     33206     33205     33207     33209     33206     33205     33207     33219
     33207     33219     33222     33223     33207     33219     33222     33224
     33207     33219     33222     33225     33208     33207     33219     33220
     33208     33207     33219     33221     33208     33207     33219     33222
     33209     33207     33219     33220     33209     33207     33219     33221
     33209     33207     33219     33222     33210     33213     33214     33215
     33210     33213     33214     33216     33211     33210     33213     33214
     33212     33210     33213     33214     33213     33214     33216     33217
     33213     33214     33216     33218     33213     33214     33216     33266
     33214     33216     33266     33267     33214     33216     33266     33268
     33214     33216     33266     33269     33215     33214     33216     33217
     33215     33214     33216     33218     33215     33214     33216     33266
     33216     33266     33269     33270     33216     33266     33269     33271
     33216     33266     33269     33272     33217     33216     33266     33267
     33217     33216     33266     33268     33217     33216     33266     33269
     33218     33216     33266     33267     33218     33216     33266     33268
     33218     33216     33266     33269     33219     33222     33225     33226
     33219     33222     33225     33227     33219     33222     33225     33228
     33220     33219     33222     33223     33220     33219     33222     33224
     33220     33219     33222     33225     33221     33219     33222     33223
     33221     33219     33222     33224     33221     33219     33222     33225
     33222     33225     33228     33229     33222     33225     33228     33230
     33222     33225     33228     33231     33223     33222     33225     33226
     33223     33222     33225     33227     33223     33222     33225     33228
     33224     33222     33225     33226     33224     33222     33225     33227
     33224     33222     33225     33228     33225     33228     33231     33232
     33225     33228     33231     33233     33225     33228     33231     33234
     33226     33225     33228     33229     33226     33225     33228     33230
     33226     33225     33228     33231     33227     33225     33228     33229
     33227     33225     33228     33230     33227     33225     33228     33231
     33228     33231     33234     33235     33228     33231     33234     33236
     33228     33231     33234     33237     33229     33228     33231     33232
     33229     33228     33231     33233     33229     33228     33231     33234
     33230     33228     33231     33232     33230     33228     33231     33233
     33230     33228     33231     33234     33231     33234     33237     33238
     33231     33234     33237     33239     33232     33231     33234     33235
     33232     33231     33234     33236     33232     33231     33234     33237
     33233     33231     33234     33235     33233     33231     33234     33236
     33233     33231     33234     33237     33234     33237     33239     33240
     33234     33237     33239     33241     33235     33234     33237     33238
     33235     33234     33237     33239     33236     33234     33237     33238
     33236     33234     33237     33239     33237     33239     33241     33242
     33237     33239     33241     33243     33237     33239     33241     33244
     33238     33237     33239     33240     33238     33237     33239     33241
     33239     33241     33244     33245     33239     33241     33244     33246
     33239     33241     33244     33247     33240     33239     33241     33242
     33240     33239     33241     33243     33240     33239     33241     33244
     33241     33244     33247     33248     33241     33244     33247     33249
     33241     33244     33247     33250     33242     33241     33244     33245
     33242     33241     33244     33246     33242     33241     33244     33247
     33243     33241     33244     33245     33243     33241     33244     33246
     33243     33241     33244     33247     33244     33247     33250     33251
     33244     33247     33250     33252     33244     33247     33250     33253
     33245     33244     33247     33248     33245     33244     33247     33249
     33245     33244     33247     33250     33246     33244     33247     33248
     33246     33244     33247     33249     33246     33244     33247     33250
     33247     33250     33253     33254     33247     33250     33253     33255
     33247     33250     33253     33256     33248     33247     33250     33251
     33248     33247     33250     33252     33248     33247     33250     33253
     33249     33247     33250     33251     33249     33247     33250     33252
     33249     33247     33250     33253     33250     33253     33256     33257
     33250     33253     33256     33258     33250     33253     33256     33259
     33251     33250     33253     33254     33251     33250     33253     33255
     33251     33250     33253     33256     33252     33250     33253     33254
     33252     33250     33253     33255     33252     33250     33253     33256
     33253     33256     33259     33260     33253     33256     33259     33261
     33253     33256     33259     33262     33254     33253     33256     33257
     33254     33253     33256     33258     33254     33253     33256     33259
     33255     33253     33256     33257     33255     33253     33256     33258
     33255     33253     33256     33259     33256     33259     33262     33263
     33256     33259     33262     33264     33256     33259     33262     33265
     33257     33256     33259     33260     33257     33256     33259     33261
     33257     33256     33259     33262     33258     33256     33259     33260
     33258     33256     33259     33261     33258     33256     33259     33262
     33260     33259     33262     33263     33260     33259     33262     33264
     33260     33259     33262     33265     33261     33259     33262     33263
     33261     33259     33262     33264     33261     33259     33262     33265
     33266     33269     33272     33273     33266     33269     33272     33274
     33266     33269     33272     33275     33267     33266     33269     33270
     33267     33266     33269     33271     33267     33266     33269     33272
     33268     33266     33269     33270     33268     33266     33269     33271
     33268     33266     33269     33272     33269     33272     33275     33276
     33269     33272     33275     33277     33269     33272     33275     33278
     33270     33269     33272     33273     33270     33269     33272     33274
     33270     33269     33272     33275     33271     33269     33272     33273
     33271     33269     33272     33274     33271     33269     33272     33275
     33272     33275     33278     33279     33272     33275     33278     33280
     33272     33275     33278     33281     33273     33272     33275     33276
     33273     33272     33275     33277     33273     33272     33275     33278
     33274     33272     33275     33276     33274     33272     33275     33277
     33274     33272     33275     33278     33275     33278     33281     33282
     33275     33278     33281     33283     33275     33278     33281     33284
     33276     33275     33278     33279     33276     33275     33278     33280
     33276     33275     33278     33281     33277     33275     33278     33279
     33277     33275     33278     33280     33277     33275     33278     33281
     33278     33281     33284     33285     33278     33281     33284     33286
     33278     33281     33284     33287     33279     33278     33281     33282
     33279     33278     33281     33283     33279     33278     33281     33284
     33280     33278     33281     33282     33280     33278     33281     33283
     33280     33278     33281     33284     33281     33284     33287     33288
     33281     33284     33287     33289     33281     33284     33287     33290
     33282     33281     33284     33285     33282     33281     33284     33286
     33282     33281     33284     33287     33283     33281     33284     33285
     33283     33281     33284     33286     33283     33281     33284     33287
     33284     33287     33290     33291     33284     33287     33290     33292
     33284     33287     33290     33293     33285     33284     33287     33288
     33285     33284     33287     33289     33285     33284     33287     33290
     33286     33284     33287     33288     33286     33284     33287     33289
     33286     33284     33287     33290     33287     33290     33293     33294
     33287     33290     33293     33295     33287     33290     33293     33296
     33288     33287     33290     33291     33288     33287     33290     33292
     33288     33287     33290     33293     33289     33287     33290     33291
     33289     33287     33290     33292     33289     33287     33290     33293
     33290     33293     33296     33297     33290     33293     33296     33298
     33290     33293     33296     33299     33291     33290     33293     33294
     33291     33290     33293     33295     33291     33290     33293     33296
     33292     33290     33293     33294     33292     33290     33293     33295
     33292     33290     33293     33296     33293     33296     33299     33300
     33293     33296     33299     33301     33293     33296     33299     33302
     33294     33293     33296     33297     33294     33293     33296     33298
     33294     33293     33296     33299     33295     33293     33296     33297
     33295     33293     33296     33298     33295     33293     33296     33299
     33296     33299     33302     33303     33296     33299     33302     33304
     33296     33299     33302     33305     33297     33296     33299     33300
     33297     33296     33299     33301     33297     33296     33299     33302
     33298     33296     33299     33300     33298     33296     33299     33301
     33298     33296     33299     33302     33299     33302     33305     33306
     33299     33302     33305     33307     33299     33302     33305     33308
     33300     33299     33302     33303     33300     33299     33302     33304
     33300     33299     33302     33305     33301     33299     33302     33303
     33301     33299     33302     33304     33301     33299     33302     33305
     33303     33302     33305     33306     33303     33302     33305     33307
     33303     33302     33305     33308     33304     33302     33305     33306
     33304     33302     33305     33307     33304     33302     33305     33308
     33309     33313     33316     33317     33309     33313     33316     33318
     33309     33313     33316     33323     33310     33309     33313     33314
     33310     33309     33313     33315     33310     33309     33313     33316
     33311     33309     33313     33314     33311     33309     33313     33315
     33311     33309     33313     33316     33312     33309     33313     33314
     33312     33309     33313     33315     33312     33309     33313     33316
     33313     33316     33323     33319     33314     33313     33316     33317
     33314     33313     33316     33318     33314     33313     33316     33323
     33315     33313     33316     33317     33315     33313     33316     33318
     33315     33313     33316     33323     33316     33323     33319     33320
     33316     33323     33319     33321     33316     33323     33319     33322
     33317     33316     33323     33319     33318     33316     33323     33319
     33319     33322     33324     33325     33319     33322     33324     33326
     33319     33322     33324     33327     33320     33319     33322     33324
     33321     33319     33322     33324     33322     33324     33327     33328
     33322     33324     33327     33329     33322     33324     33327     33335
     33323     33319     33322     33324     33324     33327     33329     33330
     33324     33327     33335     33336     33324     33327     33335     33337
     33324     33327     33335     33338     33325     33324     33327     33328
     33325     33324     33327     33329     33325     33324     33327     33335
     33326     33324     33327     33328     33326     33324     33327     33329
     33326     33324     33327     33335     33327     33329     33330     33331
     33327     33329     33330     33332     33327     33335     33338     33339
     33328     33327     33329     33330     33328     33327     33335     33336
     33328     33327     33335     33337     33328     33327     33335     33338
     33329     33327     33335     33336     33329     33327     33335     33337
     33329     33327     33335     33338     33329     33330     33332     33333
     33329     33330     33332     33334     33329     33330     33332     33344
     33330     33329     33327     33335     33330     33332     33344     33345
     33330     33332     33344     33346     33330     33332     33344     33347
     33331     33330     33332     33333     33331     33330     33332     33334
     33331     33330     33332     33344     33332     33344     33347     33348
     33332     33344     33347     33349     33332     33344     33347     33350
     33333     33332     33344     33345     33333     33332     33344     33346
     33333     33332     33344     33347     33334     33332     33344     33345
     33334     33332     33344     33346     33334     33332     33344     33347
     33335     33338     33339     33340     33335     33338     33339     33341
     33336     33335     33338     33339     33337     33335     33338     33339
     33338     33339     33341     33342     33338     33339     33341     33343
     33338     33339     33341     33391     33339     33341     33391     33392
     33339     33341     33391     33393     33339     33341     33391     33394
     33340     33339     33341     33342     33340     33339     33341     33343
     33340     33339     33341     33391     33341     33391     33394     33395
     33341     33391     33394     33396     33341     33391     33394     33397
     33342     33341     33391     33392     33342     33341     33391     33393
     33342     33341     33391     33394     33343     33341     33391     33392
     33343     33341     33391     33393     33343     33341     33391     33394
     33344     33347     33350     33351     33344     33347     33350     33352
     33344     33347     33350     33353     33345     33344     33347     33348
     33345     33344     33347     33349     33345     33344     33347     33350
     33346     33344     33347     33348     33346     33344     33347     33349
     33346     33344     33347     33350     33347     33350     33353     33354
     33347     33350     33353     33355     33347     33350     33353     33356
     33348     33347     33350     33351     33348     33347     33350     33352
     33348     33347     33350     33353     33349     33347     33350     33351
     33349     33347     33350     33352     33349     33347     33350     33353
     33350     33353     33356     33357     33350     33353     33356     33358
     33350     33353     33356     33359     33351     33350     33353     33354
     33351     33350     33353     33355     33351     33350     33353     33356
     33352     33350     33353     33354     33352     33350     33353     33355
     33352     33350     33353     33356     33353     33356     33359     33360
     33353     33356     33359     33361     33353     33356     33359     33362
     33354     33353     33356     33357     33354     33353     33356     33358
     33354     33353     33356     33359     33355     33353     33356     33357
     33355     33353     33356     33358     33355     33353     33356     33359
     33356     33359     33362     33363     33356     33359     33362     33364
     33357     33356     33359     33360     33357     33356     33359     33361
     33357     33356     33359     33362     33358     33356     33359     33360
     33358     33356     33359     33361     33358     33356     33359     33362
     33359     33362     33364     33365     33359     33362     33364     33366
     33360     33359     33362     33363     33360     33359     33362     33364
     33361     33359     33362     33363     33361     33359     33362     33364
     33362     33364     33366     33367     33362     33364     33366     33368
     33362     33364     33366     33369     33363     33362     33364     33365
     33363     33362     33364     33366     33364     33366     33369     33370
     33364     33366     33369     33371     33364     33366     33369     33372
     33365     33364     33366     33367     33365     33364     33366     33368
     33365     33364     33366     33369     33366     33369     33372     33373
     33366     33369     33372     33374     33366     33369     33372     33375
     33367     33366     33369     33370     33367     33366     33369     33371
     33367     33366     33369     33372     33368     33366     33369     33370
     33368     33366     33369     33371     33368     33366     33369     33372
     33369     33372     33375     33376     33369     33372     33375     33377
     33369     33372     33375     33378     33370     33369     33372     33373
     33370     33369     33372     33374     33370     33369     33372     33375
     33371     33369     33372     33373     33371     33369     33372     33374
     33371     33369     33372     33375     33372     33375     33378     33379
     33372     33375     33378     33380     33372     33375     33378     33381
     33373     33372     33375     33376     33373     33372     33375     33377
     33373     33372     33375     33378     33374     33372     33375     33376
     33374     33372     33375     33377     33374     33372     33375     33378
     33375     33378     33381     33382     33375     33378     33381     33383
     33375     33378     33381     33384     33376     33375     33378     33379
     33376     33375     33378     33380     33376     33375     33378     33381
     33377     33375     33378     33379     33377     33375     33378     33380
     33377     33375     33378     33381     33378     33381     33384     33385
     33378     33381     33384     33386     33378     33381     33384     33387
     33379     33378     33381     33382     33379     33378     33381     33383
     33379     33378     33381     33384     33380     33378     33381     33382
     33380     33378     33381     33383     33380     33378     33381     33384
     33381     33384     33387     33388     33381     33384     33387     33389
     33381     33384     33387     33390     33382     33381     33384     33385
     33382     33381     33384     33386     33382     33381     33384     33387
     33383     33381     33384     33385     33383     33381     33384     33386
     33383     33381     33384     33387     33385     33384     33387     33388
     33385     33384     33387     33389     33385     33384     33387     33390
     33386     33384     33387     33388     33386     33384     33387     33389
     33386     33384     33387     33390     33391     33394     33397     33398
     33391     33394     33397     33399     33391     33394     33397     33400
     33392     33391     33394     33395     33392     33391     33394     33396
     33392     33391     33394     33397     33393     33391     33394     33395
     33393     33391     33394     33396     33393     33391     33394     33397
     33394     33397     33400     33401     33394     33397     33400     33402
     33394     33397     33400     33403     33395     33394     33397     33398
     33395     33394     33397     33399     33395     33394     33397     33400
     33396     33394     33397     33398     33396     33394     33397     33399
     33396     33394     33397     33400     33397     33400     33403     33404
     33397     33400     33403     33405     33397     33400     33403     33406
     33398     33397     33400     33401     33398     33397     33400     33402
     33398     33397     33400     33403     33399     33397     33400     33401
     33399     33397     33400     33402     33399     33397     33400     33403
     33400     33403     33406     33407     33400     33403     33406     33408
     33400     33403     33406     33409     33401     33400     33403     33404
     33401     33400     33403     33405     33401     33400     33403     33406
     33402     33400     33403     33404     33402     33400     33403     33405
     33402     33400     33403     33406     33403     33406     33409     33410
     33403     33406     33409     33411     33403     33406     33409     33412
     33404     33403     33406     33407     33404     33403     33406     33408
     33404     33403     33406     33409     33405     33403     33406     33407
     33405     33403     33406     33408     33405     33403     33406     33409
     33406     33409     33412     33413     33406     33409     33412     33414
     33406     33409     33412     33415     33407     33406     33409     33410
     33407     33406     33409     33411     33407     33406     33409     33412
     33408     33406     33409     33410     33408     33406     33409     33411
     33408     33406     33409     33412     33409     33412     33415     33416
     33409     33412     33415     33417     33409     33412     33415     33418
     33410     33409     33412     33413     33410     33409     33412     33414
     33410     33409     33412     33415     33411     33409     33412     33413
     33411     33409     33412     33414     33411     33409     33412     33415
     33412     33415     33418     33419     33412     33415     33418     33420
     33412     33415     33418     33421     33413     33412     33415     33416
     33413     33412     33415     33417     33413     33412     33415     33418
     33414     33412     33415     33416     33414     33412     33415     33417
     33414     33412     33415     33418     33415     33418     33421     33422
     33415     33418     33421     33423     33415     33418     33421     33424
     33416     33415     33418     33419     33416     33415     33418     33420
     33416     33415     33418     33421     33417     33415     33418     33419
     33417     33415     33418     33420     33417     33415     33418     33421
     33418     33421     33424     33425     33418     33421     33424     33426
     33418     33421     33424     33427     33419     33418     33421     33422
     33419     33418     33421     33423     33419     33418     33421     33424
     33420     33418     33421     33422     33420     33418     33421     33423
     33420     33418     33421     33424     33421     33424     33427     33428
     33421     33424     33427     33429     33421     33424     33427     33430
     33422     33421     33424     33425     33422     33421     33424     33426
     33422     33421     33424     33427     33423     33421     33424     33425
     33423     33421     33424     33426     33423     33421     33424     33427
     33424     33427     33430     33431     33424     33427     33430     33432
     33424     33427     33430     33433     33425     33424     33427     33428
     33425     33424     33427     33429     33425     33424     33427     33430
     33426     33424     33427     33428     33426     33424     33427     33429
     33426     33424     33427     33430     33428     33427     33430     33431
     33428     33427     33430     33432     33428     33427     33430     33433
     33429     33427     33430     33431     33429     33427     33430     33432
     33429     33427     33430     33433     33434     33438     33441     33442
     33434     33438     33441     33443     33434     33438     33441     33448
     33435     33434     33438     33439     33435     33434     33438     33440
     33435     33434     33438     33441     33436     33434     33438     33439
     33436     33434     33438     33440     33436     33434     33438     33441
     33437     33434     33438     33439     33437     33434     33438     33440
     33437     33434     33438     33441     33438     33441     33448     33444
     33439     33438     33441     33442     33439     33438     33441     33443
     33439     33438     33441     33448     33440     33438     33441     33442
     33440     33438     33441     33443     33440     33438     33441     33448
     33441     33448     33444     33445     33441     33448     33444     33446
     33441     33448     33444     33447     33442     33441     33448     33444
     33443     33441     33448     33444     33444     33447     33449     33450
     33444     33447     33449     33451     33444     33447     33449     33452
     33445     33444     33447     33449     33446     33444     33447     33449
     33447     33449     33452     33453     33447     33449     33452     33454
     33447     33449     33452     33460     33448     33444     33447     33449
     33449     33452     33454     33455     33449     33452     33460     33461
     33449     33452     33460     33462     33449     33452     33460     33463
     33450     33449     33452     33453     33450     33449     33452     33454
     33450     33449     33452     33460     33451     33449     33452     33453
     33451     33449     33452     33454     33451     33449     33452     33460
     33452     33454     33455     33456     33452     33454     33455     33457
     33452     33460     33463     33464     33453     33452     33454     33455
     33453     33452     33460     33461     33453     33452     33460     33462
     33453     33452     33460     33463     33454     33452     33460     33461
     33454     33452     33460     33462     33454     33452     33460     33463
     33454     33455     33457     33458     33454     33455     33457     33459
     33454     33455     33457     33469     33455     33454     33452     33460
     33455     33457     33469     33470     33455     33457     33469     33471
     33455     33457     33469     33472     33456     33455     33457     33458
     33456     33455     33457     33459     33456     33455     33457     33469
     33457     33469     33472     33473     33457     33469     33472     33474
     33457     33469     33472     33475     33458     33457     33469     33470
     33458     33457     33469     33471     33458     33457     33469     33472
     33459     33457     33469     33470     33459     33457     33469     33471
     33459     33457     33469     33472     33460     33463     33464     33465
     33460     33463     33464     33466     33461     33460     33463     33464
     33462     33460     33463     33464     33463     33464     33466     33467
     33463     33464     33466     33468     33463     33464     33466     33516
     33464     33466     33516     33517     33464     33466     33516     33518
     33464     33466     33516     33519     33465     33464     33466     33467
     33465     33464     33466     33468     33465     33464     33466     33516
     33466     33516     33519     33520     33466     33516     33519     33521
     33466     33516     33519     33522     33467     33466     33516     33517
     33467     33466     33516     33518     33467     33466     33516     33519
     33468     33466     33516     33517     33468     33466     33516     33518
     33468     33466     33516     33519     33469     33472     33475     33476
     33469     33472     33475     33477     33469     33472     33475     33478
     33470     33469     33472     33473     33470     33469     33472     33474
     33470     33469     33472     33475     33471     33469     33472     33473
     33471     33469     33472     33474     33471     33469     33472     33475
     33472     33475     33478     33479     33472     33475     33478     33480
     33472     33475     33478     33481     33473     33472     33475     33476
     33473     33472     33475     33477     33473     33472     33475     33478
     33474     33472     33475     33476     33474     33472     33475     33477
     33474     33472     33475     33478     33475     33478     33481     33482
     33475     33478     33481     33483     33475     33478     33481     33484
     33476     33475     33478     33479     33476     33475     33478     33480
     33476     33475     33478     33481     33477     33475     33478     33479
     33477     33475     33478     33480     33477     33475     33478     33481
     33478     33481     33484     33485     33478     33481     33484     33486
     33478     33481     33484     33487     33479     33478     33481     33482
     33479     33478     33481     33483     33479     33478     33481     33484
     33480     33478     33481     33482     33480     33478     33481     33483
     33480     33478     33481     33484     33481     33484     33487     33488
     33481     33484     33487     33489     33482     33481     33484     33485
     33482     33481     33484     33486     33482     33481     33484     33487
     33483     33481     33484     33485     33483     33481     33484     33486
     33483     33481     33484     33487     33484     33487     33489     33490
     33484     33487     33489     33491     33485     33484     33487     33488
     33485     33484     33487     33489     33486     33484     33487     33488
     33486     33484     33487     33489     33487     33489     33491     33492
     33487     33489     33491     33493     33487     33489     33491     33494
     33488     33487     33489     33490     33488     33487     33489     33491
     33489     33491     33494     33495     33489     33491     33494     33496
     33489     33491     33494     33497     33490     33489     33491     33492
     33490     33489     33491     33493     33490     33489     33491     33494
     33491     33494     33497     33498     33491     33494     33497     33499
     33491     33494     33497     33500     33492     33491     33494     33495
     33492     33491     33494     33496     33492     33491     33494     33497
     33493     33491     33494     33495     33493     33491     33494     33496
     33493     33491     33494     33497     33494     33497     33500     33501
     33494     33497     33500     33502     33494     33497     33500     33503
     33495     33494     33497     33498     33495     33494     33497     33499
     33495     33494     33497     33500     33496     33494     33497     33498
     33496     33494     33497     33499     33496     33494     33497     33500
     33497     33500     33503     33504     33497     33500     33503     33505
     33497     33500     33503     33506     33498     33497     33500     33501
     33498     33497     33500     33502     33498     33497     33500     33503
     33499     33497     33500     33501     33499     33497     33500     33502
     33499     33497     33500     33503     33500     33503     33506     33507
     33500     33503     33506     33508     33500     33503     33506     33509
     33501     33500     33503     33504     33501     33500     33503     33505
     33501     33500     33503     33506     33502     33500     33503     33504
     33502     33500     33503     33505     33502     33500     33503     33506
     33503     33506     33509     33510     33503     33506     33509     33511
     33503     33506     33509     33512     33504     33503     33506     33507
     33504     33503     33506     33508     33504     33503     33506     33509
     33505     33503     33506     33507     33505     33503     33506     33508
     33505     33503     33506     33509     33506     33509     33512     33513
     33506     33509     33512     33514     33506     33509     33512     33515
     33507     33506     33509     33510     33507     33506     33509     33511
     33507     33506     33509     33512     33508     33506     33509     33510
     33508     33506     33509     33511     33508     33506     33509     33512
     33510     33509     33512     33513     33510     33509     33512     33514
     33510     33509     33512     33515     33511     33509     33512     33513
     33511     33509     33512     33514     33511     33509     33512     33515
     33516     33519     33522     33523     33516     33519     33522     33524
     33516     33519     33522     33525     33517     33516     33519     33520
     33517     33516     33519     33521     33517     33516     33519     33522
     33518     33516     33519     33520     33518     33516     33519     33521
     33518     33516     33519     33522     33519     33522     33525     33526
     33519     33522     33525     33527     33519     33522     33525     33528
     33520     33519     33522     33523     33520     33519     33522     33524
     33520     33519     33522     33525     33521     33519     33522     33523
     33521     33519     33522     33524     33521     33519     33522     33525
     33522     33525     33528     33529     33522     33525     33528     33530
     33522     33525     33528     33531     33523     33522     33525     33526
     33523     33522     33525     33527     33523     33522     33525     33528
     33524     33522     33525     33526     33524     33522     33525     33527
     33524     33522     33525     33528     33525     33528     33531     33532
     33525     33528     33531     33533     33525     33528     33531     33534
     33526     33525     33528     33529     33526     33525     33528     33530
     33526     33525     33528     33531     33527     33525     33528     33529
     33527     33525     33528     33530     33527     33525     33528     33531
     33528     33531     33534     33535     33528     33531     33534     33536
     33528     33531     33534     33537     33529     33528     33531     33532
     33529     33528     33531     33533     33529     33528     33531     33534
     33530     33528     33531     33532     33530     33528     33531     33533
     33530     33528     33531     33534     33531     33534     33537     33538
     33531     33534     33537     33539     33531     33534     33537     33540
     33532     33531     33534     33535     33532     33531     33534     33536
     33532     33531     33534     33537     33533     33531     33534     33535
     33533     33531     33534     33536     33533     33531     33534     33537
     33534     33537     33540     33541     33534     33537     33540     33542
     33534     33537     33540     33543     33535     33534     33537     33538
     33535     33534     33537     33539     33535     33534     33537     33540
     33536     33534     33537     33538     33536     33534     33537     33539
     33536     33534     33537     33540     33537     33540     33543     33544
     33537     33540     33543     33545     33537     33540     33543     33546
     33538     33537     33540     33541     33538     33537     33540     33542
     33538     33537     33540     33543     33539     33537     33540     33541
     33539     33537     33540     33542     33539     33537     33540     33543
     33540     33543     33546     33547     33540     33543     33546     33548
     33540     33543     33546     33549     33541     33540     33543     33544
     33541     33540     33543     33545     33541     33540     33543     33546
     33542     33540     33543     33544     33542     33540     33543     33545
     33542     33540     33543     33546     33543     33546     33549     33550
     33543     33546     33549     33551     33543     33546     33549     33552
     33544     33543     33546     33547     33544     33543     33546     33548
     33544     33543     33546     33549     33545     33543     33546     33547
     33545     33543     33546     33548     33545     33543     33546     33549
     33546     33549     33552     33553     33546     33549     33552     33554
     33546     33549     33552     33555     33547     33546     33549     33550
     33547     33546     33549     33551     33547     33546     33549     33552
     33548     33546     33549     33550     33548     33546     33549     33551
     33548     33546     33549     33552     33549     33552     33555     33556
     33549     33552     33555     33557     33549     33552     33555     33558
     33550     33549     33552     33553     33550     33549     33552     33554
     33550     33549     33552     33555     33551     33549     33552     33553
     33551     33549     33552     33554     33551     33549     33552     33555
     33553     33552     33555     33556     33553     33552     33555     33557
     33553     33552     33555     33558     33554     33552     33555     33556
     33554     33552     33555     33557     33554     33552     33555     33558
     33559     33563     33566     33567     33559     33563     33566     33568
     33559     33563     33566     33573     33560     33559     33563     33564
     33560     33559     33563     33565     33560     33559     33563     33566
     33561     33559     33563     33564     33561     33559     33563     33565
     33561     33559     33563     33566     33562     33559     33563     33564
     33562     33559     33563     33565     33562     33559     33563     33566
     33563     33566     33573     33569     33564     33563     33566     33567
     33564     33563     33566     33568     33564     33563     33566     33573
     33565     33563     33566     33567     33565     33563     33566     33568
     33565     33563     33566     33573     33566     33573     33569     33570
     33566     33573     33569     33571     33566     33573     33569     33572
     33567     33566     33573     33569     33568     33566     33573     33569
     33569     33572     33574     33575     33569     33572     33574     33576
     33569     33572     33574     33577     33570     33569     33572     33574
     33571     33569     33572     33574     33572     33574     33577     33578
     33572     33574     33577     33579     33572     33574     33577     33585
     33573     33569     33572     33574     33574     33577     33579     33580
     33574     33577     33585     33586     33574     33577     33585     33587
     33574     33577     33585     33588     33575     33574     33577     33578
     33575     33574     33577     33579     33575     33574     33577     33585
     33576     33574     33577     33578     33576     33574     33577     33579
     33576     33574     33577     33585     33577     33579     33580     33581
     33577     33579     33580     33582     33577     33585     33588     33589
     33578     33577     33579     33580     33578     33577     33585     33586
     33578     33577     33585     33587     33578     33577     33585     33588
     33579     33577     33585     33586     33579     33577     33585     33587
     33579     33577     33585     33588     33579     33580     33582     33583
     33579     33580     33582     33584     33579     33580     33582     33594
     33580     33579     33577     33585     33580     33582     33594     33595
     33580     33582     33594     33596     33580     33582     33594     33597
     33581     33580     33582     33583     33581     33580     33582     33584
     33581     33580     33582     33594     33582     33594     33597     33598
     33582     33594     33597     33599     33582     33594     33597     33600
     33583     33582     33594     33595     33583     33582     33594     33596
     33583     33582     33594     33597     33584     33582     33594     33595
     33584     33582     33594     33596     33584     33582     33594     33597
     33585     33588     33589     33590     33585     33588     33589     33591
     33586     33585     33588     33589     33587     33585     33588     33589
     33588     33589     33591     33592     33588     33589     33591     33593
     33588     33589     33591     33641     33589     33591     33641     33642
     33589     33591     33641     33643     33589     33591     33641     33644
     33590     33589     33591     33592     33590     33589     33591     33593
     33590     33589     33591     33641     33591     33641     33644     33645
     33591     33641     33644     33646     33591     33641     33644     33647
     33592     33591     33641     33642     33592     33591     33641     33643
     33592     33591     33641     33644     33593     33591     33641     33642
     33593     33591     33641     33643     33593     33591     33641     33644
     33594     33597     33600     33601     33594     33597     33600     33602
     33594     33597     33600     33603     33595     33594     33597     33598
     33595     33594     33597     33599     33595     33594     33597     33600
     33596     33594     33597     33598     33596     33594     33597     33599
     33596     33594     33597     33600     33597     33600     33603     33604
     33597     33600     33603     33605     33597     33600     33603     33606
     33598     33597     33600     33601     33598     33597     33600     33602
     33598     33597     33600     33603     33599     33597     33600     33601
     33599     33597     33600     33602     33599     33597     33600     33603
     33600     33603     33606     33607     33600     33603     33606     33608
     33600     33603     33606     33609     33601     33600     33603     33604
     33601     33600     33603     33605     33601     33600     33603     33606
     33602     33600     33603     33604     33602     33600     33603     33605
     33602     33600     33603     33606     33603     33606     33609     33610
     33603     33606     33609     33611     33603     33606     33609     33612
     33604     33603     33606     33607     33604     33603     33606     33608
     33604     33603     33606     33609     33605     33603     33606     33607
     33605     33603     33606     33608     33605     33603     33606     33609
     33606     33609     33612     33613     33606     33609     33612     33614
     33607     33606     33609     33610     33607     33606     33609     33611
     33607     33606     33609     33612     33608     33606     33609     33610
     33608     33606     33609     33611     33608     33606     33609     33612
     33609     33612     33614     33615     33609     33612     33614     33616
     33610     33609     33612     33613     33610     33609     33612     33614
     33611     33609     33612     33613     33611     33609     33612     33614
     33612     33614     33616     33617     33612     33614     33616     33618
     33612     33614     33616     33619     33613     33612     33614     33615
     33613     33612     33614     33616     33614     33616     33619     33620
     33614     33616     33619     33621     33614     33616     33619     33622
     33615     33614     33616     33617     33615     33614     33616     33618
     33615     33614     33616     33619     33616     33619     33622     33623
     33616     33619     33622     33624     33616     33619     33622     33625
     33617     33616     33619     33620     33617     33616     33619     33621
     33617     33616     33619     33622     33618     33616     33619     33620
     33618     33616     33619     33621     33618     33616     33619     33622
     33619     33622     33625     33626     33619     33622     33625     33627
     33619     33622     33625     33628     33620     33619     33622     33623
     33620     33619     33622     33624     33620     33619     33622     33625
     33621     33619     33622     33623     33621     33619     33622     33624
     33621     33619     33622     33625     33622     33625     33628     33629
     33622     33625     33628     33630     33622     33625     33628     33631
     33623     33622     33625     33626     33623     33622     33625     33627
     33623     33622     33625     33628     33624     33622     33625     33626
     33624     33622     33625     33627     33624     33622     33625     33628
     33625     33628     33631     33632     33625     33628     33631     33633
     33625     33628     33631     33634     33626     33625     33628     33629
     33626     33625     33628     33630     33626     33625     33628     33631
     33627     33625     33628     33629     33627     33625     33628     33630
     33627     33625     33628     33631     33628     33631     33634     33635
     33628     33631     33634     33636     33628     33631     33634     33637
     33629     33628     33631     33632     33629     33628     33631     33633
     33629     33628     33631     33634     33630     33628     33631     33632
     33630     33628     33631     33633     33630     33628     33631     33634
     33631     33634     33637     33638     33631     33634     33637     33639
     33631     33634     33637     33640     33632     33631     33634     33635
     33632     33631     33634     33636     33632     33631     33634     33637
     33633     33631     33634     33635     33633     33631     33634     33636
     33633     33631     33634     33637     33635     33634     33637     33638
     33635     33634     33637     33639     33635     33634     33637     33640
     33636     33634     33637     33638     33636     33634     33637     33639
     33636     33634     33637     33640     33641     33644     33647     33648
     33641     33644     33647     33649     33641     33644     33647     33650
     33642     33641     33644     33645     33642     33641     33644     33646
     33642     33641     33644     33647     33643     33641     33644     33645
     33643     33641     33644     33646     33643     33641     33644     33647
     33644     33647     33650     33651     33644     33647     33650     33652
     33644     33647     33650     33653     33645     33644     33647     33648
     33645     33644     33647     33649     33645     33644     33647     33650
     33646     33644     33647     33648     33646     33644     33647     33649
     33646     33644     33647     33650     33647     33650     33653     33654
     33647     33650     33653     33655     33647     33650     33653     33656
     33648     33647     33650     33651     33648     33647     33650     33652
     33648     33647     33650     33653     33649     33647     33650     33651
     33649     33647     33650     33652     33649     33647     33650     33653
     33650     33653     33656     33657     33650     33653     33656     33658
     33650     33653     33656     33659     33651     33650     33653     33654
     33651     33650     33653     33655     33651     33650     33653     33656
     33652     33650     33653     33654     33652     33650     33653     33655
     33652     33650     33653     33656     33653     33656     33659     33660
     33653     33656     33659     33661     33653     33656     33659     33662
     33654     33653     33656     33657     33654     33653     33656     33658
     33654     33653     33656     33659     33655     33653     33656     33657
     33655     33653     33656     33658     33655     33653     33656     33659
     33656     33659     33662     33663     33656     33659     33662     33664
     33656     33659     33662     33665     33657     33656     33659     33660
     33657     33656     33659     33661     33657     33656     33659     33662
     33658     33656     33659     33660     33658     33656     33659     33661
     33658     33656     33659     33662     33659     33662     33665     33666
     33659     33662     33665     33667     33659     33662     33665     33668
     33660     33659     33662     33663     33660     33659     33662     33664
     33660     33659     33662     33665     33661     33659     33662     33663
     33661     33659     33662     33664     33661     33659     33662     33665
     33662     33665     33668     33669     33662     33665     33668     33670
     33662     33665     33668     33671     33663     33662     33665     33666
     33663     33662     33665     33667     33663     33662     33665     33668
     33664     33662     33665     33666     33664     33662     33665     33667
     33664     33662     33665     33668     33665     33668     33671     33672
     33665     33668     33671     33673     33665     33668     33671     33674
     33666     33665     33668     33669     33666     33665     33668     33670
     33666     33665     33668     33671     33667     33665     33668     33669
     33667     33665     33668     33670     33667     33665     33668     33671
     33668     33671     33674     33675     33668     33671     33674     33676
     33668     33671     33674     33677     33669     33668     33671     33672
     33669     33668     33671     33673     33669     33668     33671     33674
     33670     33668     33671     33672     33670     33668     33671     33673
     33670     33668     33671     33674     33671     33674     33677     33678
     33671     33674     33677     33679     33671     33674     33677     33680
     33672     33671     33674     33675     33672     33671     33674     33676
     33672     33671     33674     33677     33673     33671     33674     33675
     33673     33671     33674     33676     33673     33671     33674     33677
     33674     33677     33680     33681     33674     33677     33680     33682
     33674     33677     33680     33683     33675     33674     33677     33678
     33675     33674     33677     33679     33675     33674     33677     33680
     33676     33674     33677     33678     33676     33674     33677     33679
     33676     33674     33677     33680     33678     33677     33680     33681
     33678     33677     33680     33682     33678     33677     33680     33683
     33679     33677     33680     33681     33679     33677     33680     33682
     33679     33677     33680     33683     33684     33685     33700     33701
     33684     33685     33700     33702     33684     33685     33700     33706
     33685     33684     33688     33689     33685     33684     33688     33690
     33685     33684     33688     33691     33685     33684     33692     33693
     33685     33684     33692     33694     33685     33684     33692     33695
     33685     33684     33696     33697     33685     33684     33696     33698
     33685     33684     33696     33699     33685     33700     33706     33703
     33686     33685     33684     33688     33686     33685     33684     33692
     33686     33685     33684     33696     33686     33685     33700     33701
     33686     33685     33700     33702     33686     33685     33700     33706
     33687     33685     33684     33688     33687     33685     33684     33692
     33687     33685     33684     33696     33687     33685     33700     33701
     33687     33685     33700     33702     33687     33685     33700     33706
     33688     33684     33685     33700     33688     33684     33692     33693
     33688     33684     33692     33694     33688     33684     33692     33695
     33688     33684     33696     33697     33688     33684     33696     33698
     33688     33684     33696     33699     33689     33688     33684     33692
     33689     33688     33684     33696     33690     33688     33684     33692
     33690     33688     33684     33696     33691     33688     33684     33692
     33691     33688     33684     33696     33692     33684     33685     33700
     33692     33684     33696     33697     33692     33684     33696     33698
     33692     33684     33696     33699     33693     33692     33684     33696
     33694     33692     33684     33696     33695     33692     33684     33696
     33696     33684     33685     33700     33700     33706     33703     33704
     33700     33706     33703     33705     33700     33706     33703     33707
     33701     33700     33706     33703     33702     33700     33706     33703
     33703     33707     33708     33709     33703     33707     33708     33710
     33703     33707     33708     33711     33704     33703     33707     33708
     33705     33703     33707     33708     33706     33703     33707     33708
     33707     33708     33711     33712     33707     33708     33711     33713
     33707     33708     33711     33719     33708     33711     33713     33714
     33708     33711     33719     33720     33708     33711     33719     33721
     33708     33711     33719     33722     33709     33708     33711     33712
     33709     33708     33711     33713     33709     33708     33711     33719
     33710     33708     33711     33712     33710     33708     33711     33713
     33710     33708     33711     33719     33711     33713     33714     33715
     33711     33713     33714     33716     33711     33719     33722     33723
     33712     33711     33713     33714     33712     33711     33719     33720
     33712     33711     33719     33721     33712     33711     33719     33722
     33713     33711     33719     33720     33713     33711     33719     33721
     33713     33711     33719     33722     33713     33714     33716     33717
     33713     33714     33716     33718     33713     33714     33716     33728
     33714     33713     33711     33719     33714     33716     33728     33729
     33714     33716     33728     33730     33714     33716     33728     33731
     33715     33714     33716     33717     33715     33714     33716     33718
     33715     33714     33716     33728     33716     33728     33731     33732
     33716     33728     33731     33733     33716     33728     33731     33734
     33717     33716     33728     33729     33717     33716     33728     33730
     33717     33716     33728     33731     33718     33716     33728     33729
     33718     33716     33728     33730     33718     33716     33728     33731
     33719     33722     33723     33724     33719     33722     33723     33725
     33720     33719     33722     33723     33721     33719     33722     33723
     33722     33723     33725     33726     33722     33723     33725     33727
     33722     33723     33725     33775     33723     33725     33775     33776
     33723     33725     33775     33777     33723     33725     33775     33778
     33724     33723     33725     33726     33724     33723     33725     33727
     33724     33723     33725     33775     33725     33775     33778     33779
     33725     33775     33778     33780     33725     33775     33778     33781
     33726     33725     33775     33776     33726     33725     33775     33777
     33726     33725     33775     33778     33727     33725     33775     33776
     33727     33725     33775     33777     33727     33725     33775     33778
     33728     33731     33734     33735     33728     33731     33734     33736
     33728     33731     33734     33737     33729     33728     33731     33732
     33729     33728     33731     33733     33729     33728     33731     33734
     33730     33728     33731     33732     33730     33728     33731     33733
     33730     33728     33731     33734     33731     33734     33737     33738
     33731     33734     33737     33739     33731     33734     33737     33740
     33732     33731     33734     33735     33732     33731     33734     33736
     33732     33731     33734     33737     33733     33731     33734     33735
     33733     33731     33734     33736     33733     33731     33734     33737
     33734     33737     33740     33741     33734     33737     33740     33742
     33734     33737     33740     33743     33735     33734     33737     33738
     33735     33734     33737     33739     33735     33734     33737     33740
     33736     33734     33737     33738     33736     33734     33737     33739
     33736     33734     33737     33740     33737     33740     33743     33744
     33737     33740     33743     33745     33737     33740     33743     33746
     33738     33737     33740     33741     33738     33737     33740     33742
     33738     33737     33740     33743     33739     33737     33740     33741
     33739     33737     33740     33742     33739     33737     33740     33743
     33740     33743     33746     33747     33740     33743     33746     33748
     33741     33740     33743     33744     33741     33740     33743     33745
     33741     33740     33743     33746     33742     33740     33743     33744
     33742     33740     33743     33745     33742     33740     33743     33746
     33743     33746     33748     33749     33743     33746     33748     33750
     33744     33743     33746     33747     33744     33743     33746     33748
     33745     33743     33746     33747     33745     33743     33746     33748
     33746     33748     33750     33751     33746     33748     33750     33752
     33746     33748     33750     33753     33747     33746     33748     33749
     33747     33746     33748     33750     33748     33750     33753     33754
     33748     33750     33753     33755     33748     33750     33753     33756
     33749     33748     33750     33751     33749     33748     33750     33752
     33749     33748     33750     33753     33750     33753     33756     33757
     33750     33753     33756     33758     33750     33753     33756     33759
     33751     33750     33753     33754     33751     33750     33753     33755
     33751     33750     33753     33756     33752     33750     33753     33754
     33752     33750     33753     33755     33752     33750     33753     33756
     33753     33756     33759     33760     33753     33756     33759     33761
     33753     33756     33759     33762     33754     33753     33756     33757
     33754     33753     33756     33758     33754     33753     33756     33759
     33755     33753     33756     33757     33755     33753     33756     33758
     33755     33753     33756     33759     33756     33759     33762     33763
     33756     33759     33762     33764     33756     33759     33762     33765
     33757     33756     33759     33760     33757     33756     33759     33761
     33757     33756     33759     33762     33758     33756     33759     33760
     33758     33756     33759     33761     33758     33756     33759     33762
     33759     33762     33765     33766     33759     33762     33765     33767
     33759     33762     33765     33768     33760     33759     33762     33763
     33760     33759     33762     33764     33760     33759     33762     33765
     33761     33759     33762     33763     33761     33759     33762     33764
     33761     33759     33762     33765     33762     33765     33768     33769
     33762     33765     33768     33770     33762     33765     33768     33771
     33763     33762     33765     33766     33763     33762     33765     33767
     33763     33762     33765     33768     33764     33762     33765     33766
     33764     33762     33765     33767     33764     33762     33765     33768
     33765     33768     33771     33772     33765     33768     33771     33773
     33765     33768     33771     33774     33766     33765     33768     33769
     33766     33765     33768     33770     33766     33765     33768     33771
     33767     33765     33768     33769     33767     33765     33768     33770
     33767     33765     33768     33771     33769     33768     33771     33772
     33769     33768     33771     33773     33769     33768     33771     33774
     33770     33768     33771     33772     33770     33768     33771     33773
     33770     33768     33771     33774     33775     33778     33781     33782
     33775     33778     33781     33783     33775     33778     33781     33784
     33776     33775     33778     33779     33776     33775     33778     33780
     33776     33775     33778     33781     33777     33775     33778     33779
     33777     33775     33778     33780     33777     33775     33778     33781
     33778     33781     33784     33785     33778     33781     33784     33786
     33778     33781     33784     33787     33779     33778     33781     33782
     33779     33778     33781     33783     33779     33778     33781     33784
     33780     33778     33781     33782     33780     33778     33781     33783
     33780     33778     33781     33784     33781     33784     33787     33788
     33781     33784     33787     33789     33781     33784     33787     33790
     33782     33781     33784     33785     33782     33781     33784     33786
     33782     33781     33784     33787     33783     33781     33784     33785
     33783     33781     33784     33786     33783     33781     33784     33787
     33784     33787     33790     33791     33784     33787     33790     33792
     33784     33787     33790     33793     33785     33784     33787     33788
     33785     33784     33787     33789     33785     33784     33787     33790
     33786     33784     33787     33788     33786     33784     33787     33789
     33786     33784     33787     33790     33787     33790     33793     33794
     33787     33790     33793     33795     33787     33790     33793     33796
     33788     33787     33790     33791     33788     33787     33790     33792
     33788     33787     33790     33793     33789     33787     33790     33791
     33789     33787     33790     33792     33789     33787     33790     33793
     33790     33793     33796     33797     33790     33793     33796     33798
     33790     33793     33796     33799     33791     33790     33793     33794
     33791     33790     33793     33795     33791     33790     33793     33796
     33792     33790     33793     33794     33792     33790     33793     33795
     33792     33790     33793     33796     33793     33796     33799     33800
     33793     33796     33799     33801     33793     33796     33799     33802
     33794     33793     33796     33797     33794     33793     33796     33798
     33794     33793     33796     33799     33795     33793     33796     33797
     33795     33793     33796     33798     33795     33793     33796     33799
     33796     33799     33802     33803     33796     33799     33802     33804
     33796     33799     33802     33805     33797     33796     33799     33800
     33797     33796     33799     33801     33797     33796     33799     33802
     33798     33796     33799     33800     33798     33796     33799     33801
     33798     33796     33799     33802     33799     33802     33805     33806
     33799     33802     33805     33807     33799     33802     33805     33808
     33800     33799     33802     33803     33800     33799     33802     33804
     33800     33799     33802     33805     33801     33799     33802     33803
     33801     33799     33802     33804     33801     33799     33802     33805
     33802     33805     33808     33809     33802     33805     33808     33810
     33802     33805     33808     33811     33803     33802     33805     33806
     33803     33802     33805     33807     33803     33802     33805     33808
     33804     33802     33805     33806     33804     33802     33805     33807
     33804     33802     33805     33808     33805     33808     33811     33812
     33805     33808     33811     33813     33805     33808     33811     33814
     33806     33805     33808     33809     33806     33805     33808     33810
     33806     33805     33808     33811     33807     33805     33808     33809
     33807     33805     33808     33810     33807     33805     33808     33811
     33808     33811     33814     33815     33808     33811     33814     33816
     33808     33811     33814     33817     33809     33808     33811     33812
     33809     33808     33811     33813     33809     33808     33811     33814
     33810     33808     33811     33812     33810     33808     33811     33813
     33810     33808     33811     33814     33812     33811     33814     33815
     33812     33811     33814     33816     33812     33811     33814     33817
     33813     33811     33814     33815     33813     33811     33814     33816
     33813     33811     33814     33817     33818     33819     33834     33835
     33818     33819     33834     33836     33818     33819     33834     33840
     33819     33818     33822     33823     33819     33818     33822     33824
     33819     33818     33822     33825     33819     33818     33826     33827
     33819     33818     33826     33828     33819     33818     33826     33829
     33819     33818     33830     33831     33819     33818     33830     33832
     33819     33818     33830     33833     33819     33834     33840     33837
     33820     33819     33818     33822     33820     33819     33818     33826
     33820     33819     33818     33830     33820     33819     33834     33835
     33820     33819     33834     33836     33820     33819     33834     33840
     33821     33819     33818     33822     33821     33819     33818     33826
     33821     33819     33818     33830     33821     33819     33834     33835
     33821     33819     33834     33836     33821     33819     33834     33840
     33822     33818     33819     33834     33822     33818     33826     33827
     33822     33818     33826     33828     33822     33818     33826     33829
     33822     33818     33830     33831     33822     33818     33830     33832
     33822     33818     33830     33833     33823     33822     33818     33826
     33823     33822     33818     33830     33824     33822     33818     33826
     33824     33822     33818     33830     33825     33822     33818     33826
     33825     33822     33818     33830     33826     33818     33819     33834
     33826     33818     33830     33831     33826     33818     33830     33832
     33826     33818     33830     33833     33827     33826     33818     33830
     33828     33826     33818     33830     33829     33826     33818     33830
     33830     33818     33819     33834     33834     33840     33837     33838
     33834     33840     33837     33839     33834     33840     33837     33841
     33835     33834     33840     33837     33836     33834     33840     33837
     33837     33841     33842     33843     33837     33841     33842     33844
     33837     33841     33842     33845     33838     33837     33841     33842
     33839     33837     33841     33842     33840     33837     33841     33842
     33841     33842     33845     33846     33841     33842     33845     33847
     33841     33842     33845     33853     33842     33845     33847     33848
     33842     33845     33853     33854     33842     33845     33853     33855
     33842     33845     33853     33856     33843     33842     33845     33846
     33843     33842     33845     33847     33843     33842     33845     33853
     33844     33842     33845     33846     33844     33842     33845     33847
     33844     33842     33845     33853     33845     33847     33848     33849
     33845     33847     33848     33850     33845     33853     33856     33857
     33846     33845     33847     33848     33846     33845     33853     33854
     33846     33845     33853     33855     33846     33845     33853     33856
     33847     33845     33853     33854     33847     33845     33853     33855
     33847     33845     33853     33856     33847     33848     33850     33851
     33847     33848     33850     33852     33847     33848     33850     33862
     33848     33847     33845     33853     33848     33850     33862     33863
     33848     33850     33862     33864     33848     33850     33862     33865
     33849     33848     33850     33851     33849     33848     33850     33852
     33849     33848     33850     33862     33850     33862     33865     33866
     33850     33862     33865     33867     33850     33862     33865     33868
     33851     33850     33862     33863     33851     33850     33862     33864
     33851     33850     33862     33865     33852     33850     33862     33863
     33852     33850     33862     33864     33852     33850     33862     33865
     33853     33856     33857     33858     33853     33856     33857     33859
     33854     33853     33856     33857     33855     33853     33856     33857
     33856     33857     33859     33860     33856     33857     33859     33861
     33856     33857     33859     33909     33857     33859     33909     33910
     33857     33859     33909     33911     33857     33859     33909     33912
     33858     33857     33859     33860     33858     33857     33859     33861
     33858     33857     33859     33909     33859     33909     33912     33913
     33859     33909     33912     33914     33859     33909     33912     33915
     33860     33859     33909     33910     33860     33859     33909     33911
     33860     33859     33909     33912     33861     33859     33909     33910
     33861     33859     33909     33911     33861     33859     33909     33912
     33862     33865     33868     33869     33862     33865     33868     33870
     33862     33865     33868     33871     33863     33862     33865     33866
     33863     33862     33865     33867     33863     33862     33865     33868
     33864     33862     33865     33866     33864     33862     33865     33867
     33864     33862     33865     33868     33865     33868     33871     33872
     33865     33868     33871     33873     33865     33868     33871     33874
     33866     33865     33868     33869     33866     33865     33868     33870
     33866     33865     33868     33871     33867     33865     33868     33869
     33867     33865     33868     33870     33867     33865     33868     33871
     33868     33871     33874     33875     33868     33871     33874     33876
     33868     33871     33874     33877     33869     33868     33871     33872
     33869     33868     33871     33873     33869     33868     33871     33874
     33870     33868     33871     33872     33870     33868     33871     33873
     33870     33868     33871     33874     33871     33874     33877     33878
     33871     33874     33877     33879     33871     33874     33877     33880
     33872     33871     33874     33875     33872     33871     33874     33876
     33872     33871     33874     33877     33873     33871     33874     33875
     33873     33871     33874     33876     33873     33871     33874     33877
     33874     33877     33880     33881     33874     33877     33880     33882
     33875     33874     33877     33878     33875     33874     33877     33879
     33875     33874     33877     33880     33876     33874     33877     33878
     33876     33874     33877     33879     33876     33874     33877     33880
     33877     33880     33882     33883     33877     33880     33882     33884
     33878     33877     33880     33881     33878     33877     33880     33882
     33879     33877     33880     33881     33879     33877     33880     33882
     33880     33882     33884     33885     33880     33882     33884     33886
     33880     33882     33884     33887     33881     33880     33882     33883
     33881     33880     33882     33884     33882     33884     33887     33888
     33882     33884     33887     33889     33882     33884     33887     33890
     33883     33882     33884     33885     33883     33882     33884     33886
     33883     33882     33884     33887     33884     33887     33890     33891
     33884     33887     33890     33892     33884     33887     33890     33893
     33885     33884     33887     33888     33885     33884     33887     33889
     33885     33884     33887     33890     33886     33884     33887     33888
     33886     33884     33887     33889     33886     33884     33887     33890
     33887     33890     33893     33894     33887     33890     33893     33895
     33887     33890     33893     33896     33888     33887     33890     33891
     33888     33887     33890     33892     33888     33887     33890     33893
     33889     33887     33890     33891     33889     33887     33890     33892
     33889     33887     33890     33893     33890     33893     33896     33897
     33890     33893     33896     33898     33890     33893     33896     33899
     33891     33890     33893     33894     33891     33890     33893     33895
     33891     33890     33893     33896     33892     33890     33893     33894
     33892     33890     33893     33895     33892     33890     33893     33896
     33893     33896     33899     33900     33893     33896     33899     33901
     33893     33896     33899     33902     33894     33893     33896     33897
     33894     33893     33896     33898     33894     33893     33896     33899
     33895     33893     33896     33897     33895     33893     33896     33898
     33895     33893     33896     33899     33896     33899     33902     33903
     33896     33899     33902     33904     33896     33899     33902     33905
     33897     33896     33899     33900     33897     33896     33899     33901
     33897     33896     33899     33902     33898     33896     33899     33900
     33898     33896     33899     33901     33898     33896     33899     33902
     33899     33902     33905     33906     33899     33902     33905     33907
     33899     33902     33905     33908     33900     33899     33902     33903
     33900     33899     33902     33904     33900     33899     33902     33905
     33901     33899     33902     33903     33901     33899     33902     33904
     33901     33899     33902     33905     33903     33902     33905     33906
     33903     33902     33905     33907     33903     33902     33905     33908
     33904     33902     33905     33906     33904     33902     33905     33907
     33904     33902     33905     33908     33909     33912     33915     33916
     33909     33912     33915     33917     33909     33912     33915     33918
     33910     33909     33912     33913     33910     33909     33912     33914
     33910     33909     33912     33915     33911     33909     33912     33913
     33911     33909     33912     33914     33911     33909     33912     33915
     33912     33915     33918     33919     33912     33915     33918     33920
     33912     33915     33918     33921     33913     33912     33915     33916
     33913     33912     33915     33917     33913     33912     33915     33918
     33914     33912     33915     33916     33914     33912     33915     33917
     33914     33912     33915     33918     33915     33918     33921     33922
     33915     33918     33921     33923     33915     33918     33921     33924
     33916     33915     33918     33919     33916     33915     33918     33920
     33916     33915     33918     33921     33917     33915     33918     33919
     33917     33915     33918     33920     33917     33915     33918     33921
     33918     33921     33924     33925     33918     33921     33924     33926
     33918     33921     33924     33927     33919     33918     33921     33922
     33919     33918     33921     33923     33919     33918     33921     33924
     33920     33918     33921     33922     33920     33918     33921     33923
     33920     33918     33921     33924     33921     33924     33927     33928
     33921     33924     33927     33929     33921     33924     33927     33930
     33922     33921     33924     33925     33922     33921     33924     33926
     33922     33921     33924     33927     33923     33921     33924     33925
     33923     33921     33924     33926     33923     33921     33924     33927
     33924     33927     33930     33931     33924     33927     33930     33932
     33924     33927     33930     33933     33925     33924     33927     33928
     33925     33924     33927     33929     33925     33924     33927     33930
     33926     33924     33927     33928     33926     33924     33927     33929
     33926     33924     33927     33930     33927     33930     33933     33934
     33927     33930     33933     33935     33927     33930     33933     33936
     33928     33927     33930     33931     33928     33927     33930     33932
     33928     33927     33930     33933     33929     33927     33930     33931
     33929     33927     33930     33932     33929     33927     33930     33933
     33930     33933     33936     33937     33930     33933     33936     33938
     33930     33933     33936     33939     33931     33930     33933     33934
     33931     33930     33933     33935     33931     33930     33933     33936
     33932     33930     33933     33934     33932     33930     33933     33935
     33932     33930     33933     33936     33933     33936     33939     33940
     33933     33936     33939     33941     33933     33936     33939     33942
     33934     33933     33936     33937     33934     33933     33936     33938
     33934     33933     33936     33939     33935     33933     33936     33937
     33935     33933     33936     33938     33935     33933     33936     33939
     33936     33939     33942     33943     33936     33939     33942     33944
     33936     33939     33942     33945     33937     33936     33939     33940
     33937     33936     33939     33941     33937     33936     33939     33942
     33938     33936     33939     33940     33938     33936     33939     33941
     33938     33936     33939     33942     33939     33942     33945     33946
     33939     33942     33945     33947     33939     33942     33945     33948
     33940     33939     33942     33943     33940     33939     33942     33944
     33940     33939     33942     33945     33941     33939     33942     33943
     33941     33939     33942     33944     33941     33939     33942     33945
     33942     33945     33948     33949     33942     33945     33948     33950
     33942     33945     33948     33951     33943     33942     33945     33946
     33943     33942     33945     33947     33943     33942     33945     33948
     33944     33942     33945     33946     33944     33942     33945     33947
     33944     33942     33945     33948     33946     33945     33948     33949
     33946     33945     33948     33950     33946     33945     33948     33951
     33947     33945     33948     33949     33947     33945     33948     33950
     33947     33945     33948     33951     33952     33956     33959     33960
     33952     33956     33959     33961     33952     33956     33959     33966
     33953     33952     33956     33957     33953     33952     33956     33958
     33953     33952     33956     33959     33954     33952     33956     33957
     33954     33952     33956     33958     33954     33952     33956     33959
     33955     33952     33956     33957     33955     33952     33956     33958
     33955     33952     33956     33959     33956     33959     33966     33962
     33957     33956     33959     33960     33957     33956     33959     33961
     33957     33956     33959     33966     33958     33956     33959     33960
     33958     33956     33959     33961     33958     33956     33959     33966
     33959     33966     33962     33963     33959     33966     33962     33964
     33959     33966     33962     33965     33960     33959     33966     33962
     33961     33959     33966     33962     33962     33965     33967     33968
     33962     33965     33967     33969     33962     33965     33967     33970
     33963     33962     33965     33967     33964     33962     33965     33967
     33965     33967     33970     33971     33965     33967     33970     33972
     33965     33967     33970     33978     33966     33962     33965     33967
     33967     33970     33972     33973     33967     33970     33978     33979
     33967     33970     33978     33980     33967     33970     33978     33981
     33968     33967     33970     33971     33968     33967     33970     33972
     33968     33967     33970     33978     33969     33967     33970     33971
     33969     33967     33970     33972     33969     33967     33970     33978
     33970     33972     33973     33974     33970     33972     33973     33975
     33970     33978     33981     33982     33971     33970     33972     33973
     33971     33970     33978     33979     33971     33970     33978     33980
     33971     33970     33978     33981     33972     33970     33978     33979
     33972     33970     33978     33980     33972     33970     33978     33981
     33972     33973     33975     33976     33972     33973     33975     33977
     33972     33973     33975     33987     33973     33972     33970     33978
     33973     33975     33987     33988     33973     33975     33987     33989
     33973     33975     33987     33990     33974     33973     33975     33976
     33974     33973     33975     33977     33974     33973     33975     33987
     33975     33987     33990     33991     33975     33987     33990     33992
     33975     33987     33990     33993     33976     33975     33987     33988
     33976     33975     33987     33989     33976     33975     33987     33990
     33977     33975     33987     33988     33977     33975     33987     33989
     33977     33975     33987     33990     33978     33981     33982     33983
     33978     33981     33982     33984     33979     33978     33981     33982
     33980     33978     33981     33982     33981     33982     33984     33985
     33981     33982     33984     33986     33981     33982     33984     34034
     33982     33984     34034     34035     33982     33984     34034     34036
     33982     33984     34034     34037     33983     33982     33984     33985
     33983     33982     33984     33986     33983     33982     33984     34034
     33984     34034     34037     34038     33984     34034     34037     34039
     33984     34034     34037     34040     33985     33984     34034     34035
     33985     33984     34034     34036     33985     33984     34034     34037
     33986     33984     34034     34035     33986     33984     34034     34036
     33986     33984     34034     34037     33987     33990     33993     33994
     33987     33990     33993     33995     33987     33990     33993     33996
     33988     33987     33990     33991     33988     33987     33990     33992
     33988     33987     33990     33993     33989     33987     33990     33991
     33989     33987     33990     33992     33989     33987     33990     33993
     33990     33993     33996     33997     33990     33993     33996     33998
     33990     33993     33996     33999     33991     33990     33993     33994
     33991     33990     33993     33995     33991     33990     33993     33996
     33992     33990     33993     33994     33992     33990     33993     33995
     33992     33990     33993     33996     33993     33996     33999     34000
     33993     33996     33999     34001     33993     33996     33999     34002
     33994     33993     33996     33997     33994     33993     33996     33998
     33994     33993     33996     33999     33995     33993     33996     33997
     33995     33993     33996     33998     33995     33993     33996     33999
     33996     33999     34002     34003     33996     33999     34002     34004
     33996     33999     34002     34005     33997     33996     33999     34000
     33997     33996     33999     34001     33997     33996     33999     34002
     33998     33996     33999     34000     33998     33996     33999     34001
     33998     33996     33999     34002     33999     34002     34005     34006
     33999     34002     34005     34007     34000     33999     34002     34003
     34000     33999     34002     34004     34000     33999     34002     34005
     34001     33999     34002     34003     34001     33999     34002     34004
     34001     33999     34002     34005     34002     34005     34007     34008
     34002     34005     34007     34009     34003     34002     34005     34006
     34003     34002     34005     34007     34004     34002     34005     34006
     34004     34002     34005     34007     34005     34007     34009     34010
     34005     34007     34009     34011     34005     34007     34009     34012
     34006     34005     34007     34008     34006     34005     34007     34009
     34007     34009     34012     34013     34007     34009     34012     34014
     34007     34009     34012     34015     34008     34007     34009     34010
     34008     34007     34009     34011     34008     34007     34009     34012
     34009     34012     34015     34016     34009     34012     34015     34017
     34009     34012     34015     34018     34010     34009     34012     34013
     34010     34009     34012     34014     34010     34009     34012     34015
     34011     34009     34012     34013     34011     34009     34012     34014
     34011     34009     34012     34015     34012     34015     34018     34019
     34012     34015     34018     34020     34012     34015     34018     34021
     34013     34012     34015     34016     34013     34012     34015     34017
     34013     34012     34015     34018     34014     34012     34015     34016
     34014     34012     34015     34017     34014     34012     34015     34018
     34015     34018     34021     34022     34015     34018     34021     34023
     34015     34018     34021     34024     34016     34015     34018     34019
     34016     34015     34018     34020     34016     34015     34018     34021
     34017     34015     34018     34019     34017     34015     34018     34020
     34017     34015     34018     34021     34018     34021     34024     34025
     34018     34021     34024     34026     34018     34021     34024     34027
     34019     34018     34021     34022     34019     34018     34021     34023
     34019     34018     34021     34024     34020     34018     34021     34022
     34020     34018     34021     34023     34020     34018     34021     34024
     34021     34024     34027     34028     34021     34024     34027     34029
     34021     34024     34027     34030     34022     34021     34024     34025
     34022     34021     34024     34026     34022     34021     34024     34027
     34023     34021     34024     34025     34023     34021     34024     34026
     34023     34021     34024     34027     34024     34027     34030     34031
     34024     34027     34030     34032     34024     34027     34030     34033
     34025     34024     34027     34028     34025     34024     34027     34029
     34025     34024     34027     34030     34026     34024     34027     34028
     34026     34024     34027     34029     34026     34024     34027     34030
     34028     34027     34030     34031     34028     34027     34030     34032
     34028     34027     34030     34033     34029     34027     34030     34031
     34029     34027     34030     34032     34029     34027     34030     34033
     34034     34037     34040     34041     34034     34037     34040     34042
     34034     34037     34040     34043     34035     34034     34037     34038
     34035     34034     34037     34039     34035     34034     34037     34040
     34036     34034     34037     34038     34036     34034     34037     34039
     34036     34034     34037     34040     34037     34040     34043     34044
     34037     34040     34043     34045     34037     34040     34043     34046
     34038     34037     34040     34041     34038     34037     34040     34042
     34038     34037     34040     34043     34039     34037     34040     34041
     34039     34037     34040     34042     34039     34037     34040     34043
     34040     34043     34046     34047     34040     34043     34046     34048
     34040     34043     34046     34049     34041     34040     34043     34044
     34041     34040     34043     34045     34041     34040     34043     34046
     34042     34040     34043     34044     34042     34040     34043     34045
     34042     34040     34043     34046     34043     34046     34049     34050
     34043     34046     34049     34051     34043     34046     34049     34052
     34044     34043     34046     34047     34044     34043     34046     34048
     34044     34043     34046     34049     34045     34043     34046     34047
     34045     34043     34046     34048     34045     34043     34046     34049
     34046     34049     34052     34053     34046     34049     34052     34054
     34046     34049     34052     34055     34047     34046     34049     34050
     34047     34046     34049     34051     34047     34046     34049     34052
     34048     34046     34049     34050     34048     34046     34049     34051
     34048     34046     34049     34052     34049     34052     34055     34056
     34049     34052     34055     34057     34049     34052     34055     34058
     34050     34049     34052     34053     34050     34049     34052     34054
     34050     34049     34052     34055     34051     34049     34052     34053
     34051     34049     34052     34054     34051     34049     34052     34055
     34052     34055     34058     34059     34052     34055     34058     34060
     34052     34055     34058     34061     34053     34052     34055     34056
     34053     34052     34055     34057     34053     34052     34055     34058
     34054     34052     34055     34056     34054     34052     34055     34057
     34054     34052     34055     34058     34055     34058     34061     34062
     34055     34058     34061     34063     34055     34058     34061     34064
     34056     34055     34058     34059     34056     34055     34058     34060
     34056     34055     34058     34061     34057     34055     34058     34059
     34057     34055     34058     34060     34057     34055     34058     34061
     34058     34061     34064     34065     34058     34061     34064     34066
     34058     34061     34064     34067     34059     34058     34061     34062
     34059     34058     34061     34063     34059     34058     34061     34064
     34060     34058     34061     34062     34060     34058     34061     34063
     34060     34058     34061     34064     34061     34064     34067     34068
     34061     34064     34067     34069     34061     34064     34067     34070
     34062     34061     34064     34065     34062     34061     34064     34066
     34062     34061     34064     34067     34063     34061     34064     34065
     34063     34061     34064     34066     34063     34061     34064     34067
     34064     34067     34070     34071     34064     34067     34070     34072
     34064     34067     34070     34073     34065     34064     34067     34068
     34065     34064     34067     34069     34065     34064     34067     34070
     34066     34064     34067     34068     34066     34064     34067     34069
     34066     34064     34067     34070     34067     34070     34073     34074
     34067     34070     34073     34075     34067     34070     34073     34076
     34068     34067     34070     34071     34068     34067     34070     34072
     34068     34067     34070     34073     34069     34067     34070     34071
     34069     34067     34070     34072     34069     34067     34070     34073
     34071     34070     34073     34074     34071     34070     34073     34075
     34071     34070     34073     34076     34072     34070     34073     34074
     34072     34070     34073     34075     34072     34070     34073     34076
     34077     34081     34084     34085     34077     34081     34084     34086
     34077     34081     34084     34091     34078     34077     34081     34082
     34078     34077     34081     34083     34078     34077     34081     34084
     34079     34077     34081     34082     34079     34077     34081     34083
     34079     34077     34081     34084     34080     34077     34081     34082
     34080     34077     34081     34083     34080     34077     34081     34084
     34081     34084     34091     34087     34082     34081     34084     34085
     34082     34081     34084     34086     34082     34081     34084     34091
     34083     34081     34084     34085     34083     34081     34084     34086
     34083     34081     34084     34091     34084     34091     34087     34088
     34084     34091     34087     34089     34084     34091     34087     34090
     34085     34084     34091     34087     34086     34084     34091     34087
     34087     34090     34092     34093     34087     34090     34092     34094
     34087     34090     34092     34095     34088     34087     34090     34092
     34089     34087     34090     34092     34090     34092     34095     34096
     34090     34092     34095     34097     34090     34092     34095     34103
     34091     34087     34090     34092     34092     34095     34097     34098
     34092     34095     34103     34104     34092     34095     34103     34105
     34092     34095     34103     34106     34093     34092     34095     34096
     34093     34092     34095     34097     34093     34092     34095     34103
     34094     34092     34095     34096     34094     34092     34095     34097
     34094     34092     34095     34103     34095     34097     34098     34099
     34095     34097     34098     34100     34095     34103     34106     34107
     34096     34095     34097     34098     34096     34095     34103     34104
     34096     34095     34103     34105     34096     34095     34103     34106
     34097     34095     34103     34104     34097     34095     34103     34105
     34097     34095     34103     34106     34097     34098     34100     34101
     34097     34098     34100     34102     34097     34098     34100     34112
     34098     34097     34095     34103     34098     34100     34112     34113
     34098     34100     34112     34114     34098     34100     34112     34115
     34099     34098     34100     34101     34099     34098     34100     34102
     34099     34098     34100     34112     34100     34112     34115     34116
     34100     34112     34115     34117     34100     34112     34115     34118
     34101     34100     34112     34113     34101     34100     34112     34114
     34101     34100     34112     34115     34102     34100     34112     34113
     34102     34100     34112     34114     34102     34100     34112     34115
     34103     34106     34107     34108     34103     34106     34107     34109
     34104     34103     34106     34107     34105     34103     34106     34107
     34106     34107     34109     34110     34106     34107     34109     34111
     34106     34107     34109     34159     34107     34109     34159     34160
     34107     34109     34159     34161     34107     34109     34159     34162
     34108     34107     34109     34110     34108     34107     34109     34111
     34108     34107     34109     34159     34109     34159     34162     34163
     34109     34159     34162     34164     34109     34159     34162     34165
     34110     34109     34159     34160     34110     34109     34159     34161
     34110     34109     34159     34162     34111     34109     34159     34160
     34111     34109     34159     34161     34111     34109     34159     34162
     34112     34115     34118     34119     34112     34115     34118     34120
     34112     34115     34118     34121     34113     34112     34115     34116
     34113     34112     34115     34117     34113     34112     34115     34118
     34114     34112     34115     34116     34114     34112     34115     34117
     34114     34112     34115     34118     34115     34118     34121     34122
     34115     34118     34121     34123     34115     34118     34121     34124
     34116     34115     34118     34119     34116     34115     34118     34120
     34116     34115     34118     34121     34117     34115     34118     34119
     34117     34115     34118     34120     34117     34115     34118     34121
     34118     34121     34124     34125     34118     34121     34124     34126
     34118     34121     34124     34127     34119     34118     34121     34122
     34119     34118     34121     34123     34119     34118     34121     34124
     34120     34118     34121     34122     34120     34118     34121     34123
     34120     34118     34121     34124     34121     34124     34127     34128
     34121     34124     34127     34129     34121     34124     34127     34130
     34122     34121     34124     34125     34122     34121     34124     34126
     34122     34121     34124     34127     34123     34121     34124     34125
     34123     34121     34124     34126     34123     34121     34124     34127
     34124     34127     34130     34131     34124     34127     34130     34132
     34125     34124     34127     34128     34125     34124     34127     34129
     34125     34124     34127     34130     34126     34124     34127     34128
     34126     34124     34127     34129     34126     34124     34127     34130
     34127     34130     34132     34133     34127     34130     34132     34134
     34128     34127     34130     34131     34128     34127     34130     34132
     34129     34127     34130     34131     34129     34127     34130     34132
     34130     34132     34134     34135     34130     34132     34134     34136
     34130     34132     34134     34137     34131     34130     34132     34133
     34131     34130     34132     34134     34132     34134     34137     34138
     34132     34134     34137     34139     34132     34134     34137     34140
     34133     34132     34134     34135     34133     34132     34134     34136
     34133     34132     34134     34137     34134     34137     34140     34141
     34134     34137     34140     34142     34134     34137     34140     34143
     34135     34134     34137     34138     34135     34134     34137     34139
     34135     34134     34137     34140     34136     34134     34137     34138
     34136     34134     34137     34139     34136     34134     34137     34140
     34137     34140     34143     34144     34137     34140     34143     34145
     34137     34140     34143     34146     34138     34137     34140     34141
     34138     34137     34140     34142     34138     34137     34140     34143
     34139     34137     34140     34141     34139     34137     34140     34142
     34139     34137     34140     34143     34140     34143     34146     34147
     34140     34143     34146     34148     34140     34143     34146     34149
     34141     34140     34143     34144     34141     34140     34143     34145
     34141     34140     34143     34146     34142     34140     34143     34144
     34142     34140     34143     34145     34142     34140     34143     34146
     34143     34146     34149     34150     34143     34146     34149     34151
     34143     34146     34149     34152     34144     34143     34146     34147
     34144     34143     34146     34148     34144     34143     34146     34149
     34145     34143     34146     34147     34145     34143     34146     34148
     34145     34143     34146     34149     34146     34149     34152     34153
     34146     34149     34152     34154     34146     34149     34152     34155
     34147     34146     34149     34150     34147     34146     34149     34151
     34147     34146     34149     34152     34148     34146     34149     34150
     34148     34146     34149     34151     34148     34146     34149     34152
     34149     34152     34155     34156     34149     34152     34155     34157
     34149     34152     34155     34158     34150     34149     34152     34153
     34150     34149     34152     34154     34150     34149     34152     34155
     34151     34149     34152     34153     34151     34149     34152     34154
     34151     34149     34152     34155     34153     34152     34155     34156
     34153     34152     34155     34157     34153     34152     34155     34158
     34154     34152     34155     34156     34154     34152     34155     34157
     34154     34152     34155     34158     34159     34162     34165     34166
     34159     34162     34165     34167     34159     34162     34165     34168
     34160     34159     34162     34163     34160     34159     34162     34164
     34160     34159     34162     34165     34161     34159     34162     34163
     34161     34159     34162     34164     34161     34159     34162     34165
     34162     34165     34168     34169     34162     34165     34168     34170
     34162     34165     34168     34171     34163     34162     34165     34166
     34163     34162     34165     34167     34163     34162     34165     34168
     34164     34162     34165     34166     34164     34162     34165     34167
     34164     34162     34165     34168     34165     34168     34171     34172
     34165     34168     34171     34173     34165     34168     34171     34174
     34166     34165     34168     34169     34166     34165     34168     34170
     34166     34165     34168     34171     34167     34165     34168     34169
     34167     34165     34168     34170     34167     34165     34168     34171
     34168     34171     34174     34175     34168     34171     34174     34176
     34168     34171     34174     34177     34169     34168     34171     34172
     34169     34168     34171     34173     34169     34168     34171     34174
     34170     34168     34171     34172     34170     34168     34171     34173
     34170     34168     34171     34174     34171     34174     34177     34178
     34171     34174     34177     34179     34171     34174     34177     34180
     34172     34171     34174     34175     34172     34171     34174     34176
     34172     34171     34174     34177     34173     34171     34174     34175
     34173     34171     34174     34176     34173     34171     34174     34177
     34174     34177     34180     34181     34174     34177     34180     34182
     34174     34177     34180     34183     34175     34174     34177     34178
     34175     34174     34177     34179     34175     34174     34177     34180
     34176     34174     34177     34178     34176     34174     34177     34179
     34176     34174     34177     34180     34177     34180     34183     34184
     34177     34180     34183     34185     34177     34180     34183     34186
     34178     34177     34180     34181     34178     34177     34180     34182
     34178     34177     34180     34183     34179     34177     34180     34181
     34179     34177     34180     34182     34179     34177     34180     34183
     34180     34183     34186     34187     34180     34183     34186     34188
     34180     34183     34186     34189     34181     34180     34183     34184
     34181     34180     34183     34185     34181     34180     34183     34186
     34182     34180     34183     34184     34182     34180     34183     34185
     34182     34180     34183     34186     34183     34186     34189     34190
     34183     34186     34189     34191     34183     34186     34189     34192
     34184     34183     34186     34187     34184     34183     34186     34188
     34184     34183     34186     34189     34185     34183     34186     34187
     34185     34183     34186     34188     34185     34183     34186     34189
     34186     34189     34192     34193     34186     34189     34192     34194
     34186     34189     34192     34195     34187     34186     34189     34190
     34187     34186     34189     34191     34187     34186     34189     34192
     34188     34186     34189     34190     34188     34186     34189     34191
     34188     34186     34189     34192     34189     34192     34195     34196
     34189     34192     34195     34197     34189     34192     34195     34198
     34190     34189     34192     34193     34190     34189     34192     34194
     34190     34189     34192     34195     34191     34189     34192     34193
     34191     34189     34192     34194     34191     34189     34192     34195
     34192     34195     34198     34199     34192     34195     34198     34200
     34192     34195     34198     34201     34193     34192     34195     34196
     34193     34192     34195     34197     34193     34192     34195     34198
     34194     34192     34195     34196     34194     34192     34195     34197
     34194     34192     34195     34198     34196     34195     34198     34199
     34196     34195     34198     34200     34196     34195     34198     34201
     34197     34195     34198     34199     34197     34195     34198     34200
     34197     34195     34198     34201     34202     34203     34218     34219
     34202     34203     34218     34220     34202     34203     34218     34224
     34203     34202     34206     34207     34203     34202     34206     34208
     34203     34202     34206     34209     34203     34202     34210     34211
     34203     34202     34210     34212     34203     34202     34210     34213
     34203     34202     34214     34215     34203     34202     34214     34216
     34203     34202     34214     34217     34203     34218     34224     34221
     34204     34203     34202     34206     34204     34203     34202     34210
     34204     34203     34202     34214     34204     34203     34218     34219
     34204     34203     34218     34220     34204     34203     34218     34224
     34205     34203     34202     34206     34205     34203     34202     34210
     34205     34203     34202     34214     34205     34203     34218     34219
     34205     34203     34218     34220     34205     34203     34218     34224
     34206     34202     34203     34218     34206     34202     34210     34211
     34206     34202     34210     34212     34206     34202     34210     34213
     34206     34202     34214     34215     34206     34202     34214     34216
     34206     34202     34214     34217     34207     34206     34202     34210
     34207     34206     34202     34214     34208     34206     34202     34210
     34208     34206     34202     34214     34209     34206     34202     34210
     34209     34206     34202     34214     34210     34202     34203     34218
     34210     34202     34214     34215     34210     34202     34214     34216
     34210     34202     34214     34217     34211     34210     34202     34214
     34212     34210     34202     34214     34213     34210     34202     34214
     34214     34202     34203     34218     34218     34224     34221     34222
     34218     34224     34221     34223     34218     34224     34221     34225
     34219     34218     34224     34221     34220     34218     34224     34221
     34221     34225     34226     34227     34221     34225     34226     34228
     34221     34225     34226     34229     34222     34221     34225     34226
     34223     34221     34225     34226     34224     34221     34225     34226
     34225     34226     34229     34230     34225     34226     34229     34231
     34225     34226     34229     34237     34226     34229     34231     34232
     34226     34229     34237     34238     34226     34229     34237     34239
     34226     34229     34237     34240     34227     34226     34229     34230
     34227     34226     34229     34231     34227     34226     34229     34237
     34228     34226     34229     34230     34228     34226     34229     34231
     34228     34226     34229     34237     34229     34231     34232     34233
     34229     34231     34232     34234     34229     34237     34240     34241
     34230     34229     34231     34232     34230     34229     34237     34238
     34230     34229     34237     34239     34230     34229     34237     34240
     34231     34229     34237     34238     34231     34229     34237     34239
     34231     34229     34237     34240     34231     34232     34234     34235
     34231     34232     34234     34236     34231     34232     34234     34246
     34232     34231     34229     34237     34232     34234     34246     34247
     34232     34234     34246     34248     34232     34234     34246     34249
     34233     34232     34234     34235     34233     34232     34234     34236
     34233     34232     34234     34246     34234     34246     34249     34250
     34234     34246     34249     34251     34234     34246     34249     34252
     34235     34234     34246     34247     34235     34234     34246     34248
     34235     34234     34246     34249     34236     34234     34246     34247
     34236     34234     34246     34248     34236     34234     34246     34249
     34237     34240     34241     34242     34237     34240     34241     34243
     34238     34237     34240     34241     34239     34237     34240     34241
     34240     34241     34243     34244     34240     34241     34243     34245
     34240     34241     34243     34293     34241     34243     34293     34294
     34241     34243     34293     34295     34241     34243     34293     34296
     34242     34241     34243     34244     34242     34241     34243     34245
     34242     34241     34243     34293     34243     34293     34296     34297
     34243     34293     34296     34298     34243     34293     34296     34299
     34244     34243     34293     34294     34244     34243     34293     34295
     34244     34243     34293     34296     34245     34243     34293     34294
     34245     34243     34293     34295     34245     34243     34293     34296
     34246     34249     34252     34253     34246     34249     34252     34254
     34246     34249     34252     34255     34247     34246     34249     34250
     34247     34246     34249     34251     34247     34246     34249     34252
     34248     34246     34249     34250     34248     34246     34249     34251
     34248     34246     34249     34252     34249     34252     34255     34256
     34249     34252     34255     34257     34249     34252     34255     34258
     34250     34249     34252     34253     34250     34249     34252     34254
     34250     34249     34252     34255     34251     34249     34252     34253
     34251     34249     34252     34254     34251     34249     34252     34255
     34252     34255     34258     34259     34252     34255     34258     34260
     34252     34255     34258     34261     34253     34252     34255     34256
     34253     34252     34255     34257     34253     34252     34255     34258
     34254     34252     34255     34256     34254     34252     34255     34257
     34254     34252     34255     34258     34255     34258     34261     34262
     34255     34258     34261     34263     34255     34258     34261     34264
     34256     34255     34258     34259     34256     34255     34258     34260
     34256     34255     34258     34261     34257     34255     34258     34259
     34257     34255     34258     34260     34257     34255     34258     34261
     34258     34261     34264     34265     34258     34261     34264     34266
     34259     34258     34261     34262     34259     34258     34261     34263
     34259     34258     34261     34264     34260     34258     34261     34262
     34260     34258     34261     34263     34260     34258     34261     34264
     34261     34264     34266     34267     34261     34264     34266     34268
     34262     34261     34264     34265     34262     34261     34264     34266
     34263     34261     34264     34265     34263     34261     34264     34266
     34264     34266     34268     34269     34264     34266     34268     34270
     34264     34266     34268     34271     34265     34264     34266     34267
     34265     34264     34266     34268     34266     34268     34271     34272
     34266     34268     34271     34273     34266     34268     34271     34274
     34267     34266     34268     34269     34267     34266     34268     34270
     34267     34266     34268     34271     34268     34271     34274     34275
     34268     34271     34274     34276     34268     34271     34274     34277
     34269     34268     34271     34272     34269     34268     34271     34273
     34269     34268     34271     34274     34270     34268     34271     34272
     34270     34268     34271     34273     34270     34268     34271     34274
     34271     34274     34277     34278     34271     34274     34277     34279
     34271     34274     34277     34280     34272     34271     34274     34275
     34272     34271     34274     34276     34272     34271     34274     34277
     34273     34271     34274     34275     34273     34271     34274     34276
     34273     34271     34274     34277     34274     34277     34280     34281
     34274     34277     34280     34282     34274     34277     34280     34283
     34275     34274     34277     34278     34275     34274     34277     34279
     34275     34274     34277     34280     34276     34274     34277     34278
     34276     34274     34277     34279     34276     34274     34277     34280
     34277     34280     34283     34284     34277     34280     34283     34285
     34277     34280     34283     34286     34278     34277     34280     34281
     34278     34277     34280     34282     34278     34277     34280     34283
     34279     34277     34280     34281     34279     34277     34280     34282
     34279     34277     34280     34283     34280     34283     34286     34287
     34280     34283     34286     34288     34280     34283     34286     34289
     34281     34280     34283     34284     34281     34280     34283     34285
     34281     34280     34283     34286     34282     34280     34283     34284
     34282     34280     34283     34285     34282     34280     34283     34286
     34283     34286     34289     34290     34283     34286     34289     34291
     34283     34286     34289     34292     34284     34283     34286     34287
     34284     34283     34286     34288     34284     34283     34286     34289
     34285     34283     34286     34287     34285     34283     34286     34288
     34285     34283     34286     34289     34287     34286     34289     34290
     34287     34286     34289     34291     34287     34286     34289     34292
     34288     34286     34289     34290     34288     34286     34289     34291
     34288     34286     34289     34292     34293     34296     34299     34300
     34293     34296     34299     34301     34293     34296     34299     34302
     34294     34293     34296     34297     34294     34293     34296     34298
     34294     34293     34296     34299     34295     34293     34296     34297
     34295     34293     34296     34298     34295     34293     34296     34299
     34296     34299     34302     34303     34296     34299     34302     34304
     34296     34299     34302     34305     34297     34296     34299     34300
     34297     34296     34299     34301     34297     34296     34299     34302
     34298     34296     34299     34300     34298     34296     34299     34301
     34298     34296     34299     34302     34299     34302     34305     34306
     34299     34302     34305     34307     34299     34302     34305     34308
     34300     34299     34302     34303     34300     34299     34302     34304
     34300     34299     34302     34305     34301     34299     34302     34303
     34301     34299     34302     34304     34301     34299     34302     34305
     34302     34305     34308     34309     34302     34305     34308     34310
     34302     34305     34308     34311     34303     34302     34305     34306
     34303     34302     34305     34307     34303     34302     34305     34308
     34304     34302     34305     34306     34304     34302     34305     34307
     34304     34302     34305     34308     34305     34308     34311     34312
     34305     34308     34311     34313     34305     34308     34311     34314
     34306     34305     34308     34309     34306     34305     34308     34310
     34306     34305     34308     34311     34307     34305     34308     34309
     34307     34305     34308     34310     34307     34305     34308     34311
     34308     34311     34314     34315     34308     34311     34314     34316
     34308     34311     34314     34317     34309     34308     34311     34312
     34309     34308     34311     34313     34309     34308     34311     34314
     34310     34308     34311     34312     34310     34308     34311     34313
     34310     34308     34311     34314     34311     34314     34317     34318
     34311     34314     34317     34319     34311     34314     34317     34320
     34312     34311     34314     34315     34312     34311     34314     34316
     34312     34311     34314     34317     34313     34311     34314     34315
     34313     34311     34314     34316     34313     34311     34314     34317
     34314     34317     34320     34321     34314     34317     34320     34322
     34314     34317     34320     34323     34315     34314     34317     34318
     34315     34314     34317     34319     34315     34314     34317     34320
     34316     34314     34317     34318     34316     34314     34317     34319
     34316     34314     34317     34320     34317     34320     34323     34324
     34317     34320     34323     34325     34317     34320     34323     34326
     34318     34317     34320     34321     34318     34317     34320     34322
     34318     34317     34320     34323     34319     34317     34320     34321
     34319     34317     34320     34322     34319     34317     34320     34323
     34320     34323     34326     34327     34320     34323     34326     34328
     34320     34323     34326     34329     34321     34320     34323     34324
     34321     34320     34323     34325     34321     34320     34323     34326
     34322     34320     34323     34324     34322     34320     34323     34325
     34322     34320     34323     34326     34323     34326     34329     34330
     34323     34326     34329     34331     34323     34326     34329     34332
     34324     34323     34326     34327     34324     34323     34326     34328
     34324     34323     34326     34329     34325     34323     34326     34327
     34325     34323     34326     34328     34325     34323     34326     34329
     34326     34329     34332     34333     34326     34329     34332     34334
     34326     34329     34332     34335     34327     34326     34329     34330
     34327     34326     34329     34331     34327     34326     34329     34332
     34328     34326     34329     34330     34328     34326     34329     34331
     34328     34326     34329     34332     34330     34329     34332     34333
     34330     34329     34332     34334     34330     34329     34332     34335
     34331     34329     34332     34333     34331     34329     34332     34334
     34331     34329     34332     34335     34336     34340     34343     34344
     34336     34340     34343     34345     34336     34340     34343     34350
     34337     34336     34340     34341     34337     34336     34340     34342
     34337     34336     34340     34343     34338     34336     34340     34341
     34338     34336     34340     34342     34338     34336     34340     34343
     34339     34336     34340     34341     34339     34336     34340     34342
     34339     34336     34340     34343     34340     34343     34350     34346
     34341     34340     34343     34344     34341     34340     34343     34345
     34341     34340     34343     34350     34342     34340     34343     34344
     34342     34340     34343     34345     34342     34340     34343     34350
     34343     34350     34346     34347     34343     34350     34346     34348
     34343     34350     34346     34349     34344     34343     34350     34346
     34345     34343     34350     34346     34346     34349     34351     34352
     34346     34349     34351     34353     34346     34349     34351     34354
     34347     34346     34349     34351     34348     34346     34349     34351
     34349     34351     34354     34355     34349     34351     34354     34356
     34349     34351     34354     34362     34350     34346     34349     34351
     34351     34354     34356     34357     34351     34354     34362     34363
     34351     34354     34362     34364     34351     34354     34362     34365
     34352     34351     34354     34355     34352     34351     34354     34356
     34352     34351     34354     34362     34353     34351     34354     34355
     34353     34351     34354     34356     34353     34351     34354     34362
     34354     34356     34357     34358     34354     34356     34357     34359
     34354     34362     34365     34366     34355     34354     34356     34357
     34355     34354     34362     34363     34355     34354     34362     34364
     34355     34354     34362     34365     34356     34354     34362     34363
     34356     34354     34362     34364     34356     34354     34362     34365
     34356     34357     34359     34360     34356     34357     34359     34361
     34356     34357     34359     34371     34357     34356     34354     34362
     34357     34359     34371     34372     34357     34359     34371     34373
     34357     34359     34371     34374     34358     34357     34359     34360
     34358     34357     34359     34361     34358     34357     34359     34371
     34359     34371     34374     34375     34359     34371     34374     34376
     34359     34371     34374     34377     34360     34359     34371     34372
     34360     34359     34371     34373     34360     34359     34371     34374
     34361     34359     34371     34372     34361     34359     34371     34373
     34361     34359     34371     34374     34362     34365     34366     34367
     34362     34365     34366     34368     34363     34362     34365     34366
     34364     34362     34365     34366     34365     34366     34368     34369
     34365     34366     34368     34370     34365     34366     34368     34418
     34366     34368     34418     34419     34366     34368     34418     34420
     34366     34368     34418     34421     34367     34366     34368     34369
     34367     34366     34368     34370     34367     34366     34368     34418
     34368     34418     34421     34422     34368     34418     34421     34423
     34368     34418     34421     34424     34369     34368     34418     34419
     34369     34368     34418     34420     34369     34368     34418     34421
     34370     34368     34418     34419     34370     34368     34418     34420
     34370     34368     34418     34421     34371     34374     34377     34378
     34371     34374     34377     34379     34371     34374     34377     34380
     34372     34371     34374     34375     34372     34371     34374     34376
     34372     34371     34374     34377     34373     34371     34374     34375
     34373     34371     34374     34376     34373     34371     34374     34377
     34374     34377     34380     34381     34374     34377     34380     34382
     34374     34377     34380     34383     34375     34374     34377     34378
     34375     34374     34377     34379     34375     34374     34377     34380
     34376     34374     34377     34378     34376     34374     34377     34379
     34376     34374     34377     34380     34377     34380     34383     34384
     34377     34380     34383     34385     34377     34380     34383     34386
     34378     34377     34380     34381     34378     34377     34380     34382
     34378     34377     34380     34383     34379     34377     34380     34381
     34379     34377     34380     34382     34379     34377     34380     34383
     34380     34383     34386     34387     34380     34383     34386     34388
     34380     34383     34386     34389     34381     34380     34383     34384
     34381     34380     34383     34385     34381     34380     34383     34386
     34382     34380     34383     34384     34382     34380     34383     34385
     34382     34380     34383     34386     34383     34386     34389     34390
     34383     34386     34389     34391     34384     34383     34386     34387
     34384     34383     34386     34388     34384     34383     34386     34389
     34385     34383     34386     34387     34385     34383     34386     34388
     34385     34383     34386     34389     34386     34389     34391     34392
     34386     34389     34391     34393     34387     34386     34389     34390
     34387     34386     34389     34391     34388     34386     34389     34390
     34388     34386     34389     34391     34389     34391     34393     34394
     34389     34391     34393     34395     34389     34391     34393     34396
     34390     34389     34391     34392     34390     34389     34391     34393
     34391     34393     34396     34397     34391     34393     34396     34398
     34391     34393     34396     34399     34392     34391     34393     34394
     34392     34391     34393     34395     34392     34391     34393     34396
     34393     34396     34399     34400     34393     34396     34399     34401
     34393     34396     34399     34402     34394     34393     34396     34397
     34394     34393     34396     34398     34394     34393     34396     34399
     34395     34393     34396     34397     34395     34393     34396     34398
     34395     34393     34396     34399     34396     34399     34402     34403
     34396     34399     34402     34404     34396     34399     34402     34405
     34397     34396     34399     34400     34397     34396     34399     34401
     34397     34396     34399     34402     34398     34396     34399     34400
     34398     34396     34399     34401     34398     34396     34399     34402
     34399     34402     34405     34406     34399     34402     34405     34407
     34399     34402     34405     34408     34400     34399     34402     34403
     34400     34399     34402     34404     34400     34399     34402     34405
     34401     34399     34402     34403     34401     34399     34402     34404
     34401     34399     34402     34405     34402     34405     34408     34409
     34402     34405     34408     34410     34402     34405     34408     34411
     34403     34402     34405     34406     34403     34402     34405     34407
     34403     34402     34405     34408     34404     34402     34405     34406
     34404     34402     34405     34407     34404     34402     34405     34408
     34405     34408     34411     34412     34405     34408     34411     34413
     34405     34408     34411     34414     34406     34405     34408     34409
     34406     34405     34408     34410     34406     34405     34408     34411
     34407     34405     34408     34409     34407     34405     34408     34410
     34407     34405     34408     34411     34408     34411     34414     34415
     34408     34411     34414     34416     34408     34411     34414     34417
     34409     34408     34411     34412     34409     34408     34411     34413
     34409     34408     34411     34414     34410     34408     34411     34412
     34410     34408     34411     34413     34410     34408     34411     34414
     34412     34411     34414     34415     34412     34411     34414     34416
     34412     34411     34414     34417     34413     34411     34414     34415
     34413     34411     34414     34416     34413     34411     34414     34417
     34418     34421     34424     34425     34418     34421     34424     34426
     34418     34421     34424     34427     34419     34418     34421     34422
     34419     34418     34421     34423     34419     34418     34421     34424
     34420     34418     34421     34422     34420     34418     34421     34423
     34420     34418     34421     34424     34421     34424     34427     34428
     34421     34424     34427     34429     34421     34424     34427     34430
     34422     34421     34424     34425     34422     34421     34424     34426
     34422     34421     34424     34427     34423     34421     34424     34425
     34423     34421     34424     34426     34423     34421     34424     34427
     34424     34427     34430     34431     34424     34427     34430     34432
     34424     34427     34430     34433     34425     34424     34427     34428
     34425     34424     34427     34429     34425     34424     34427     34430
     34426     34424     34427     34428     34426     34424     34427     34429
     34426     34424     34427     34430     34427     34430     34433     34434
     34427     34430     34433     34435     34427     34430     34433     34436
     34428     34427     34430     34431     34428     34427     34430     34432
     34428     34427     34430     34433     34429     34427     34430     34431
     34429     34427     34430     34432     34429     34427     34430     34433
     34430     34433     34436     34437     34430     34433     34436     34438
     34430     34433     34436     34439     34431     34430     34433     34434
     34431     34430     34433     34435     34431     34430     34433     34436
     34432     34430     34433     34434     34432     34430     34433     34435
     34432     34430     34433     34436     34433     34436     34439     34440
     34433     34436     34439     34441     34433     34436     34439     34442
     34434     34433     34436     34437     34434     34433     34436     34438
     34434     34433     34436     34439     34435     34433     34436     34437
     34435     34433     34436     34438     34435     34433     34436     34439
     34436     34439     34442     34443     34436     34439     34442     34444
     34436     34439     34442     34445     34437     34436     34439     34440
     34437     34436     34439     34441     34437     34436     34439     34442
     34438     34436     34439     34440     34438     34436     34439     34441
     34438     34436     34439     34442     34439     34442     34445     34446
     34439     34442     34445     34447     34439     34442     34445     34448
     34440     34439     34442     34443     34440     34439     34442     34444
     34440     34439     34442     34445     34441     34439     34442     34443
     34441     34439     34442     34444     34441     34439     34442     34445
     34442     34445     34448     34449     34442     34445     34448     34450
     34442     34445     34448     34451     34443     34442     34445     34446
     34443     34442     34445     34447     34443     34442     34445     34448
     34444     34442     34445     34446     34444     34442     34445     34447
     34444     34442     34445     34448     34445     34448     34451     34452
     34445     34448     34451     34453     34445     34448     34451     34454
     34446     34445     34448     34449     34446     34445     34448     34450
     34446     34445     34448     34451     34447     34445     34448     34449
     34447     34445     34448     34450     34447     34445     34448     34451
     34448     34451     34454     34455     34448     34451     34454     34456
     34448     34451     34454     34457     34449     34448     34451     34452
     34449     34448     34451     34453     34449     34448     34451     34454
     34450     34448     34451     34452     34450     34448     34451     34453
     34450     34448     34451     34454     34451     34454     34457     34458
     34451     34454     34457     34459     34451     34454     34457     34460
     34452     34451     34454     34455     34452     34451     34454     34456
     34452     34451     34454     34457     34453     34451     34454     34455
     34453     34451     34454     34456     34453     34451     34454     34457
     34455     34454     34457     34458     34455     34454     34457     34459
     34455     34454     34457     34460     34456     34454     34457     34458
     34456     34454     34457     34459     34456     34454     34457     34460
     34461     34462     34477     34478     34461     34462     34477     34479
     34461     34462     34477     34483     34462     34461     34465     34466
     34462     34461     34465     34467     34462     34461     34465     34468
     34462     34461     34469     34470     34462     34461     34469     34471
     34462     34461     34469     34472     34462     34461     34473     34474
     34462     34461     34473     34475     34462     34461     34473     34476
     34462     34477     34483     34480     34463     34462     34461     34465
     34463     34462     34461     34469     34463     34462     34461     34473
     34463     34462     34477     34478     34463     34462     34477     34479
     34463     34462     34477     34483     34464     34462     34461     34465
     34464     34462     34461     34469     34464     34462     34461     34473
     34464     34462     34477     34478     34464     34462     34477     34479
     34464     34462     34477     34483     34465     34461     34462     34477
     34465     34461     34469     34470     34465     34461     34469     34471
     34465     34461     34469     34472     34465     34461     34473     34474
     34465     34461     34473     34475     34465     34461     34473     34476
     34466     34465     34461     34469     34466     34465     34461     34473
     34467     34465     34461     34469     34467     34465     34461     34473
     34468     34465     34461     34469     34468     34465     34461     34473
     34469     34461     34462     34477     34469     34461     34473     34474
     34469     34461     34473     34475     34469     34461     34473     34476
     34470     34469     34461     34473     34471     34469     34461     34473
     34472     34469     34461     34473     34473     34461     34462     34477
     34477     34483     34480     34481     34477     34483     34480     34482
     34477     34483     34480     34484     34478     34477     34483     34480
     34479     34477     34483     34480     34480     34484     34485     34486
     34480     34484     34485     34487     34480     34484     34485     34488
     34481     34480     34484     34485     34482     34480     34484     34485
     34483     34480     34484     34485     34484     34485     34488     34489
     34484     34485     34488     34490     34484     34485     34488     34496
     34485     34488     34490     34491     34485     34488     34496     34497
     34485     34488     34496     34498     34485     34488     34496     34499
     34486     34485     34488     34489     34486     34485     34488     34490
     34486     34485     34488     34496     34487     34485     34488     34489
     34487     34485     34488     34490     34487     34485     34488     34496
     34488     34490     34491     34492     34488     34490     34491     34493
     34488     34496     34499     34500     34489     34488     34490     34491
     34489     34488     34496     34497     34489     34488     34496     34498
     34489     34488     34496     34499     34490     34488     34496     34497
     34490     34488     34496     34498     34490     34488     34496     34499
     34490     34491     34493     34494     34490     34491     34493     34495
     34490     34491     34493     34505     34491     34490     34488     34496
     34491     34493     34505     34506     34491     34493     34505     34507
     34491     34493     34505     34508     34492     34491     34493     34494
     34492     34491     34493     34495     34492     34491     34493     34505
     34493     34505     34508     34509     34493     34505     34508     34510
     34493     34505     34508     34511     34494     34493     34505     34506
     34494     34493     34505     34507     34494     34493     34505     34508
     34495     34493     34505     34506     34495     34493     34505     34507
     34495     34493     34505     34508     34496     34499     34500     34501
     34496     34499     34500     34502     34497     34496     34499     34500
     34498     34496     34499     34500     34499     34500     34502     34503
     34499     34500     34502     34504     34499     34500     34502     34552
     34500     34502     34552     34553     34500     34502     34552     34554
     34500     34502     34552     34555     34501     34500     34502     34503
     34501     34500     34502     34504     34501     34500     34502     34552
     34502     34552     34555     34556     34502     34552     34555     34557
     34502     34552     34555     34558     34503     34502     34552     34553
     34503     34502     34552     34554     34503     34502     34552     34555
     34504     34502     34552     34553     34504     34502     34552     34554
     34504     34502     34552     34555     34505     34508     34511     34512
     34505     34508     34511     34513     34505     34508     34511     34514
     34506     34505     34508     34509     34506     34505     34508     34510
     34506     34505     34508     34511     34507     34505     34508     34509
     34507     34505     34508     34510     34507     34505     34508     34511
     34508     34511     34514     34515     34508     34511     34514     34516
     34508     34511     34514     34517     34509     34508     34511     34512
     34509     34508     34511     34513     34509     34508     34511     34514
     34510     34508     34511     34512     34510     34508     34511     34513
     34510     34508     34511     34514     34511     34514     34517     34518
     34511     34514     34517     34519     34511     34514     34517     34520
     34512     34511     34514     34515     34512     34511     34514     34516
     34512     34511     34514     34517     34513     34511     34514     34515
     34513     34511     34514     34516     34513     34511     34514     34517
     34514     34517     34520     34521     34514     34517     34520     34522
     34514     34517     34520     34523     34515     34514     34517     34518
     34515     34514     34517     34519     34515     34514     34517     34520
     34516     34514     34517     34518     34516     34514     34517     34519
     34516     34514     34517     34520     34517     34520     34523     34524
     34517     34520     34523     34525     34518     34517     34520     34521
     34518     34517     34520     34522     34518     34517     34520     34523
     34519     34517     34520     34521     34519     34517     34520     34522
     34519     34517     34520     34523     34520     34523     34525     34526
     34520     34523     34525     34527     34521     34520     34523     34524
     34521     34520     34523     34525     34522     34520     34523     34524
     34522     34520     34523     34525     34523     34525     34527     34528
     34523     34525     34527     34529     34523     34525     34527     34530
     34524     34523     34525     34526     34524     34523     34525     34527
     34525     34527     34530     34531     34525     34527     34530     34532
     34525     34527     34530     34533     34526     34525     34527     34528
     34526     34525     34527     34529     34526     34525     34527     34530
     34527     34530     34533     34534     34527     34530     34533     34535
     34527     34530     34533     34536     34528     34527     34530     34531
     34528     34527     34530     34532     34528     34527     34530     34533
     34529     34527     34530     34531     34529     34527     34530     34532
     34529     34527     34530     34533     34530     34533     34536     34537
     34530     34533     34536     34538     34530     34533     34536     34539
     34531     34530     34533     34534     34531     34530     34533     34535
     34531     34530     34533     34536     34532     34530     34533     34534
     34532     34530     34533     34535     34532     34530     34533     34536
     34533     34536     34539     34540     34533     34536     34539     34541
     34533     34536     34539     34542     34534     34533     34536     34537
     34534     34533     34536     34538     34534     34533     34536     34539
     34535     34533     34536     34537     34535     34533     34536     34538
     34535     34533     34536     34539     34536     34539     34542     34543
     34536     34539     34542     34544     34536     34539     34542     34545
     34537     34536     34539     34540     34537     34536     34539     34541
     34537     34536     34539     34542     34538     34536     34539     34540
     34538     34536     34539     34541     34538     34536     34539     34542
     34539     34542     34545     34546     34539     34542     34545     34547
     34539     34542     34545     34548     34540     34539     34542     34543
     34540     34539     34542     34544     34540     34539     34542     34545
     34541     34539     34542     34543     34541     34539     34542     34544
     34541     34539     34542     34545     34542     34545     34548     34549
     34542     34545     34548     34550     34542     34545     34548     34551
     34543     34542     34545     34546     34543     34542     34545     34547
     34543     34542     34545     34548     34544     34542     34545     34546
     34544     34542     34545     34547     34544     34542     34545     34548
     34546     34545     34548     34549     34546     34545     34548     34550
     34546     34545     34548     34551     34547     34545     34548     34549
     34547     34545     34548     34550     34547     34545     34548     34551
     34552     34555     34558     34559     34552     34555     34558     34560
     34552     34555     34558     34561     34553     34552     34555     34556
     34553     34552     34555     34557     34553     34552     34555     34558
     34554     34552     34555     34556     34554     34552     34555     34557
     34554     34552     34555     34558     34555     34558     34561     34562
     34555     34558     34561     34563     34555     34558     34561     34564
     34556     34555     34558     34559     34556     34555     34558     34560
     34556     34555     34558     34561     34557     34555     34558     34559
     34557     34555     34558     34560     34557     34555     34558     34561
     34558     34561     34564     34565     34558     34561     34564     34566
     34558     34561     34564     34567     34559     34558     34561     34562
     34559     34558     34561     34563     34559     34558     34561     34564
     34560     34558     34561     34562     34560     34558     34561     34563
     34560     34558     34561     34564     34561     34564     34567     34568
     34561     34564     34567     34569     34561     34564     34567     34570
     34562     34561     34564     34565     34562     34561     34564     34566
     34562     34561     34564     34567     34563     34561     34564     34565
     34563     34561     34564     34566     34563     34561     34564     34567
     34564     34567     34570     34571     34564     34567     34570     34572
     34564     34567     34570     34573     34565     34564     34567     34568
     34565     34564     34567     34569     34565     34564     34567     34570
     34566     34564     34567     34568     34566     34564     34567     34569
     34566     34564     34567     34570     34567     34570     34573     34574
     34567     34570     34573     34575     34567     34570     34573     34576
     34568     34567     34570     34571     34568     34567     34570     34572
     34568     34567     34570     34573     34569     34567     34570     34571
     34569     34567     34570     34572     34569     34567     34570     34573
     34570     34573     34576     34577     34570     34573     34576     34578
     34570     34573     34576     34579     34571     34570     34573     34574
     34571     34570     34573     34575     34571     34570     34573     34576
     34572     34570     34573     34574     34572     34570     34573     34575
     34572     34570     34573     34576     34573     34576     34579     34580
     34573     34576     34579     34581     34573     34576     34579     34582
     34574     34573     34576     34577     34574     34573     34576     34578
     34574     34573     34576     34579     34575     34573     34576     34577
     34575     34573     34576     34578     34575     34573     34576     34579
     34576     34579     34582     34583     34576     34579     34582     34584
     34576     34579     34582     34585     34577     34576     34579     34580
     34577     34576     34579     34581     34577     34576     34579     34582
     34578     34576     34579     34580     34578     34576     34579     34581
     34578     34576     34579     34582     34579     34582     34585     34586
     34579     34582     34585     34587     34579     34582     34585     34588
     34580     34579     34582     34583     34580     34579     34582     34584
     34580     34579     34582     34585     34581     34579     34582     34583
     34581     34579     34582     34584     34581     34579     34582     34585
     34582     34585     34588     34589     34582     34585     34588     34590
     34582     34585     34588     34591     34583     34582     34585     34586
     34583     34582     34585     34587     34583     34582     34585     34588
     34584     34582     34585     34586     34584     34582     34585     34587
     34584     34582     34585     34588     34585     34588     34591     34592
     34585     34588     34591     34593     34585     34588     34591     34594
     34586     34585     34588     34589     34586     34585     34588     34590
     34586     34585     34588     34591     34587     34585     34588     34589
     34587     34585     34588     34590     34587     34585     34588     34591
     34589     34588     34591     34592     34589     34588     34591     34593
     34589     34588     34591     34594     34590     34588     34591     34592
     34590     34588     34591     34593     34590     34588     34591     34594
     34595     34596     34611     34612     34595     34596     34611     34613
     34595     34596     34611     34617     34596     34595     34599     34600
     34596     34595     34599     34601     34596     34595     34599     34602
     34596     34595     34603     34604     34596     34595     34603     34605
     34596     34595     34603     34606     34596     34595     34607     34608
     34596     34595     34607     34609     34596     34595     34607     34610
     34596     34611     34617     34614     34597     34596     34595     34599
     34597     34596     34595     34603     34597     34596     34595     34607
     34597     34596     34611     34612     34597     34596     34611     34613
     34597     34596     34611     34617     34598     34596     34595     34599
     34598     34596     34595     34603     34598     34596     34595     34607
     34598     34596     34611     34612     34598     34596     34611     34613
     34598     34596     34611     34617     34599     34595     34596     34611
     34599     34595     34603     34604     34599     34595     34603     34605
     34599     34595     34603     34606     34599     34595     34607     34608
     34599     34595     34607     34609     34599     34595     34607     34610
     34600     34599     34595     34603     34600     34599     34595     34607
     34601     34599     34595     34603     34601     34599     34595     34607
     34602     34599     34595     34603     34602     34599     34595     34607
     34603     34595     34596     34611     34603     34595     34607     34608
     34603     34595     34607     34609     34603     34595     34607     34610
     34604     34603     34595     34607     34605     34603     34595     34607
     34606     34603     34595     34607     34607     34595     34596     34611
     34611     34617     34614     34615     34611     34617     34614     34616
     34611     34617     34614     34618     34612     34611     34617     34614
     34613     34611     34617     34614     34614     34618     34619     34620
     34614     34618     34619     34621     34614     34618     34619     34622
     34615     34614     34618     34619     34616     34614     34618     34619
     34617     34614     34618     34619     34618     34619     34622     34623
     34618     34619     34622     34624     34618     34619     34622     34630
     34619     34622     34624     34625     34619     34622     34630     34631
     34619     34622     34630     34632     34619     34622     34630     34633
     34620     34619     34622     34623     34620     34619     34622     34624
     34620     34619     34622     34630     34621     34619     34622     34623
     34621     34619     34622     34624     34621     34619     34622     34630
     34622     34624     34625     34626     34622     34624     34625     34627
     34622     34630     34633     34634     34623     34622     34624     34625
     34623     34622     34630     34631     34623     34622     34630     34632
     34623     34622     34630     34633     34624     34622     34630     34631
     34624     34622     34630     34632     34624     34622     34630     34633
     34624     34625     34627     34628     34624     34625     34627     34629
     34624     34625     34627     34639     34625     34624     34622     34630
     34625     34627     34639     34640     34625     34627     34639     34641
     34625     34627     34639     34642     34626     34625     34627     34628
     34626     34625     34627     34629     34626     34625     34627     34639
     34627     34639     34642     34643     34627     34639     34642     34644
     34627     34639     34642     34645     34628     34627     34639     34640
     34628     34627     34639     34641     34628     34627     34639     34642
     34629     34627     34639     34640     34629     34627     34639     34641
     34629     34627     34639     34642     34630     34633     34634     34635
     34630     34633     34634     34636     34631     34630     34633     34634
     34632     34630     34633     34634     34633     34634     34636     34637
     34633     34634     34636     34638     34633     34634     34636     34686
     34634     34636     34686     34687     34634     34636     34686     34688
     34634     34636     34686     34689     34635     34634     34636     34637
     34635     34634     34636     34638     34635     34634     34636     34686
     34636     34686     34689     34690     34636     34686     34689     34691
     34636     34686     34689     34692     34637     34636     34686     34687
     34637     34636     34686     34688     34637     34636     34686     34689
     34638     34636     34686     34687     34638     34636     34686     34688
     34638     34636     34686     34689     34639     34642     34645     34646
     34639     34642     34645     34647     34639     34642     34645     34648
     34640     34639     34642     34643     34640     34639     34642     34644
     34640     34639     34642     34645     34641     34639     34642     34643
     34641     34639     34642     34644     34641     34639     34642     34645
     34642     34645     34648     34649     34642     34645     34648     34650
     34642     34645     34648     34651     34643     34642     34645     34646
     34643     34642     34645     34647     34643     34642     34645     34648
     34644     34642     34645     34646     34644     34642     34645     34647
     34644     34642     34645     34648     34645     34648     34651     34652
     34645     34648     34651     34653     34645     34648     34651     34654
     34646     34645     34648     34649     34646     34645     34648     34650
     34646     34645     34648     34651     34647     34645     34648     34649
     34647     34645     34648     34650     34647     34645     34648     34651
     34648     34651     34654     34655     34648     34651     34654     34656
     34648     34651     34654     34657     34649     34648     34651     34652
     34649     34648     34651     34653     34649     34648     34651     34654
     34650     34648     34651     34652     34650     34648     34651     34653
     34650     34648     34651     34654     34651     34654     34657     34658
     34651     34654     34657     34659     34652     34651     34654     34655
     34652     34651     34654     34656     34652     34651     34654     34657
     34653     34651     34654     34655     34653     34651     34654     34656
     34653     34651     34654     34657     34654     34657     34659     34660
     34654     34657     34659     34661     34655     34654     34657     34658
     34655     34654     34657     34659     34656     34654     34657     34658
     34656     34654     34657     34659     34657     34659     34661     34662
     34657     34659     34661     34663     34657     34659     34661     34664
     34658     34657     34659     34660     34658     34657     34659     34661
     34659     34661     34664     34665     34659     34661     34664     34666
     34659     34661     34664     34667     34660     34659     34661     34662
     34660     34659     34661     34663     34660     34659     34661     34664
     34661     34664     34667     34668     34661     34664     34667     34669
     34661     34664     34667     34670     34662     34661     34664     34665
     34662     34661     34664     34666     34662     34661     34664     34667
     34663     34661     34664     34665     34663     34661     34664     34666
     34663     34661     34664     34667     34664     34667     34670     34671
     34664     34667     34670     34672     34664     34667     34670     34673
     34665     34664     34667     34668     34665     34664     34667     34669
     34665     34664     34667     34670     34666     34664     34667     34668
     34666     34664     34667     34669     34666     34664     34667     34670
     34667     34670     34673     34674     34667     34670     34673     34675
     34667     34670     34673     34676     34668     34667     34670     34671
     34668     34667     34670     34672     34668     34667     34670     34673
     34669     34667     34670     34671     34669     34667     34670     34672
     34669     34667     34670     34673     34670     34673     34676     34677
     34670     34673     34676     34678     34670     34673     34676     34679
     34671     34670     34673     34674     34671     34670     34673     34675
     34671     34670     34673     34676     34672     34670     34673     34674
     34672     34670     34673     34675     34672     34670     34673     34676
     34673     34676     34679     34680     34673     34676     34679     34681
     34673     34676     34679     34682     34674     34673     34676     34677
     34674     34673     34676     34678     34674     34673     34676     34679
     34675     34673     34676     34677     34675     34673     34676     34678
     34675     34673     34676     34679     34676     34679     34682     34683
     34676     34679     34682     34684     34676     34679     34682     34685
     34677     34676     34679     34680     34677     34676     34679     34681
     34677     34676     34679     34682     34678     34676     34679     34680
     34678     34676     34679     34681     34678     34676     34679     34682
     34680     34679     34682     34683     34680     34679     34682     34684
     34680     34679     34682     34685     34681     34679     34682     34683
     34681     34679     34682     34684     34681     34679     34682     34685
     34686     34689     34692     34693     34686     34689     34692     34694
     34686     34689     34692     34695     34687     34686     34689     34690
     34687     34686     34689     34691     34687     34686     34689     34692
     34688     34686     34689     34690     34688     34686     34689     34691
     34688     34686     34689     34692     34689     34692     34695     34696
     34689     34692     34695     34697     34689     34692     34695     34698
     34690     34689     34692     34693     34690     34689     34692     34694
     34690     34689     34692     34695     34691     34689     34692     34693
     34691     34689     34692     34694     34691     34689     34692     34695
     34692     34695     34698     34699     34692     34695     34698     34700
     34692     34695     34698     34701     34693     34692     34695     34696
     34693     34692     34695     34697     34693     34692     34695     34698
     34694     34692     34695     34696     34694     34692     34695     34697
     34694     34692     34695     34698     34695     34698     34701     34702
     34695     34698     34701     34703     34695     34698     34701     34704
     34696     34695     34698     34699     34696     34695     34698     34700
     34696     34695     34698     34701     34697     34695     34698     34699
     34697     34695     34698     34700     34697     34695     34698     34701
     34698     34701     34704     34705     34698     34701     34704     34706
     34698     34701     34704     34707     34699     34698     34701     34702
     34699     34698     34701     34703     34699     34698     34701     34704
     34700     34698     34701     34702     34700     34698     34701     34703
     34700     34698     34701     34704     34701     34704     34707     34708
     34701     34704     34707     34709     34701     34704     34707     34710
     34702     34701     34704     34705     34702     34701     34704     34706
     34702     34701     34704     34707     34703     34701     34704     34705
     34703     34701     34704     34706     34703     34701     34704     34707
     34704     34707     34710     34711     34704     34707     34710     34712
     34704     34707     34710     34713     34705     34704     34707     34708
     34705     34704     34707     34709     34705     34704     34707     34710
     34706     34704     34707     34708     34706     34704     34707     34709
     34706     34704     34707     34710     34707     34710     34713     34714
     34707     34710     34713     34715     34707     34710     34713     34716
     34708     34707     34710     34711     34708     34707     34710     34712
     34708     34707     34710     34713     34709     34707     34710     34711
     34709     34707     34710     34712     34709     34707     34710     34713
     34710     34713     34716     34717     34710     34713     34716     34718
     34710     34713     34716     34719     34711     34710     34713     34714
     34711     34710     34713     34715     34711     34710     34713     34716
     34712     34710     34713     34714     34712     34710     34713     34715
     34712     34710     34713     34716     34713     34716     34719     34720
     34713     34716     34719     34721     34713     34716     34719     34722
     34714     34713     34716     34717     34714     34713     34716     34718
     34714     34713     34716     34719     34715     34713     34716     34717
     34715     34713     34716     34718     34715     34713     34716     34719
     34716     34719     34722     34723     34716     34719     34722     34724
     34716     34719     34722     34725     34717     34716     34719     34720
     34717     34716     34719     34721     34717     34716     34719     34722
     34718     34716     34719     34720     34718     34716     34719     34721
     34718     34716     34719     34722     34719     34722     34725     34726
     34719     34722     34725     34727     34719     34722     34725     34728
     34720     34719     34722     34723     34720     34719     34722     34724
     34720     34719     34722     34725     34721     34719     34722     34723
     34721     34719     34722     34724     34721     34719     34722     34725
     34723     34722     34725     34726     34723     34722     34725     34727
     34723     34722     34725     34728     34724     34722     34725     34726
     34724     34722     34725     34727     34724     34722     34725     34728
     34729     34730     34745     34746     34729     34730     34745     34747
     34729     34730     34745     34751     34730     34729     34733     34734
     34730     34729     34733     34735     34730     34729     34733     34736
     34730     34729     34737     34738     34730     34729     34737     34739
     34730     34729     34737     34740     34730     34729     34741     34742
     34730     34729     34741     34743     34730     34729     34741     34744
     34730     34745     34751     34748     34731     34730     34729     34733
     34731     34730     34729     34737     34731     34730     34729     34741
     34731     34730     34745     34746     34731     34730     34745     34747
     34731     34730     34745     34751     34732     34730     34729     34733
     34732     34730     34729     34737     34732     34730     34729     34741
     34732     34730     34745     34746     34732     34730     34745     34747
     34732     34730     34745     34751     34733     34729     34730     34745
     34733     34729     34737     34738     34733     34729     34737     34739
     34733     34729     34737     34740     34733     34729     34741     34742
     34733     34729     34741     34743     34733     34729     34741     34744
     34734     34733     34729     34737     34734     34733     34729     34741
     34735     34733     34729     34737     34735     34733     34729     34741
     34736     34733     34729     34737     34736     34733     34729     34741
     34737     34729     34730     34745     34737     34729     34741     34742
     34737     34729     34741     34743     34737     34729     34741     34744
     34738     34737     34729     34741     34739     34737     34729     34741
     34740     34737     34729     34741     34741     34729     34730     34745
     34745     34751     34748     34749     34745     34751     34748     34750
     34745     34751     34748     34752     34746     34745     34751     34748
     34747     34745     34751     34748     34748     34752     34753     34754
     34748     34752     34753     34755     34748     34752     34753     34756
     34749     34748     34752     34753     34750     34748     34752     34753
     34751     34748     34752     34753     34752     34753     34756     34757
     34752     34753     34756     34758     34752     34753     34756     34764
     34753     34756     34758     34759     34753     34756     34764     34765
     34753     34756     34764     34766     34753     34756     34764     34767
     34754     34753     34756     34757     34754     34753     34756     34758
     34754     34753     34756     34764     34755     34753     34756     34757
     34755     34753     34756     34758     34755     34753     34756     34764
     34756     34758     34759     34760     34756     34758     34759     34761
     34756     34764     34767     34768     34757     34756     34758     34759
     34757     34756     34764     34765     34757     34756     34764     34766
     34757     34756     34764     34767     34758     34756     34764     34765
     34758     34756     34764     34766     34758     34756     34764     34767
     34758     34759     34761     34762     34758     34759     34761     34763
     34758     34759     34761     34773     34759     34758     34756     34764
     34759     34761     34773     34774     34759     34761     34773     34775
     34759     34761     34773     34776     34760     34759     34761     34762
     34760     34759     34761     34763     34760     34759     34761     34773
     34761     34773     34776     34777     34761     34773     34776     34778
     34761     34773     34776     34779     34762     34761     34773     34774
     34762     34761     34773     34775     34762     34761     34773     34776
     34763     34761     34773     34774     34763     34761     34773     34775
     34763     34761     34773     34776     34764     34767     34768     34769
     34764     34767     34768     34770     34765     34764     34767     34768
     34766     34764     34767     34768     34767     34768     34770     34771
     34767     34768     34770     34772     34767     34768     34770     34820
     34768     34770     34820     34821     34768     34770     34820     34822
     34768     34770     34820     34823     34769     34768     34770     34771
     34769     34768     34770     34772     34769     34768     34770     34820
     34770     34820     34823     34824     34770     34820     34823     34825
     34770     34820     34823     34826     34771     34770     34820     34821
     34771     34770     34820     34822     34771     34770     34820     34823
     34772     34770     34820     34821     34772     34770     34820     34822
     34772     34770     34820     34823     34773     34776     34779     34780
     34773     34776     34779     34781     34773     34776     34779     34782
     34774     34773     34776     34777     34774     34773     34776     34778
     34774     34773     34776     34779     34775     34773     34776     34777
     34775     34773     34776     34778     34775     34773     34776     34779
     34776     34779     34782     34783     34776     34779     34782     34784
     34776     34779     34782     34785     34777     34776     34779     34780
     34777     34776     34779     34781     34777     34776     34779     34782
     34778     34776     34779     34780     34778     34776     34779     34781
     34778     34776     34779     34782     34779     34782     34785     34786
     34779     34782     34785     34787     34779     34782     34785     34788
     34780     34779     34782     34783     34780     34779     34782     34784
     34780     34779     34782     34785     34781     34779     34782     34783
     34781     34779     34782     34784     34781     34779     34782     34785
     34782     34785     34788     34789     34782     34785     34788     34790
     34782     34785     34788     34791     34783     34782     34785     34786
     34783     34782     34785     34787     34783     34782     34785     34788
     34784     34782     34785     34786     34784     34782     34785     34787
     34784     34782     34785     34788     34785     34788     34791     34792
     34785     34788     34791     34793     34786     34785     34788     34789
     34786     34785     34788     34790     34786     34785     34788     34791
     34787     34785     34788     34789     34787     34785     34788     34790
     34787     34785     34788     34791     34788     34791     34793     34794
     34788     34791     34793     34795     34789     34788     34791     34792
     34789     34788     34791     34793     34790     34788     34791     34792
     34790     34788     34791     34793     34791     34793     34795     34796
     34791     34793     34795     34797     34791     34793     34795     34798
     34792     34791     34793     34794     34792     34791     34793     34795
     34793     34795     34798     34799     34793     34795     34798     34800
     34793     34795     34798     34801     34794     34793     34795     34796
     34794     34793     34795     34797     34794     34793     34795     34798
     34795     34798     34801     34802     34795     34798     34801     34803
     34795     34798     34801     34804     34796     34795     34798     34799
     34796     34795     34798     34800     34796     34795     34798     34801
     34797     34795     34798     34799     34797     34795     34798     34800
     34797     34795     34798     34801     34798     34801     34804     34805
     34798     34801     34804     34806     34798     34801     34804     34807
     34799     34798     34801     34802     34799     34798     34801     34803
     34799     34798     34801     34804     34800     34798     34801     34802
     34800     34798     34801     34803     34800     34798     34801     34804
     34801     34804     34807     34808     34801     34804     34807     34809
     34801     34804     34807     34810     34802     34801     34804     34805
     34802     34801     34804     34806     34802     34801     34804     34807
     34803     34801     34804     34805     34803     34801     34804     34806
     34803     34801     34804     34807     34804     34807     34810     34811
     34804     34807     34810     34812     34804     34807     34810     34813
     34805     34804     34807     34808     34805     34804     34807     34809
     34805     34804     34807     34810     34806     34804     34807     34808
     34806     34804     34807     34809     34806     34804     34807     34810
     34807     34810     34813     34814     34807     34810     34813     34815
     34807     34810     34813     34816     34808     34807     34810     34811
     34808     34807     34810     34812     34808     34807     34810     34813
     34809     34807     34810     34811     34809     34807     34810     34812
     34809     34807     34810     34813     34810     34813     34816     34817
     34810     34813     34816     34818     34810     34813     34816     34819
     34811     34810     34813     34814     34811     34810     34813     34815
     34811     34810     34813     34816     34812     34810     34813     34814
     34812     34810     34813     34815     34812     34810     34813     34816
     34814     34813     34816     34817     34814     34813     34816     34818
     34814     34813     34816     34819     34815     34813     34816     34817
     34815     34813     34816     34818     34815     34813     34816     34819
     34820     34823     34826     34827     34820     34823     34826     34828
     34820     34823     34826     34829     34821     34820     34823     34824
     34821     34820     34823     34825     34821     34820     34823     34826
     34822     34820     34823     34824     34822     34820     34823     34825
     34822     34820     34823     34826     34823     34826     34829     34830
     34823     34826     34829     34831     34823     34826     34829     34832
     34824     34823     34826     34827     34824     34823     34826     34828
     34824     34823     34826     34829     34825     34823     34826     34827
     34825     34823     34826     34828     34825     34823     34826     34829
     34826     34829     34832     34833     34826     34829     34832     34834
     34826     34829     34832     34835     34827     34826     34829     34830
     34827     34826     34829     34831     34827     34826     34829     34832
     34828     34826     34829     34830     34828     34826     34829     34831
     34828     34826     34829     34832     34829     34832     34835     34836
     34829     34832     34835     34837     34829     34832     34835     34838
     34830     34829     34832     34833     34830     34829     34832     34834
     34830     34829     34832     34835     34831     34829     34832     34833
     34831     34829     34832     34834     34831     34829     34832     34835
     34832     34835     34838     34839     34832     34835     34838     34840
     34832     34835     34838     34841     34833     34832     34835     34836
     34833     34832     34835     34837     34833     34832     34835     34838
     34834     34832     34835     34836     34834     34832     34835     34837
     34834     34832     34835     34838     34835     34838     34841     34842
     34835     34838     34841     34843     34835     34838     34841     34844
     34836     34835     34838     34839     34836     34835     34838     34840
     34836     34835     34838     34841     34837     34835     34838     34839
     34837     34835     34838     34840     34837     34835     34838     34841
     34838     34841     34844     34845     34838     34841     34844     34846
     34838     34841     34844     34847     34839     34838     34841     34842
     34839     34838     34841     34843     34839     34838     34841     34844
     34840     34838     34841     34842     34840     34838     34841     34843
     34840     34838     34841     34844     34841     34844     34847     34848
     34841     34844     34847     34849     34841     34844     34847     34850
     34842     34841     34844     34845     34842     34841     34844     34846
     34842     34841     34844     34847     34843     34841     34844     34845
     34843     34841     34844     34846     34843     34841     34844     34847
     34844     34847     34850     34851     34844     34847     34850     34852
     34844     34847     34850     34853     34845     34844     34847     34848
     34845     34844     34847     34849     34845     34844     34847     34850
     34846     34844     34847     34848     34846     34844     34847     34849
     34846     34844     34847     34850     34847     34850     34853     34854
     34847     34850     34853     34855     34847     34850     34853     34856
     34848     34847     34850     34851     34848     34847     34850     34852
     34848     34847     34850     34853     34849     34847     34850     34851
     34849     34847     34850     34852     34849     34847     34850     34853
     34850     34853     34856     34857     34850     34853     34856     34858
     34850     34853     34856     34859     34851     34850     34853     34854
     34851     34850     34853     34855     34851     34850     34853     34856
     34852     34850     34853     34854     34852     34850     34853     34855
     34852     34850     34853     34856     34853     34856     34859     34860
     34853     34856     34859     34861     34853     34856     34859     34862
     34854     34853     34856     34857     34854     34853     34856     34858
     34854     34853     34856     34859     34855     34853     34856     34857
     34855     34853     34856     34858     34855     34853     34856     34859
     34857     34856     34859     34860     34857     34856     34859     34861
     34857     34856     34859     34862     34858     34856     34859     34860
     34858     34856     34859     34861     34858     34856     34859     34862
     34863     34864     34879     34880     34863     34864     34879     34881
     34863     34864     34879     34885     34864     34863     34867     34868
     34864     34863     34867     34869     34864     34863     34867     34870
     34864     34863     34871     34872     34864     34863     34871     34873
     34864     34863     34871     34874     34864     34863     34875     34876
     34864     34863     34875     34877     34864     34863     34875     34878
     34864     34879     34885     34882     34865     34864     34863     34867
     34865     34864     34863     34871     34865     34864     34863     34875
     34865     34864     34879     34880     34865     34864     34879     34881
     34865     34864     34879     34885     34866     34864     34863     34867
     34866     34864     34863     34871     34866     34864     34863     34875
     34866     34864     34879     34880     34866     34864     34879     34881
     34866     34864     34879     34885     34867     34863     34864     34879
     34867     34863     34871     34872     34867     34863     34871     34873
     34867     34863     34871     34874     34867     34863     34875     34876
     34867     34863     34875     34877     34867     34863     34875     34878
     34868     34867     34863     34871     34868     34867     34863     34875
     34869     34867     34863     34871     34869     34867     34863     34875
     34870     34867     34863     34871     34870     34867     34863     34875
     34871     34863     34864     34879     34871     34863     34875     34876
     34871     34863     34875     34877     34871     34863     34875     34878
     34872     34871     34863     34875     34873     34871     34863     34875
     34874     34871     34863     34875     34875     34863     34864     34879
     34879     34885     34882     34883     34879     34885     34882     34884
     34879     34885     34882     34886     34880     34879     34885     34882
     34881     34879     34885     34882     34882     34886     34887     34888
     34882     34886     34887     34889     34882     34886     34887     34890
     34883     34882     34886     34887     34884     34882     34886     34887
     34885     34882     34886     34887     34886     34887     34890     34891
     34886     34887     34890     34892     34886     34887     34890     34898
     34887     34890     34892     34893     34887     34890     34898     34899
     34887     34890     34898     34900     34887     34890     34898     34901
     34888     34887     34890     34891     34888     34887     34890     34892
     34888     34887     34890     34898     34889     34887     34890     34891
     34889     34887     34890     34892     34889     34887     34890     34898
     34890     34892     34893     34894     34890     34892     34893     34895
     34890     34898     34901     34902     34891     34890     34892     34893
     34891     34890     34898     34899     34891     34890     34898     34900
     34891     34890     34898     34901     34892     34890     34898     34899
     34892     34890     34898     34900     34892     34890     34898     34901
     34892     34893     34895     34896     34892     34893     34895     34897
     34892     34893     34895     34907     34893     34892     34890     34898
     34893     34895     34907     34908     34893     34895     34907     34909
     34893     34895     34907     34910     34894     34893     34895     34896
     34894     34893     34895     34897     34894     34893     34895     34907
     34895     34907     34910     34911     34895     34907     34910     34912
     34895     34907     34910     34913     34896     34895     34907     34908
     34896     34895     34907     34909     34896     34895     34907     34910
     34897     34895     34907     34908     34897     34895     34907     34909
     34897     34895     34907     34910     34898     34901     34902     34903
     34898     34901     34902     34904     34899     34898     34901     34902
     34900     34898     34901     34902     34901     34902     34904     34905
     34901     34902     34904     34906     34901     34902     34904     34954
     34902     34904     34954     34955     34902     34904     34954     34956
     34902     34904     34954     34957     34903     34902     34904     34905
     34903     34902     34904     34906     34903     34902     34904     34954
     34904     34954     34957     34958     34904     34954     34957     34959
     34904     34954     34957     34960     34905     34904     34954     34955
     34905     34904     34954     34956     34905     34904     34954     34957
     34906     34904     34954     34955     34906     34904     34954     34956
     34906     34904     34954     34957     34907     34910     34913     34914
     34907     34910     34913     34915     34907     34910     34913     34916
     34908     34907     34910     34911     34908     34907     34910     34912
     34908     34907     34910     34913     34909     34907     34910     34911
     34909     34907     34910     34912     34909     34907     34910     34913
     34910     34913     34916     34917     34910     34913     34916     34918
     34910     34913     34916     34919     34911     34910     34913     34914
     34911     34910     34913     34915     34911     34910     34913     34916
     34912     34910     34913     34914     34912     34910     34913     34915
     34912     34910     34913     34916     34913     34916     34919     34920
     34913     34916     34919     34921     34913     34916     34919     34922
     34914     34913     34916     34917     34914     34913     34916     34918
     34914     34913     34916     34919     34915     34913     34916     34917
     34915     34913     34916     34918     34915     34913     34916     34919
     34916     34919     34922     34923     34916     34919     34922     34924
     34916     34919     34922     34925     34917     34916     34919     34920
     34917     34916     34919     34921     34917     34916     34919     34922
     34918     34916     34919     34920     34918     34916     34919     34921
     34918     34916     34919     34922     34919     34922     34925     34926
     34919     34922     34925     34927     34920     34919     34922     34923
     34920     34919     34922     34924     34920     34919     34922     34925
     34921     34919     34922     34923     34921     34919     34922     34924
     34921     34919     34922     34925     34922     34925     34927     34928
     34922     34925     34927     34929     34923     34922     34925     34926
     34923     34922     34925     34927     34924     34922     34925     34926
     34924     34922     34925     34927     34925     34927     34929     34930
     34925     34927     34929     34931     34925     34927     34929     34932
     34926     34925     34927     34928     34926     34925     34927     34929
     34927     34929     34932     34933     34927     34929     34932     34934
     34927     34929     34932     34935     34928     34927     34929     34930
     34928     34927     34929     34931     34928     34927     34929     34932
     34929     34932     34935     34936     34929     34932     34935     34937
     34929     34932     34935     34938     34930     34929     34932     34933
     34930     34929     34932     34934     34930     34929     34932     34935
     34931     34929     34932     34933     34931     34929     34932     34934
     34931     34929     34932     34935     34932     34935     34938     34939
     34932     34935     34938     34940     34932     34935     34938     34941
     34933     34932     34935     34936     34933     34932     34935     34937
     34933     34932     34935     34938     34934     34932     34935     34936
     34934     34932     34935     34937     34934     34932     34935     34938
     34935     34938     34941     34942     34935     34938     34941     34943
     34935     34938     34941     34944     34936     34935     34938     34939
     34936     34935     34938     34940     34936     34935     34938     34941
     34937     34935     34938     34939     34937     34935     34938     34940
     34937     34935     34938     34941     34938     34941     34944     34945
     34938     34941     34944     34946     34938     34941     34944     34947
     34939     34938     34941     34942     34939     34938     34941     34943
     34939     34938     34941     34944     34940     34938     34941     34942
     34940     34938     34941     34943     34940     34938     34941     34944
     34941     34944     34947     34948     34941     34944     34947     34949
     34941     34944     34947     34950     34942     34941     34944     34945
     34942     34941     34944     34946     34942     34941     34944     34947
     34943     34941     34944     34945     34943     34941     34944     34946
     34943     34941     34944     34947     34944     34947     34950     34951
     34944     34947     34950     34952     34944     34947     34950     34953
     34945     34944     34947     34948     34945     34944     34947     34949
     34945     34944     34947     34950     34946     34944     34947     34948
     34946     34944     34947     34949     34946     34944     34947     34950
     34948     34947     34950     34951     34948     34947     34950     34952
     34948     34947     34950     34953     34949     34947     34950     34951
     34949     34947     34950     34952     34949     34947     34950     34953
     34954     34957     34960     34961     34954     34957     34960     34962
     34954     34957     34960     34963     34955     34954     34957     34958
     34955     34954     34957     34959     34955     34954     34957     34960
     34956     34954     34957     34958     34956     34954     34957     34959
     34956     34954     34957     34960     34957     34960     34963     34964
     34957     34960     34963     34965     34957     34960     34963     34966
     34958     34957     34960     34961     34958     34957     34960     34962
     34958     34957     34960     34963     34959     34957     34960     34961
     34959     34957     34960     34962     34959     34957     34960     34963
     34960     34963     34966     34967     34960     34963     34966     34968
     34960     34963     34966     34969     34961     34960     34963     34964
     34961     34960     34963     34965     34961     34960     34963     34966
     34962     34960     34963     34964     34962     34960     34963     34965
     34962     34960     34963     34966     34963     34966     34969     34970
     34963     34966     34969     34971     34963     34966     34969     34972
     34964     34963     34966     34967     34964     34963     34966     34968
     34964     34963     34966     34969     34965     34963     34966     34967
     34965     34963     34966     34968     34965     34963     34966     34969
     34966     34969     34972     34973     34966     34969     34972     34974
     34966     34969     34972     34975     34967     34966     34969     34970
     34967     34966     34969     34971     34967     34966     34969     34972
     34968     34966     34969     34970     34968     34966     34969     34971
     34968     34966     34969     34972     34969     34972     34975     34976
     34969     34972     34975     34977     34969     34972     34975     34978
     34970     34969     34972     34973     34970     34969     34972     34974
     34970     34969     34972     34975     34971     34969     34972     34973
     34971     34969     34972     34974     34971     34969     34972     34975
     34972     34975     34978     34979     34972     34975     34978     34980
     34972     34975     34978     34981     34973     34972     34975     34976
     34973     34972     34975     34977     34973     34972     34975     34978
     34974     34972     34975     34976     34974     34972     34975     34977
     34974     34972     34975     34978     34975     34978     34981     34982
     34975     34978     34981     34983     34975     34978     34981     34984
     34976     34975     34978     34979     34976     34975     34978     34980
     34976     34975     34978     34981     34977     34975     34978     34979
     34977     34975     34978     34980     34977     34975     34978     34981
     34978     34981     34984     34985     34978     34981     34984     34986
     34978     34981     34984     34987     34979     34978     34981     34982
     34979     34978     34981     34983     34979     34978     34981     34984
     34980     34978     34981     34982     34980     34978     34981     34983
     34980     34978     34981     34984     34981     34984     34987     34988
     34981     34984     34987     34989     34981     34984     34987     34990
     34982     34981     34984     34985     34982     34981     34984     34986
     34982     34981     34984     34987     34983     34981     34984     34985
     34983     34981     34984     34986     34983     34981     34984     34987
     34984     34987     34990     34991     34984     34987     34990     34992
     34984     34987     34990     34993     34985     34984     34987     34988
     34985     34984     34987     34989     34985     34984     34987     34990
     34986     34984     34987     34988     34986     34984     34987     34989
     34986     34984     34987     34990     34987     34990     34993     34994
     34987     34990     34993     34995     34987     34990     34993     34996
     34988     34987     34990     34991     34988     34987     34990     34992
     34988     34987     34990     34993     34989     34987     34990     34991
     34989     34987     34990     34992     34989     34987     34990     34993
     34991     34990     34993     34994     34991     34990     34993     34995
     34991     34990     34993     34996     34992     34990     34993     34994
     34992     34990     34993     34995     34992     34990     34993     34996
     34997     35001     35004     35005     34997     35001     35004     35006
     34997     35001     35004     35011     34998     34997     35001     35002
     34998     34997     35001     35003     34998     34997     35001     35004
     34999     34997     35001     35002     34999     34997     35001     35003
     34999     34997     35001     35004     35000     34997     35001     35002
     35000     34997     35001     35003     35000     34997     35001     35004
     35001     35004     35011     35007     35002     35001     35004     35005
     35002     35001     35004     35006     35002     35001     35004     35011
     35003     35001     35004     35005     35003     35001     35004     35006
     35003     35001     35004     35011     35004     35011     35007     35008
     35004     35011     35007     35009     35004     35011     35007     35010
     35005     35004     35011     35007     35006     35004     35011     35007
     35007     35010     35012     35013     35007     35010     35012     35014
     35007     35010     35012     35015     35008     35007     35010     35012
     35009     35007     35010     35012     35010     35012     35015     35016
     35010     35012     35015     35017     35010     35012     35015     35023
     35011     35007     35010     35012     35012     35015     35017     35018
     35012     35015     35023     35024     35012     35015     35023     35025
     35012     35015     35023     35026     35013     35012     35015     35016
     35013     35012     35015     35017     35013     35012     35015     35023
     35014     35012     35015     35016     35014     35012     35015     35017
     35014     35012     35015     35023     35015     35017     35018     35019
     35015     35017     35018     35020     35015     35023     35026     35027
     35016     35015     35017     35018     35016     35015     35023     35024
     35016     35015     35023     35025     35016     35015     35023     35026
     35017     35015     35023     35024     35017     35015     35023     35025
     35017     35015     35023     35026     35017     35018     35020     35021
     35017     35018     35020     35022     35017     35018     35020     35032
     35018     35017     35015     35023     35018     35020     35032     35033
     35018     35020     35032     35034     35018     35020     35032     35035
     35019     35018     35020     35021     35019     35018     35020     35022
     35019     35018     35020     35032     35020     35032     35035     35036
     35020     35032     35035     35037     35020     35032     35035     35038
     35021     35020     35032     35033     35021     35020     35032     35034
     35021     35020     35032     35035     35022     35020     35032     35033
     35022     35020     35032     35034     35022     35020     35032     35035
     35023     35026     35027     35028     35023     35026     35027     35029
     35024     35023     35026     35027     35025     35023     35026     35027
     35026     35027     35029     35030     35026     35027     35029     35031
     35026     35027     35029     35079     35027     35029     35079     35080
     35027     35029     35079     35081     35027     35029     35079     35082
     35028     35027     35029     35030     35028     35027     35029     35031
     35028     35027     35029     35079     35029     35079     35082     35083
     35029     35079     35082     35084     35029     35079     35082     35085
     35030     35029     35079     35080     35030     35029     35079     35081
     35030     35029     35079     35082     35031     35029     35079     35080
     35031     35029     35079     35081     35031     35029     35079     35082
     35032     35035     35038     35039     35032     35035     35038     35040
     35032     35035     35038     35041     35033     35032     35035     35036
     35033     35032     35035     35037     35033     35032     35035     35038
     35034     35032     35035     35036     35034     35032     35035     35037
     35034     35032     35035     35038     35035     35038     35041     35042
     35035     35038     35041     35043     35035     35038     35041     35044
     35036     35035     35038     35039     35036     35035     35038     35040
     35036     35035     35038     35041     35037     35035     35038     35039
     35037     35035     35038     35040     35037     35035     35038     35041
     35038     35041     35044     35045     35038     35041     35044     35046
     35038     35041     35044     35047     35039     35038     35041     35042
     35039     35038     35041     35043     35039     35038     35041     35044
     35040     35038     35041     35042     35040     35038     35041     35043
     35040     35038     35041     35044     35041     35044     35047     35048
     35041     35044     35047     35049     35041     35044     35047     35050
     35042     35041     35044     35045     35042     35041     35044     35046
     35042     35041     35044     35047     35043     35041     35044     35045
     35043     35041     35044     35046     35043     35041     35044     35047
     35044     35047     35050     35051     35044     35047     35050     35052
     35045     35044     35047     35048     35045     35044     35047     35049
     35045     35044     35047     35050     35046     35044     35047     35048
     35046     35044     35047     35049     35046     35044     35047     35050
     35047     35050     35052     35053     35047     35050     35052     35054
     35048     35047     35050     35051     35048     35047     35050     35052
     35049     35047     35050     35051     35049     35047     35050     35052
     35050     35052     35054     35055     35050     35052     35054     35056
     35050     35052     35054     35057     35051     35050     35052     35053
     35051     35050     35052     35054     35052     35054     35057     35058
     35052     35054     35057     35059     35052     35054     35057     35060
     35053     35052     35054     35055     35053     35052     35054     35056
     35053     35052     35054     35057     35054     35057     35060     35061
     35054     35057     35060     35062     35054     35057     35060     35063
     35055     35054     35057     35058     35055     35054     35057     35059
     35055     35054     35057     35060     35056     35054     35057     35058
     35056     35054     35057     35059     35056     35054     35057     35060
     35057     35060     35063     35064     35057     35060     35063     35065
     35057     35060     35063     35066     35058     35057     35060     35061
     35058     35057     35060     35062     35058     35057     35060     35063
     35059     35057     35060     35061     35059     35057     35060     35062
     35059     35057     35060     35063     35060     35063     35066     35067
     35060     35063     35066     35068     35060     35063     35066     35069
     35061     35060     35063     35064     35061     35060     35063     35065
     35061     35060     35063     35066     35062     35060     35063     35064
     35062     35060     35063     35065     35062     35060     35063     35066
     35063     35066     35069     35070     35063     35066     35069     35071
     35063     35066     35069     35072     35064     35063     35066     35067
     35064     35063     35066     35068     35064     35063     35066     35069
     35065     35063     35066     35067     35065     35063     35066     35068
     35065     35063     35066     35069     35066     35069     35072     35073
     35066     35069     35072     35074     35066     35069     35072     35075
     35067     35066     35069     35070     35067     35066     35069     35071
     35067     35066     35069     35072     35068     35066     35069     35070
     35068     35066     35069     35071     35068     35066     35069     35072
     35069     35072     35075     35076     35069     35072     35075     35077
     35069     35072     35075     35078     35070     35069     35072     35073
     35070     35069     35072     35074     35070     35069     35072     35075
     35071     35069     35072     35073     35071     35069     35072     35074
     35071     35069     35072     35075     35073     35072     35075     35076
     35073     35072     35075     35077     35073     35072     35075     35078
     35074     35072     35075     35076     35074     35072     35075     35077
     35074     35072     35075     35078     35079     35082     35085     35086
     35079     35082     35085     35087     35079     35082     35085     35088
     35080     35079     35082     35083     35080     35079     35082     35084
     35080     35079     35082     35085     35081     35079     35082     35083
     35081     35079     35082     35084     35081     35079     35082     35085
     35082     35085     35088     35089     35082     35085     35088     35090
     35082     35085     35088     35091     35083     35082     35085     35086
     35083     35082     35085     35087     35083     35082     35085     35088
     35084     35082     35085     35086     35084     35082     35085     35087
     35084     35082     35085     35088     35085     35088     35091     35092
     35085     35088     35091     35093     35085     35088     35091     35094
     35086     35085     35088     35089     35086     35085     35088     35090
     35086     35085     35088     35091     35087     35085     35088     35089
     35087     35085     35088     35090     35087     35085     35088     35091
     35088     35091     35094     35095     35088     35091     35094     35096
     35088     35091     35094     35097     35089     35088     35091     35092
     35089     35088     35091     35093     35089     35088     35091     35094
     35090     35088     35091     35092     35090     35088     35091     35093
     35090     35088     35091     35094     35091     35094     35097     35098
     35091     35094     35097     35099     35091     35094     35097     35100
     35092     35091     35094     35095     35092     35091     35094     35096
     35092     35091     35094     35097     35093     35091     35094     35095
     35093     35091     35094     35096     35093     35091     35094     35097
     35094     35097     35100     35101     35094     35097     35100     35102
     35094     35097     35100     35103     35095     35094     35097     35098
     35095     35094     35097     35099     35095     35094     35097     35100
     35096     35094     35097     35098     35096     35094     35097     35099
     35096     35094     35097     35100     35097     35100     35103     35104
     35097     35100     35103     35105     35097     35100     35103     35106
     35098     35097     35100     35101     35098     35097     35100     35102
     35098     35097     35100     35103     35099     35097     35100     35101
     35099     35097     35100     35102     35099     35097     35100     35103
     35100     35103     35106     35107     35100     35103     35106     35108
     35100     35103     35106     35109     35101     35100     35103     35104
     35101     35100     35103     35105     35101     35100     35103     35106
     35102     35100     35103     35104     35102     35100     35103     35105
     35102     35100     35103     35106     35103     35106     35109     35110
     35103     35106     35109     35111     35103     35106     35109     35112
     35104     35103     35106     35107     35104     35103     35106     35108
     35104     35103     35106     35109     35105     35103     35106     35107
     35105     35103     35106     35108     35105     35103     35106     35109
     35106     35109     35112     35113     35106     35109     35112     35114
     35106     35109     35112     35115     35107     35106     35109     35110
     35107     35106     35109     35111     35107     35106     35109     35112
     35108     35106     35109     35110     35108     35106     35109     35111
     35108     35106     35109     35112     35109     35112     35115     35116
     35109     35112     35115     35117     35109     35112     35115     35118
     35110     35109     35112     35113     35110     35109     35112     35114
     35110     35109     35112     35115     35111     35109     35112     35113
     35111     35109     35112     35114     35111     35109     35112     35115
     35112     35115     35118     35119     35112     35115     35118     35120
     35112     35115     35118     35121     35113     35112     35115     35116
     35113     35112     35115     35117     35113     35112     35115     35118
     35114     35112     35115     35116     35114     35112     35115     35117
     35114     35112     35115     35118     35116     35115     35118     35119
     35116     35115     35118     35120     35116     35115     35118     35121
     35117     35115     35118     35119     35117     35115     35118     35120
     35117     35115     35118     35121     35122     35126     35129     35130
     35122     35126     35129     35131     35122     35126     35129     35136
     35123     35122     35126     35127     35123     35122     35126     35128
     35123     35122     35126     35129     35124     35122     35126     35127
     35124     35122     35126     35128     35124     35122     35126     35129
     35125     35122     35126     35127     35125     35122     35126     35128
     35125     35122     35126     35129     35126     35129     35136     35132
     35127     35126     35129     35130     35127     35126     35129     35131
     35127     35126     35129     35136     35128     35126     35129     35130
     35128     35126     35129     35131     35128     35126     35129     35136
     35129     35136     35132     35133     35129     35136     35132     35134
     35129     35136     35132     35135     35130     35129     35136     35132
     35131     35129     35136     35132     35132     35135     35137     35138
     35132     35135     35137     35139     35132     35135     35137     35140
     35133     35132     35135     35137     35134     35132     35135     35137
     35135     35137     35140     35141     35135     35137     35140     35142
     35135     35137     35140     35148     35136     35132     35135     35137
     35137     35140     35142     35143     35137     35140     35148     35149
     35137     35140     35148     35150     35137     35140     35148     35151
     35138     35137     35140     35141     35138     35137     35140     35142
     35138     35137     35140     35148     35139     35137     35140     35141
     35139     35137     35140     35142     35139     35137     35140     35148
     35140     35142     35143     35144     35140     35142     35143     35145
     35140     35148     35151     35152     35141     35140     35142     35143
     35141     35140     35148     35149     35141     35140     35148     35150
     35141     35140     35148     35151     35142     35140     35148     35149
     35142     35140     35148     35150     35142     35140     35148     35151
     35142     35143     35145     35146     35142     35143     35145     35147
     35142     35143     35145     35157     35143     35142     35140     35148
     35143     35145     35157     35158     35143     35145     35157     35159
     35143     35145     35157     35160     35144     35143     35145     35146
     35144     35143     35145     35147     35144     35143     35145     35157
     35145     35157     35160     35161     35145     35157     35160     35162
     35145     35157     35160     35163     35146     35145     35157     35158
     35146     35145     35157     35159     35146     35145     35157     35160
     35147     35145     35157     35158     35147     35145     35157     35159
     35147     35145     35157     35160     35148     35151     35152     35153
     35148     35151     35152     35154     35149     35148     35151     35152
     35150     35148     35151     35152     35151     35152     35154     35155
     35151     35152     35154     35156     35151     35152     35154     35204
     35152     35154     35204     35205     35152     35154     35204     35206
     35152     35154     35204     35207     35153     35152     35154     35155
     35153     35152     35154     35156     35153     35152     35154     35204
     35154     35204     35207     35208     35154     35204     35207     35209
     35154     35204     35207     35210     35155     35154     35204     35205
     35155     35154     35204     35206     35155     35154     35204     35207
     35156     35154     35204     35205     35156     35154     35204     35206
     35156     35154     35204     35207     35157     35160     35163     35164
     35157     35160     35163     35165     35157     35160     35163     35166
     35158     35157     35160     35161     35158     35157     35160     35162
     35158     35157     35160     35163     35159     35157     35160     35161
     35159     35157     35160     35162     35159     35157     35160     35163
     35160     35163     35166     35167     35160     35163     35166     35168
     35160     35163     35166     35169     35161     35160     35163     35164
     35161     35160     35163     35165     35161     35160     35163     35166
     35162     35160     35163     35164     35162     35160     35163     35165
     35162     35160     35163     35166     35163     35166     35169     35170
     35163     35166     35169     35171     35163     35166     35169     35172
     35164     35163     35166     35167     35164     35163     35166     35168
     35164     35163     35166     35169     35165     35163     35166     35167
     35165     35163     35166     35168     35165     35163     35166     35169
     35166     35169     35172     35173     35166     35169     35172     35174
     35166     35169     35172     35175     35167     35166     35169     35170
     35167     35166     35169     35171     35167     35166     35169     35172
     35168     35166     35169     35170     35168     35166     35169     35171
     35168     35166     35169     35172     35169     35172     35175     35176
     35169     35172     35175     35177     35170     35169     35172     35173
     35170     35169     35172     35174     35170     35169     35172     35175
     35171     35169     35172     35173     35171     35169     35172     35174
     35171     35169     35172     35175     35172     35175     35177     35178
     35172     35175     35177     35179     35173     35172     35175     35176
     35173     35172     35175     35177     35174     35172     35175     35176
     35174     35172     35175     35177     35175     35177     35179     35180
     35175     35177     35179     35181     35175     35177     35179     35182
     35176     35175     35177     35178     35176     35175     35177     35179
     35177     35179     35182     35183     35177     35179     35182     35184
     35177     35179     35182     35185     35178     35177     35179     35180
     35178     35177     35179     35181     35178     35177     35179     35182
     35179     35182     35185     35186     35179     35182     35185     35187
     35179     35182     35185     35188     35180     35179     35182     35183
     35180     35179     35182     35184     35180     35179     35182     35185
     35181     35179     35182     35183     35181     35179     35182     35184
     35181     35179     35182     35185     35182     35185     35188     35189
     35182     35185     35188     35190     35182     35185     35188     35191
     35183     35182     35185     35186     35183     35182     35185     35187
     35183     35182     35185     35188     35184     35182     35185     35186
     35184     35182     35185     35187     35184     35182     35185     35188
     35185     35188     35191     35192     35185     35188     35191     35193
     35185     35188     35191     35194     35186     35185     35188     35189
     35186     35185     35188     35190     35186     35185     35188     35191
     35187     35185     35188     35189     35187     35185     35188     35190
     35187     35185     35188     35191     35188     35191     35194     35195
     35188     35191     35194     35196     35188     35191     35194     35197
     35189     35188     35191     35192     35189     35188     35191     35193
     35189     35188     35191     35194     35190     35188     35191     35192
     35190     35188     35191     35193     35190     35188     35191     35194
     35191     35194     35197     35198     35191     35194     35197     35199
     35191     35194     35197     35200     35192     35191     35194     35195
     35192     35191     35194     35196     35192     35191     35194     35197
     35193     35191     35194     35195     35193     35191     35194     35196
     35193     35191     35194     35197     35194     35197     35200     35201
     35194     35197     35200     35202     35194     35197     35200     35203
     35195     35194     35197     35198     35195     35194     35197     35199
     35195     35194     35197     35200     35196     35194     35197     35198
     35196     35194     35197     35199     35196     35194     35197     35200
     35198     35197     35200     35201     35198     35197     35200     35202
     35198     35197     35200     35203     35199     35197     35200     35201
     35199     35197     35200     35202     35199     35197     35200     35203
     35204     35207     35210     35211     35204     35207     35210     35212
     35204     35207     35210     35213     35205     35204     35207     35208
     35205     35204     35207     35209     35205     35204     35207     35210
     35206     35204     35207     35208     35206     35204     35207     35209
     35206     35204     35207     35210     35207     35210     35213     35214
     35207     35210     35213     35215     35207     35210     35213     35216
     35208     35207     35210     35211     35208     35207     35210     35212
     35208     35207     35210     35213     35209     35207     35210     35211
     35209     35207     35210     35212     35209     35207     35210     35213
     35210     35213     35216     35217     35210     35213     35216     35218
     35210     35213     35216     35219     35211     35210     35213     35214
     35211     35210     35213     35215     35211     35210     35213     35216
     35212     35210     35213     35214     35212     35210     35213     35215
     35212     35210     35213     35216     35213     35216     35219     35220
     35213     35216     35219     35221     35213     35216     35219     35222
     35214     35213     35216     35217     35214     35213     35216     35218
     35214     35213     35216     35219     35215     35213     35216     35217
     35215     35213     35216     35218     35215     35213     35216     35219
     35216     35219     35222     35223     35216     35219     35222     35224
     35216     35219     35222     35225     35217     35216     35219     35220
     35217     35216     35219     35221     35217     35216     35219     35222
     35218     35216     35219     35220     35218     35216     35219     35221
     35218     35216     35219     35222     35219     35222     35225     35226
     35219     35222     35225     35227     35219     35222     35225     35228
     35220     35219     35222     35223     35220     35219     35222     35224
     35220     35219     35222     35225     35221     35219     35222     35223
     35221     35219     35222     35224     35221     35219     35222     35225
     35222     35225     35228     35229     35222     35225     35228     35230
     35222     35225     35228     35231     35223     35222     35225     35226
     35223     35222     35225     35227     35223     35222     35225     35228
     35224     35222     35225     35226     35224     35222     35225     35227
     35224     35222     35225     35228     35225     35228     35231     35232
     35225     35228     35231     35233     35225     35228     35231     35234
     35226     35225     35228     35229     35226     35225     35228     35230
     35226     35225     35228     35231     35227     35225     35228     35229
     35227     35225     35228     35230     35227     35225     35228     35231
     35228     35231     35234     35235     35228     35231     35234     35236
     35228     35231     35234     35237     35229     35228     35231     35232
     35229     35228     35231     35233     35229     35228     35231     35234
     35230     35228     35231     35232     35230     35228     35231     35233
     35230     35228     35231     35234     35231     35234     35237     35238
     35231     35234     35237     35239     35231     35234     35237     35240
     35232     35231     35234     35235     35232     35231     35234     35236
     35232     35231     35234     35237     35233     35231     35234     35235
     35233     35231     35234     35236     35233     35231     35234     35237
     35234     35237     35240     35241     35234     35237     35240     35242
     35234     35237     35240     35243     35235     35234     35237     35238
     35235     35234     35237     35239     35235     35234     35237     35240
     35236     35234     35237     35238     35236     35234     35237     35239
     35236     35234     35237     35240     35237     35240     35243     35244
     35237     35240     35243     35245     35237     35240     35243     35246
     35238     35237     35240     35241     35238     35237     35240     35242
     35238     35237     35240     35243     35239     35237     35240     35241
     35239     35237     35240     35242     35239     35237     35240     35243
     35241     35240     35243     35244     35241     35240     35243     35245
     35241     35240     35243     35246     35242     35240     35243     35244
     35242     35240     35243     35245     35242     35240     35243     35246
     35247     35251     35254     35255     35247     35251     35254     35256
     35247     35251     35254     35261     35248     35247     35251     35252
     35248     35247     35251     35253     35248     35247     35251     35254
     35249     35247     35251     35252     35249     35247     35251     35253
     35249     35247     35251     35254     35250     35247     35251     35252
     35250     35247     35251     35253     35250     35247     35251     35254
     35251     35254     35261     35257     35252     35251     35254     35255
     35252     35251     35254     35256     35252     35251     35254     35261
     35253     35251     35254     35255     35253     35251     35254     35256
     35253     35251     35254     35261     35254     35261     35257     35258
     35254     35261     35257     35259     35254     35261     35257     35260
     35255     35254     35261     35257     35256     35254     35261     35257
     35257     35260     35262     35263     35257     35260     35262     35264
     35257     35260     35262     35265     35258     35257     35260     35262
     35259     35257     35260     35262     35260     35262     35265     35266
     35260     35262     35265     35267     35260     35262     35265     35273
     35261     35257     35260     35262     35262     35265     35267     35268
     35262     35265     35273     35274     35262     35265     35273     35275
     35262     35265     35273     35276     35263     35262     35265     35266
     35263     35262     35265     35267     35263     35262     35265     35273
     35264     35262     35265     35266     35264     35262     35265     35267
     35264     35262     35265     35273     35265     35267     35268     35269
     35265     35267     35268     35270     35265     35273     35276     35277
     35266     35265     35267     35268     35266     35265     35273     35274
     35266     35265     35273     35275     35266     35265     35273     35276
     35267     35265     35273     35274     35267     35265     35273     35275
     35267     35265     35273     35276     35267     35268     35270     35271
     35267     35268     35270     35272     35267     35268     35270     35282
     35268     35267     35265     35273     35268     35270     35282     35283
     35268     35270     35282     35284     35268     35270     35282     35285
     35269     35268     35270     35271     35269     35268     35270     35272
     35269     35268     35270     35282     35270     35282     35285     35286
     35270     35282     35285     35287     35270     35282     35285     35288
     35271     35270     35282     35283     35271     35270     35282     35284
     35271     35270     35282     35285     35272     35270     35282     35283
     35272     35270     35282     35284     35272     35270     35282     35285
     35273     35276     35277     35278     35273     35276     35277     35279
     35274     35273     35276     35277     35275     35273     35276     35277
     35276     35277     35279     35280     35276     35277     35279     35281
     35276     35277     35279     35329     35277     35279     35329     35330
     35277     35279     35329     35331     35277     35279     35329     35332
     35278     35277     35279     35280     35278     35277     35279     35281
     35278     35277     35279     35329     35279     35329     35332     35333
     35279     35329     35332     35334     35279     35329     35332     35335
     35280     35279     35329     35330     35280     35279     35329     35331
     35280     35279     35329     35332     35281     35279     35329     35330
     35281     35279     35329     35331     35281     35279     35329     35332
     35282     35285     35288     35289     35282     35285     35288     35290
     35282     35285     35288     35291     35283     35282     35285     35286
     35283     35282     35285     35287     35283     35282     35285     35288
     35284     35282     35285     35286     35284     35282     35285     35287
     35284     35282     35285     35288     35285     35288     35291     35292
     35285     35288     35291     35293     35285     35288     35291     35294
     35286     35285     35288     35289     35286     35285     35288     35290
     35286     35285     35288     35291     35287     35285     35288     35289
     35287     35285     35288     35290     35287     35285     35288     35291
     35288     35291     35294     35295     35288     35291     35294     35296
     35288     35291     35294     35297     35289     35288     35291     35292
     35289     35288     35291     35293     35289     35288     35291     35294
     35290     35288     35291     35292     35290     35288     35291     35293
     35290     35288     35291     35294     35291     35294     35297     35298
     35291     35294     35297     35299     35291     35294     35297     35300
     35292     35291     35294     35295     35292     35291     35294     35296
     35292     35291     35294     35297     35293     35291     35294     35295
     35293     35291     35294     35296     35293     35291     35294     35297
     35294     35297     35300     35301     35294     35297     35300     35302
     35295     35294     35297     35298     35295     35294     35297     35299
     35295     35294     35297     35300     35296     35294     35297     35298
     35296     35294     35297     35299     35296     35294     35297     35300
     35297     35300     35302     35303     35297     35300     35302     35304
     35298     35297     35300     35301     35298     35297     35300     35302
     35299     35297     35300     35301     35299     35297     35300     35302
     35300     35302     35304     35305     35300     35302     35304     35306
     35300     35302     35304     35307     35301     35300     35302     35303
     35301     35300     35302     35304     35302     35304     35307     35308
     35302     35304     35307     35309     35302     35304     35307     35310
     35303     35302     35304     35305     35303     35302     35304     35306
     35303     35302     35304     35307     35304     35307     35310     35311
     35304     35307     35310     35312     35304     35307     35310     35313
     35305     35304     35307     35308     35305     35304     35307     35309
     35305     35304     35307     35310     35306     35304     35307     35308
     35306     35304     35307     35309     35306     35304     35307     35310
     35307     35310     35313     35314     35307     35310     35313     35315
     35307     35310     35313     35316     35308     35307     35310     35311
     35308     35307     35310     35312     35308     35307     35310     35313
     35309     35307     35310     35311     35309     35307     35310     35312
     35309     35307     35310     35313     35310     35313     35316     35317
     35310     35313     35316     35318     35310     35313     35316     35319
     35311     35310     35313     35314     35311     35310     35313     35315
     35311     35310     35313     35316     35312     35310     35313     35314
     35312     35310     35313     35315     35312     35310     35313     35316
     35313     35316     35319     35320     35313     35316     35319     35321
     35313     35316     35319     35322     35314     35313     35316     35317
     35314     35313     35316     35318     35314     35313     35316     35319
     35315     35313     35316     35317     35315     35313     35316     35318
     35315     35313     35316     35319     35316     35319     35322     35323
     35316     35319     35322     35324     35316     35319     35322     35325
     35317     35316     35319     35320     35317     35316     35319     35321
     35317     35316     35319     35322     35318     35316     35319     35320
     35318     35316     35319     35321     35318     35316     35319     35322
     35319     35322     35325     35326     35319     35322     35325     35327
     35319     35322     35325     35328     35320     35319     35322     35323
     35320     35319     35322     35324     35320     35319     35322     35325
     35321     35319     35322     35323     35321     35319     35322     35324
     35321     35319     35322     35325     35323     35322     35325     35326
     35323     35322     35325     35327     35323     35322     35325     35328
     35324     35322     35325     35326     35324     35322     35325     35327
     35324     35322     35325     35328     35329     35332     35335     35336
     35329     35332     35335     35337     35329     35332     35335     35338
     35330     35329     35332     35333     35330     35329     35332     35334
     35330     35329     35332     35335     35331     35329     35332     35333
     35331     35329     35332     35334     35331     35329     35332     35335
     35332     35335     35338     35339     35332     35335     35338     35340
     35332     35335     35338     35341     35333     35332     35335     35336
     35333     35332     35335     35337     35333     35332     35335     35338
     35334     35332     35335     35336     35334     35332     35335     35337
     35334     35332     35335     35338     35335     35338     35341     35342
     35335     35338     35341     35343     35335     35338     35341     35344
     35336     35335     35338     35339     35336     35335     35338     35340
     35336     35335     35338     35341     35337     35335     35338     35339
     35337     35335     35338     35340     35337     35335     35338     35341
     35338     35341     35344     35345     35338     35341     35344     35346
     35338     35341     35344     35347     35339     35338     35341     35342
     35339     35338     35341     35343     35339     35338     35341     35344
     35340     35338     35341     35342     35340     35338     35341     35343
     35340     35338     35341     35344     35341     35344     35347     35348
     35341     35344     35347     35349     35341     35344     35347     35350
     35342     35341     35344     35345     35342     35341     35344     35346
     35342     35341     35344     35347     35343     35341     35344     35345
     35343     35341     35344     35346     35343     35341     35344     35347
     35344     35347     35350     35351     35344     35347     35350     35352
     35344     35347     35350     35353     35345     35344     35347     35348
     35345     35344     35347     35349     35345     35344     35347     35350
     35346     35344     35347     35348     35346     35344     35347     35349
     35346     35344     35347     35350     35347     35350     35353     35354
     35347     35350     35353     35355     35347     35350     35353     35356
     35348     35347     35350     35351     35348     35347     35350     35352
     35348     35347     35350     35353     35349     35347     35350     35351
     35349     35347     35350     35352     35349     35347     35350     35353
     35350     35353     35356     35357     35350     35353     35356     35358
     35350     35353     35356     35359     35351     35350     35353     35354
     35351     35350     35353     35355     35351     35350     35353     35356
     35352     35350     35353     35354     35352     35350     35353     35355
     35352     35350     35353     35356     35353     35356     35359     35360
     35353     35356     35359     35361     35353     35356     35359     35362
     35354     35353     35356     35357     35354     35353     35356     35358
     35354     35353     35356     35359     35355     35353     35356     35357
     35355     35353     35356     35358     35355     35353     35356     35359
     35356     35359     35362     35363     35356     35359     35362     35364
     35356     35359     35362     35365     35357     35356     35359     35360
     35357     35356     35359     35361     35357     35356     35359     35362
     35358     35356     35359     35360     35358     35356     35359     35361
     35358     35356     35359     35362     35359     35362     35365     35366
     35359     35362     35365     35367     35359     35362     35365     35368
     35360     35359     35362     35363     35360     35359     35362     35364
     35360     35359     35362     35365     35361     35359     35362     35363
     35361     35359     35362     35364     35361     35359     35362     35365
     35362     35365     35368     35369     35362     35365     35368     35370
     35362     35365     35368     35371     35363     35362     35365     35366
     35363     35362     35365     35367     35363     35362     35365     35368
     35364     35362     35365     35366     35364     35362     35365     35367
     35364     35362     35365     35368     35366     35365     35368     35369
     35366     35365     35368     35370     35366     35365     35368     35371
     35367     35365     35368     35369     35367     35365     35368     35370
     35367     35365     35368     35371     35372     35376     35379     35380
     35372     35376     35379     35381     35372     35376     35379     35386
     35373     35372     35376     35377     35373     35372     35376     35378
     35373     35372     35376     35379     35374     35372     35376     35377
     35374     35372     35376     35378     35374     35372     35376     35379
     35375     35372     35376     35377     35375     35372     35376     35378
     35375     35372     35376     35379     35376     35379     35386     35382
     35377     35376     35379     35380     35377     35376     35379     35381
     35377     35376     35379     35386     35378     35376     35379     35380
     35378     35376     35379     35381     35378     35376     35379     35386
     35379     35386     35382     35383     35379     35386     35382     35384
     35379     35386     35382     35385     35380     35379     35386     35382
     35381     35379     35386     35382     35382     35385     35387     35388
     35382     35385     35387     35389     35382     35385     35387     35390
     35383     35382     35385     35387     35384     35382     35385     35387
     35385     35387     35390     35391     35385     35387     35390     35392
     35385     35387     35390     35398     35386     35382     35385     35387
     35387     35390     35392     35393     35387     35390     35398     35399
     35387     35390     35398     35400     35387     35390     35398     35401
     35388     35387     35390     35391     35388     35387     35390     35392
     35388     35387     35390     35398     35389     35387     35390     35391
     35389     35387     35390     35392     35389     35387     35390     35398
     35390     35392     35393     35394     35390     35392     35393     35395
     35390     35398     35401     35402     35391     35390     35392     35393
     35391     35390     35398     35399     35391     35390     35398     35400
     35391     35390     35398     35401     35392     35390     35398     35399
     35392     35390     35398     35400     35392     35390     35398     35401
     35392     35393     35395     35396     35392     35393     35395     35397
     35392     35393     35395     35407     35393     35392     35390     35398
     35393     35395     35407     35408     35393     35395     35407     35409
     35393     35395     35407     35410     35394     35393     35395     35396
     35394     35393     35395     35397     35394     35393     35395     35407
     35395     35407     35410     35411     35395     35407     35410     35412
     35395     35407     35410     35413     35396     35395     35407     35408
     35396     35395     35407     35409     35396     35395     35407     35410
     35397     35395     35407     35408     35397     35395     35407     35409
     35397     35395     35407     35410     35398     35401     35402     35403
     35398     35401     35402     35404     35399     35398     35401     35402
     35400     35398     35401     35402     35401     35402     35404     35405
     35401     35402     35404     35406     35401     35402     35404     35454
     35402     35404     35454     35455     35402     35404     35454     35456
     35402     35404     35454     35457     35403     35402     35404     35405
     35403     35402     35404     35406     35403     35402     35404     35454
     35404     35454     35457     35458     35404     35454     35457     35459
     35404     35454     35457     35460     35405     35404     35454     35455
     35405     35404     35454     35456     35405     35404     35454     35457
     35406     35404     35454     35455     35406     35404     35454     35456
     35406     35404     35454     35457     35407     35410     35413     35414
     35407     35410     35413     35415     35407     35410     35413     35416
     35408     35407     35410     35411     35408     35407     35410     35412
     35408     35407     35410     35413     35409     35407     35410     35411
     35409     35407     35410     35412     35409     35407     35410     35413
     35410     35413     35416     35417     35410     35413     35416     35418
     35410     35413     35416     35419     35411     35410     35413     35414
     35411     35410     35413     35415     35411     35410     35413     35416
     35412     35410     35413     35414     35412     35410     35413     35415
     35412     35410     35413     35416     35413     35416     35419     35420
     35413     35416     35419     35421     35413     35416     35419     35422
     35414     35413     35416     35417     35414     35413     35416     35418
     35414     35413     35416     35419     35415     35413     35416     35417
     35415     35413     35416     35418     35415     35413     35416     35419
     35416     35419     35422     35423     35416     35419     35422     35424
     35416     35419     35422     35425     35417     35416     35419     35420
     35417     35416     35419     35421     35417     35416     35419     35422
     35418     35416     35419     35420     35418     35416     35419     35421
     35418     35416     35419     35422     35419     35422     35425     35426
     35419     35422     35425     35427     35420     35419     35422     35423
     35420     35419     35422     35424     35420     35419     35422     35425
     35421     35419     35422     35423     35421     35419     35422     35424
     35421     35419     35422     35425     35422     35425     35427     35428
     35422     35425     35427     35429     35423     35422     35425     35426
     35423     35422     35425     35427     35424     35422     35425     35426
     35424     35422     35425     35427     35425     35427     35429     35430
     35425     35427     35429     35431     35425     35427     35429     35432
     35426     35425     35427     35428     35426     35425     35427     35429
     35427     35429     35432     35433     35427     35429     35432     35434
     35427     35429     35432     35435     35428     35427     35429     35430
     35428     35427     35429     35431     35428     35427     35429     35432
     35429     35432     35435     35436     35429     35432     35435     35437
     35429     35432     35435     35438     35430     35429     35432     35433
     35430     35429     35432     35434     35430     35429     35432     35435
     35431     35429     35432     35433     35431     35429     35432     35434
     35431     35429     35432     35435     35432     35435     35438     35439
     35432     35435     35438     35440     35432     35435     35438     35441
     35433     35432     35435     35436     35433     35432     35435     35437
     35433     35432     35435     35438     35434     35432     35435     35436
     35434     35432     35435     35437     35434     35432     35435     35438
     35435     35438     35441     35442     35435     35438     35441     35443
     35435     35438     35441     35444     35436     35435     35438     35439
     35436     35435     35438     35440     35436     35435     35438     35441
     35437     35435     35438     35439     35437     35435     35438     35440
     35437     35435     35438     35441     35438     35441     35444     35445
     35438     35441     35444     35446     35438     35441     35444     35447
     35439     35438     35441     35442     35439     35438     35441     35443
     35439     35438     35441     35444     35440     35438     35441     35442
     35440     35438     35441     35443     35440     35438     35441     35444
     35441     35444     35447     35448     35441     35444     35447     35449
     35441     35444     35447     35450     35442     35441     35444     35445
     35442     35441     35444     35446     35442     35441     35444     35447
     35443     35441     35444     35445     35443     35441     35444     35446
     35443     35441     35444     35447     35444     35447     35450     35451
     35444     35447     35450     35452     35444     35447     35450     35453
     35445     35444     35447     35448     35445     35444     35447     35449
     35445     35444     35447     35450     35446     35444     35447     35448
     35446     35444     35447     35449     35446     35444     35447     35450
     35448     35447     35450     35451     35448     35447     35450     35452
     35448     35447     35450     35453     35449     35447     35450     35451
     35449     35447     35450     35452     35449     35447     35450     35453
     35454     35457     35460     35461     35454     35457     35460     35462
     35454     35457     35460     35463     35455     35454     35457     35458
     35455     35454     35457     35459     35455     35454     35457     35460
     35456     35454     35457     35458     35456     35454     35457     35459
     35456     35454     35457     35460     35457     35460     35463     35464
     35457     35460     35463     35465     35457     35460     35463     35466
     35458     35457     35460     35461     35458     35457     35460     35462
     35458     35457     35460     35463     35459     35457     35460     35461
     35459     35457     35460     35462     35459     35457     35460     35463
     35460     35463     35466     35467     35460     35463     35466     35468
     35460     35463     35466     35469     35461     35460     35463     35464
     35461     35460     35463     35465     35461     35460     35463     35466
     35462     35460     35463     35464     35462     35460     35463     35465
     35462     35460     35463     35466     35463     35466     35469     35470
     35463     35466     35469     35471     35463     35466     35469     35472
     35464     35463     35466     35467     35464     35463     35466     35468
     35464     35463     35466     35469     35465     35463     35466     35467
     35465     35463     35466     35468     35465     35463     35466     35469
     35466     35469     35472     35473     35466     35469     35472     35474
     35466     35469     35472     35475     35467     35466     35469     35470
     35467     35466     35469     35471     35467     35466     35469     35472
     35468     35466     35469     35470     35468     35466     35469     35471
     35468     35466     35469     35472     35469     35472     35475     35476
     35469     35472     35475     35477     35469     35472     35475     35478
     35470     35469     35472     35473     35470     35469     35472     35474
     35470     35469     35472     35475     35471     35469     35472     35473
     35471     35469     35472     35474     35471     35469     35472     35475
     35472     35475     35478     35479     35472     35475     35478     35480
     35472     35475     35478     35481     35473     35472     35475     35476
     35473     35472     35475     35477     35473     35472     35475     35478
     35474     35472     35475     35476     35474     35472     35475     35477
     35474     35472     35475     35478     35475     35478     35481     35482
     35475     35478     35481     35483     35475     35478     35481     35484
     35476     35475     35478     35479     35476     35475     35478     35480
     35476     35475     35478     35481     35477     35475     35478     35479
     35477     35475     35478     35480     35477     35475     35478     35481
     35478     35481     35484     35485     35478     35481     35484     35486
     35478     35481     35484     35487     35479     35478     35481     35482
     35479     35478     35481     35483     35479     35478     35481     35484
     35480     35478     35481     35482     35480     35478     35481     35483
     35480     35478     35481     35484     35481     35484     35487     35488
     35481     35484     35487     35489     35481     35484     35487     35490
     35482     35481     35484     35485     35482     35481     35484     35486
     35482     35481     35484     35487     35483     35481     35484     35485
     35483     35481     35484     35486     35483     35481     35484     35487
     35484     35487     35490     35491     35484     35487     35490     35492
     35484     35487     35490     35493     35485     35484     35487     35488
     35485     35484     35487     35489     35485     35484     35487     35490
     35486     35484     35487     35488     35486     35484     35487     35489
     35486     35484     35487     35490     35487     35490     35493     35494
     35487     35490     35493     35495     35487     35490     35493     35496
     35488     35487     35490     35491     35488     35487     35490     35492
     35488     35487     35490     35493     35489     35487     35490     35491
     35489     35487     35490     35492     35489     35487     35490     35493
     35491     35490     35493     35494     35491     35490     35493     35495
     35491     35490     35493     35496     35492     35490     35493     35494
     35492     35490     35493     35495     35492     35490     35493     35496
     35497     35498     35513     35514     35497     35498     35513     35515
     35497     35498     35513     35519     35498     35497     35501     35502
     35498     35497     35501     35503     35498     35497     35501     35504
     35498     35497     35505     35506     35498     35497     35505     35507
     35498     35497     35505     35508     35498     35497     35509     35510
     35498     35497     35509     35511     35498     35497     35509     35512
     35498     35513     35519     35516     35499     35498     35497     35501
     35499     35498     35497     35505     35499     35498     35497     35509
     35499     35498     35513     35514     35499     35498     35513     35515
     35499     35498     35513     35519     35500     35498     35497     35501
     35500     35498     35497     35505     35500     35498     35497     35509
     35500     35498     35513     35514     35500     35498     35513     35515
     35500     35498     35513     35519     35501     35497     35498     35513
     35501     35497     35505     35506     35501     35497     35505     35507
     35501     35497     35505     35508     35501     35497     35509     35510
     35501     35497     35509     35511     35501     35497     35509     35512
     35502     35501     35497     35505     35502     35501     35497     35509
     35503     35501     35497     35505     35503     35501     35497     35509
     35504     35501     35497     35505     35504     35501     35497     35509
     35505     35497     35498     35513     35505     35497     35509     35510
     35505     35497     35509     35511     35505     35497     35509     35512
     35506     35505     35497     35509     35507     35505     35497     35509
     35508     35505     35497     35509     35509     35497     35498     35513
     35513     35519     35516     35517     35513     35519     35516     35518
     35513     35519     35516     35520     35514     35513     35519     35516
     35515     35513     35519     35516     35516     35520     35521     35522
     35516     35520     35521     35523     35516     35520     35521     35524
     35517     35516     35520     35521     35518     35516     35520     35521
     35519     35516     35520     35521     35520     35521     35524     35525
     35520     35521     35524     35526     35520     35521     35524     35532
     35521     35524     35526     35527     35521     35524     35532     35533
     35521     35524     35532     35534     35521     35524     35532     35535
     35522     35521     35524     35525     35522     35521     35524     35526
     35522     35521     35524     35532     35523     35521     35524     35525
     35523     35521     35524     35526     35523     35521     35524     35532
     35524     35526     35527     35528     35524     35526     35527     35529
     35524     35532     35535     35536     35525     35524     35526     35527
     35525     35524     35532     35533     35525     35524     35532     35534
     35525     35524     35532     35535     35526     35524     35532     35533
     35526     35524     35532     35534     35526     35524     35532     35535
     35526     35527     35529     35530     35526     35527     35529     35531
     35526     35527     35529     35541     35527     35526     35524     35532
     35527     35529     35541     35542     35527     35529     35541     35543
     35527     35529     35541     35544     35528     35527     35529     35530
     35528     35527     35529     35531     35528     35527     35529     35541
     35529     35541     35544     35545     35529     35541     35544     35546
     35529     35541     35544     35547     35530     35529     35541     35542
     35530     35529     35541     35543     35530     35529     35541     35544
     35531     35529     35541     35542     35531     35529     35541     35543
     35531     35529     35541     35544     35532     35535     35536     35537
     35532     35535     35536     35538     35533     35532     35535     35536
     35534     35532     35535     35536     35535     35536     35538     35539
     35535     35536     35538     35540     35535     35536     35538     35588
     35536     35538     35588     35589     35536     35538     35588     35590
     35536     35538     35588     35591     35537     35536     35538     35539
     35537     35536     35538     35540     35537     35536     35538     35588
     35538     35588     35591     35592     35538     35588     35591     35593
     35538     35588     35591     35594     35539     35538     35588     35589
     35539     35538     35588     35590     35539     35538     35588     35591
     35540     35538     35588     35589     35540     35538     35588     35590
     35540     35538     35588     35591     35541     35544     35547     35548
     35541     35544     35547     35549     35541     35544     35547     35550
     35542     35541     35544     35545     35542     35541     35544     35546
     35542     35541     35544     35547     35543     35541     35544     35545
     35543     35541     35544     35546     35543     35541     35544     35547
     35544     35547     35550     35551     35544     35547     35550     35552
     35544     35547     35550     35553     35545     35544     35547     35548
     35545     35544     35547     35549     35545     35544     35547     35550
     35546     35544     35547     35548     35546     35544     35547     35549
     35546     35544     35547     35550     35547     35550     35553     35554
     35547     35550     35553     35555     35547     35550     35553     35556
     35548     35547     35550     35551     35548     35547     35550     35552
     35548     35547     35550     35553     35549     35547     35550     35551
     35549     35547     35550     35552     35549     35547     35550     35553
     35550     35553     35556     35557     35550     35553     35556     35558
     35550     35553     35556     35559     35551     35550     35553     35554
     35551     35550     35553     35555     35551     35550     35553     35556
     35552     35550     35553     35554     35552     35550     35553     35555
     35552     35550     35553     35556     35553     35556     35559     35560
     35553     35556     35559     35561     35554     35553     35556     35557
     35554     35553     35556     35558     35554     35553     35556     35559
     35555     35553     35556     35557     35555     35553     35556     35558
     35555     35553     35556     35559     35556     35559     35561     35562
     35556     35559     35561     35563     35557     35556     35559     35560
     35557     35556     35559     35561     35558     35556     35559     35560
     35558     35556     35559     35561     35559     35561     35563     35564
     35559     35561     35563     35565     35559     35561     35563     35566
     35560     35559     35561     35562     35560     35559     35561     35563
     35561     35563     35566     35567     35561     35563     35566     35568
     35561     35563     35566     35569     35562     35561     35563     35564
     35562     35561     35563     35565     35562     35561     35563     35566
     35563     35566     35569     35570     35563     35566     35569     35571
     35563     35566     35569     35572     35564     35563     35566     35567
     35564     35563     35566     35568     35564     35563     35566     35569
     35565     35563     35566     35567     35565     35563     35566     35568
     35565     35563     35566     35569     35566     35569     35572     35573
     35566     35569     35572     35574     35566     35569     35572     35575
     35567     35566     35569     35570     35567     35566     35569     35571
     35567     35566     35569     35572     35568     35566     35569     35570
     35568     35566     35569     35571     35568     35566     35569     35572
     35569     35572     35575     35576     35569     35572     35575     35577
     35569     35572     35575     35578     35570     35569     35572     35573
     35570     35569     35572     35574     35570     35569     35572     35575
     35571     35569     35572     35573     35571     35569     35572     35574
     35571     35569     35572     35575     35572     35575     35578     35579
     35572     35575     35578     35580     35572     35575     35578     35581
     35573     35572     35575     35576     35573     35572     35575     35577
     35573     35572     35575     35578     35574     35572     35575     35576
     35574     35572     35575     35577     35574     35572     35575     35578
     35575     35578     35581     35582     35575     35578     35581     35583
     35575     35578     35581     35584     35576     35575     35578     35579
     35576     35575     35578     35580     35576     35575     35578     35581
     35577     35575     35578     35579     35577     35575     35578     35580
     35577     35575     35578     35581     35578     35581     35584     35585
     35578     35581     35584     35586     35578     35581     35584     35587
     35579     35578     35581     35582     35579     35578     35581     35583
     35579     35578     35581     35584     35580     35578     35581     35582
     35580     35578     35581     35583     35580     35578     35581     35584
     35582     35581     35584     35585     35582     35581     35584     35586
     35582     35581     35584     35587     35583     35581     35584     35585
     35583     35581     35584     35586     35583     35581     35584     35587
     35588     35591     35594     35595     35588     35591     35594     35596
     35588     35591     35594     35597     35589     35588     35591     35592
     35589     35588     35591     35593     35589     35588     35591     35594
     35590     35588     35591     35592     35590     35588     35591     35593
     35590     35588     35591     35594     35591     35594     35597     35598
     35591     35594     35597     35599     35591     35594     35597     35600
     35592     35591     35594     35595     35592     35591     35594     35596
     35592     35591     35594     35597     35593     35591     35594     35595
     35593     35591     35594     35596     35593     35591     35594     35597
     35594     35597     35600     35601     35594     35597     35600     35602
     35594     35597     35600     35603     35595     35594     35597     35598
     35595     35594     35597     35599     35595     35594     35597     35600
     35596     35594     35597     35598     35596     35594     35597     35599
     35596     35594     35597     35600     35597     35600     35603     35604
     35597     35600     35603     35605     35597     35600     35603     35606
     35598     35597     35600     35601     35598     35597     35600     35602
     35598     35597     35600     35603     35599     35597     35600     35601
     35599     35597     35600     35602     35599     35597     35600     35603
     35600     35603     35606     35607     35600     35603     35606     35608
     35600     35603     35606     35609     35601     35600     35603     35604
     35601     35600     35603     35605     35601     35600     35603     35606
     35602     35600     35603     35604     35602     35600     35603     35605
     35602     35600     35603     35606     35603     35606     35609     35610
     35603     35606     35609     35611     35603     35606     35609     35612
     35604     35603     35606     35607     35604     35603     35606     35608
     35604     35603     35606     35609     35605     35603     35606     35607
     35605     35603     35606     35608     35605     35603     35606     35609
     35606     35609     35612     35613     35606     35609     35612     35614
     35606     35609     35612     35615     35607     35606     35609     35610
     35607     35606     35609     35611     35607     35606     35609     35612
     35608     35606     35609     35610     35608     35606     35609     35611
     35608     35606     35609     35612     35609     35612     35615     35616
     35609     35612     35615     35617     35609     35612     35615     35618
     35610     35609     35612     35613     35610     35609     35612     35614
     35610     35609     35612     35615     35611     35609     35612     35613
     35611     35609     35612     35614     35611     35609     35612     35615
     35612     35615     35618     35619     35612     35615     35618     35620
     35612     35615     35618     35621     35613     35612     35615     35616
     35613     35612     35615     35617     35613     35612     35615     35618
     35614     35612     35615     35616     35614     35612     35615     35617
     35614     35612     35615     35618     35615     35618     35621     35622
     35615     35618     35621     35623     35615     35618     35621     35624
     35616     35615     35618     35619     35616     35615     35618     35620
     35616     35615     35618     35621     35617     35615     35618     35619
     35617     35615     35618     35620     35617     35615     35618     35621
     35618     35621     35624     35625     35618     35621     35624     35626
     35618     35621     35624     35627     35619     35618     35621     35622
     35619     35618     35621     35623     35619     35618     35621     35624
     35620     35618     35621     35622     35620     35618     35621     35623
     35620     35618     35621     35624     35621     35624     35627     35628
     35621     35624     35627     35629     35621     35624     35627     35630
     35622     35621     35624     35625     35622     35621     35624     35626
     35622     35621     35624     35627     35623     35621     35624     35625
     35623     35621     35624     35626     35623     35621     35624     35627
     35625     35624     35627     35628     35625     35624     35627     35629
     35625     35624     35627     35630     35626     35624     35627     35628
     35626     35624     35627     35629     35626     35624     35627     35630
     35631     35635     35638     35639     35631     35635     35638     35640
     35631     35635     35638     35645     35632     35631     35635     35636
     35632     35631     35635     35637     35632     35631     35635     35638
     35633     35631     35635     35636     35633     35631     35635     35637
     35633     35631     35635     35638     35634     35631     35635     35636
     35634     35631     35635     35637     35634     35631     35635     35638
     35635     35638     35645     35641     35636     35635     35638     35639
     35636     35635     35638     35640     35636     35635     35638     35645
     35637     35635     35638     35639     35637     35635     35638     35640
     35637     35635     35638     35645     35638     35645     35641     35642
     35638     35645     35641     35643     35638     35645     35641     35644
     35639     35638     35645     35641     35640     35638     35645     35641
     35641     35644     35646     35647     35641     35644     35646     35648
     35641     35644     35646     35649     35642     35641     35644     35646
     35643     35641     35644     35646     35644     35646     35649     35650
     35644     35646     35649     35651     35644     35646     35649     35657
     35645     35641     35644     35646     35646     35649     35651     35652
     35646     35649     35657     35658     35646     35649     35657     35659
     35646     35649     35657     35660     35647     35646     35649     35650
     35647     35646     35649     35651     35647     35646     35649     35657
     35648     35646     35649     35650     35648     35646     35649     35651
     35648     35646     35649     35657     35649     35651     35652     35653
     35649     35651     35652     35654     35649     35657     35660     35661
     35650     35649     35651     35652     35650     35649     35657     35658
     35650     35649     35657     35659     35650     35649     35657     35660
     35651     35649     35657     35658     35651     35649     35657     35659
     35651     35649     35657     35660     35651     35652     35654     35655
     35651     35652     35654     35656     35651     35652     35654     35666
     35652     35651     35649     35657     35652     35654     35666     35667
     35652     35654     35666     35668     35652     35654     35666     35669
     35653     35652     35654     35655     35653     35652     35654     35656
     35653     35652     35654     35666     35654     35666     35669     35670
     35654     35666     35669     35671     35654     35666     35669     35672
     35655     35654     35666     35667     35655     35654     35666     35668
     35655     35654     35666     35669     35656     35654     35666     35667
     35656     35654     35666     35668     35656     35654     35666     35669
     35657     35660     35661     35662     35657     35660     35661     35663
     35658     35657     35660     35661     35659     35657     35660     35661
     35660     35661     35663     35664     35660     35661     35663     35665
     35660     35661     35663     35713     35661     35663     35713     35714
     35661     35663     35713     35715     35661     35663     35713     35716
     35662     35661     35663     35664     35662     35661     35663     35665
     35662     35661     35663     35713     35663     35713     35716     35717
     35663     35713     35716     35718     35663     35713     35716     35719
     35664     35663     35713     35714     35664     35663     35713     35715
     35664     35663     35713     35716     35665     35663     35713     35714
     35665     35663     35713     35715     35665     35663     35713     35716
     35666     35669     35672     35673     35666     35669     35672     35674
     35666     35669     35672     35675     35667     35666     35669     35670
     35667     35666     35669     35671     35667     35666     35669     35672
     35668     35666     35669     35670     35668     35666     35669     35671
     35668     35666     35669     35672     35669     35672     35675     35676
     35669     35672     35675     35677     35669     35672     35675     35678
     35670     35669     35672     35673     35670     35669     35672     35674
     35670     35669     35672     35675     35671     35669     35672     35673
     35671     35669     35672     35674     35671     35669     35672     35675
     35672     35675     35678     35679     35672     35675     35678     35680
     35672     35675     35678     35681     35673     35672     35675     35676
     35673     35672     35675     35677     35673     35672     35675     35678
     35674     35672     35675     35676     35674     35672     35675     35677
     35674     35672     35675     35678     35675     35678     35681     35682
     35675     35678     35681     35683     35675     35678     35681     35684
     35676     35675     35678     35679     35676     35675     35678     35680
     35676     35675     35678     35681     35677     35675     35678     35679
     35677     35675     35678     35680     35677     35675     35678     35681
     35678     35681     35684     35685     35678     35681     35684     35686
     35679     35678     35681     35682     35679     35678     35681     35683
     35679     35678     35681     35684     35680     35678     35681     35682
     35680     35678     35681     35683     35680     35678     35681     35684
     35681     35684     35686     35687     35681     35684     35686     35688
     35682     35681     35684     35685     35682     35681     35684     35686
     35683     35681     35684     35685     35683     35681     35684     35686
     35684     35686     35688     35689     35684     35686     35688     35690
     35684     35686     35688     35691     35685     35684     35686     35687
     35685     35684     35686     35688     35686     35688     35691     35692
     35686     35688     35691     35693     35686     35688     35691     35694
     35687     35686     35688     35689     35687     35686     35688     35690
     35687     35686     35688     35691     35688     35691     35694     35695
     35688     35691     35694     35696     35688     35691     35694     35697
     35689     35688     35691     35692     35689     35688     35691     35693
     35689     35688     35691     35694     35690     35688     35691     35692
     35690     35688     35691     35693     35690     35688     35691     35694
     35691     35694     35697     35698     35691     35694     35697     35699
     35691     35694     35697     35700     35692     35691     35694     35695
     35692     35691     35694     35696     35692     35691     35694     35697
     35693     35691     35694     35695     35693     35691     35694     35696
     35693     35691     35694     35697     35694     35697     35700     35701
     35694     35697     35700     35702     35694     35697     35700     35703
     35695     35694     35697     35698     35695     35694     35697     35699
     35695     35694     35697     35700     35696     35694     35697     35698
     35696     35694     35697     35699     35696     35694     35697     35700
     35697     35700     35703     35704     35697     35700     35703     35705
     35697     35700     35703     35706     35698     35697     35700     35701
     35698     35697     35700     35702     35698     35697     35700     35703
     35699     35697     35700     35701     35699     35697     35700     35702
     35699     35697     35700     35703     35700     35703     35706     35707
     35700     35703     35706     35708     35700     35703     35706     35709
     35701     35700     35703     35704     35701     35700     35703     35705
     35701     35700     35703     35706     35702     35700     35703     35704
     35702     35700     35703     35705     35702     35700     35703     35706
     35703     35706     35709     35710     35703     35706     35709     35711
     35703     35706     35709     35712     35704     35703     35706     35707
     35704     35703     35706     35708     35704     35703     35706     35709
     35705     35703     35706     35707     35705     35703     35706     35708
     35705     35703     35706     35709     35707     35706     35709     35710
     35707     35706     35709     35711     35707     35706     35709     35712
     35708     35706     35709     35710     35708     35706     35709     35711
     35708     35706     35709     35712     35713     35716     35719     35720
     35713     35716     35719     35721     35713     35716     35719     35722
     35714     35713     35716     35717     35714     35713     35716     35718
     35714     35713     35716     35719     35715     35713     35716     35717
     35715     35713     35716     35718     35715     35713     35716     35719
     35716     35719     35722     35723     35716     35719     35722     35724
     35716     35719     35722     35725     35717     35716     35719     35720
     35717     35716     35719     35721     35717     35716     35719     35722
     35718     35716     35719     35720     35718     35716     35719     35721
     35718     35716     35719     35722     35719     35722     35725     35726
     35719     35722     35725     35727     35719     35722     35725     35728
     35720     35719     35722     35723     35720     35719     35722     35724
     35720     35719     35722     35725     35721     35719     35722     35723
     35721     35719     35722     35724     35721     35719     35722     35725
     35722     35725     35728     35729     35722     35725     35728     35730
     35722     35725     35728     35731     35723     35722     35725     35726
     35723     35722     35725     35727     35723     35722     35725     35728
     35724     35722     35725     35726     35724     35722     35725     35727
     35724     35722     35725     35728     35725     35728     35731     35732
     35725     35728     35731     35733     35725     35728     35731     35734
     35726     35725     35728     35729     35726     35725     35728     35730
     35726     35725     35728     35731     35727     35725     35728     35729
     35727     35725     35728     35730     35727     35725     35728     35731
     35728     35731     35734     35735     35728     35731     35734     35736
     35728     35731     35734     35737     35729     35728     35731     35732
     35729     35728     35731     35733     35729     35728     35731     35734
     35730     35728     35731     35732     35730     35728     35731     35733
     35730     35728     35731     35734     35731     35734     35737     35738
     35731     35734     35737     35739     35731     35734     35737     35740
     35732     35731     35734     35735     35732     35731     35734     35736
     35732     35731     35734     35737     35733     35731     35734     35735
     35733     35731     35734     35736     35733     35731     35734     35737
     35734     35737     35740     35741     35734     35737     35740     35742
     35734     35737     35740     35743     35735     35734     35737     35738
     35735     35734     35737     35739     35735     35734     35737     35740
     35736     35734     35737     35738     35736     35734     35737     35739
     35736     35734     35737     35740     35737     35740     35743     35744
     35737     35740     35743     35745     35737     35740     35743     35746
     35738     35737     35740     35741     35738     35737     35740     35742
     35738     35737     35740     35743     35739     35737     35740     35741
     35739     35737     35740     35742     35739     35737     35740     35743
     35740     35743     35746     35747     35740     35743     35746     35748
     35740     35743     35746     35749     35741     35740     35743     35744
     35741     35740     35743     35745     35741     35740     35743     35746
     35742     35740     35743     35744     35742     35740     35743     35745
     35742     35740     35743     35746     35743     35746     35749     35750
     35743     35746     35749     35751     35743     35746     35749     35752
     35744     35743     35746     35747     35744     35743     35746     35748
     35744     35743     35746     35749     35745     35743     35746     35747
     35745     35743     35746     35748     35745     35743     35746     35749
     35746     35749     35752     35753     35746     35749     35752     35754
     35746     35749     35752     35755     35747     35746     35749     35750
     35747     35746     35749     35751     35747     35746     35749     35752
     35748     35746     35749     35750     35748     35746     35749     35751
     35748     35746     35749     35752     35750     35749     35752     35753
     35750     35749     35752     35754     35750     35749     35752     35755
     35751     35749     35752     35753     35751     35749     35752     35754
     35751     35749     35752     35755     35756     35757     35772     35773
     35756     35757     35772     35774     35756     35757     35772     35778
     35757     35756     35760     35761     35757     35756     35760     35762
     35757     35756     35760     35763     35757     35756     35764     35765
     35757     35756     35764     35766     35757     35756     35764     35767
     35757     35756     35768     35769     35757     35756     35768     35770
     35757     35756     35768     35771     35757     35772     35778     35775
     35758     35757     35756     35760     35758     35757     35756     35764
     35758     35757     35756     35768     35758     35757     35772     35773
     35758     35757     35772     35774     35758     35757     35772     35778
     35759     35757     35756     35760     35759     35757     35756     35764
     35759     35757     35756     35768     35759     35757     35772     35773
     35759     35757     35772     35774     35759     35757     35772     35778
     35760     35756     35757     35772     35760     35756     35764     35765
     35760     35756     35764     35766     35760     35756     35764     35767
     35760     35756     35768     35769     35760     35756     35768     35770
     35760     35756     35768     35771     35761     35760     35756     35764
     35761     35760     35756     35768     35762     35760     35756     35764
     35762     35760     35756     35768     35763     35760     35756     35764
     35763     35760     35756     35768     35764     35756     35757     35772
     35764     35756     35768     35769     35764     35756     35768     35770
     35764     35756     35768     35771     35765     35764     35756     35768
     35766     35764     35756     35768     35767     35764     35756     35768
     35768     35756     35757     35772     35772     35778     35775     35776
     35772     35778     35775     35777     35772     35778     35775     35779
     35773     35772     35778     35775     35774     35772     35778     35775
     35775     35779     35780     35781     35775     35779     35780     35782
     35775     35779     35780     35783     35776     35775     35779     35780
     35777     35775     35779     35780     35778     35775     35779     35780
     35779     35780     35783     35784     35779     35780     35783     35785
     35779     35780     35783     35791     35780     35783     35785     35786
     35780     35783     35791     35792     35780     35783     35791     35793
     35780     35783     35791     35794     35781     35780     35783     35784
     35781     35780     35783     35785     35781     35780     35783     35791
     35782     35780     35783     35784     35782     35780     35783     35785
     35782     35780     35783     35791     35783     35785     35786     35787
     35783     35785     35786     35788     35783     35791     35794     35795
     35784     35783     35785     35786     35784     35783     35791     35792
     35784     35783     35791     35793     35784     35783     35791     35794
     35785     35783     35791     35792     35785     35783     35791     35793
     35785     35783     35791     35794     35785     35786     35788     35789
     35785     35786     35788     35790     35785     35786     35788     35800
     35786     35785     35783     35791     35786     35788     35800     35801
     35786     35788     35800     35802     35786     35788     35800     35803
     35787     35786     35788     35789     35787     35786     35788     35790
     35787     35786     35788     35800     35788     35800     35803     35804
     35788     35800     35803     35805     35788     35800     35803     35806
     35789     35788     35800     35801     35789     35788     35800     35802
     35789     35788     35800     35803     35790     35788     35800     35801
     35790     35788     35800     35802     35790     35788     35800     35803
     35791     35794     35795     35796     35791     35794     35795     35797
     35792     35791     35794     35795     35793     35791     35794     35795
     35794     35795     35797     35798     35794     35795     35797     35799
     35794     35795     35797     35847     35795     35797     35847     35848
     35795     35797     35847     35849     35795     35797     35847     35850
     35796     35795     35797     35798     35796     35795     35797     35799
     35796     35795     35797     35847     35797     35847     35850     35851
     35797     35847     35850     35852     35797     35847     35850     35853
     35798     35797     35847     35848     35798     35797     35847     35849
     35798     35797     35847     35850     35799     35797     35847     35848
     35799     35797     35847     35849     35799     35797     35847     35850
     35800     35803     35806     35807     35800     35803     35806     35808
     35800     35803     35806     35809     35801     35800     35803     35804
     35801     35800     35803     35805     35801     35800     35803     35806
     35802     35800     35803     35804     35802     35800     35803     35805
     35802     35800     35803     35806     35803     35806     35809     35810
     35803     35806     35809     35811     35803     35806     35809     35812
     35804     35803     35806     35807     35804     35803     35806     35808
     35804     35803     35806     35809     35805     35803     35806     35807
     35805     35803     35806     35808     35805     35803     35806     35809
     35806     35809     35812     35813     35806     35809     35812     35814
     35806     35809     35812     35815     35807     35806     35809     35810
     35807     35806     35809     35811     35807     35806     35809     35812
     35808     35806     35809     35810     35808     35806     35809     35811
     35808     35806     35809     35812     35809     35812     35815     35816
     35809     35812     35815     35817     35809     35812     35815     35818
     35810     35809     35812     35813     35810     35809     35812     35814
     35810     35809     35812     35815     35811     35809     35812     35813
     35811     35809     35812     35814     35811     35809     35812     35815
     35812     35815     35818     35819     35812     35815     35818     35820
     35813     35812     35815     35816     35813     35812     35815     35817
     35813     35812     35815     35818     35814     35812     35815     35816
     35814     35812     35815     35817     35814     35812     35815     35818
     35815     35818     35820     35821     35815     35818     35820     35822
     35816     35815     35818     35819     35816     35815     35818     35820
     35817     35815     35818     35819     35817     35815     35818     35820
     35818     35820     35822     35823     35818     35820     35822     35824
     35818     35820     35822     35825     35819     35818     35820     35821
     35819     35818     35820     35822     35820     35822     35825     35826
     35820     35822     35825     35827     35820     35822     35825     35828
     35821     35820     35822     35823     35821     35820     35822     35824
     35821     35820     35822     35825     35822     35825     35828     35829
     35822     35825     35828     35830     35822     35825     35828     35831
     35823     35822     35825     35826     35823     35822     35825     35827
     35823     35822     35825     35828     35824     35822     35825     35826
     35824     35822     35825     35827     35824     35822     35825     35828
     35825     35828     35831     35832     35825     35828     35831     35833
     35825     35828     35831     35834     35826     35825     35828     35829
     35826     35825     35828     35830     35826     35825     35828     35831
     35827     35825     35828     35829     35827     35825     35828     35830
     35827     35825     35828     35831     35828     35831     35834     35835
     35828     35831     35834     35836     35828     35831     35834     35837
     35829     35828     35831     35832     35829     35828     35831     35833
     35829     35828     35831     35834     35830     35828     35831     35832
     35830     35828     35831     35833     35830     35828     35831     35834
     35831     35834     35837     35838     35831     35834     35837     35839
     35831     35834     35837     35840     35832     35831     35834     35835
     35832     35831     35834     35836     35832     35831     35834     35837
     35833     35831     35834     35835     35833     35831     35834     35836
     35833     35831     35834     35837     35834     35837     35840     35841
     35834     35837     35840     35842     35834     35837     35840     35843
     35835     35834     35837     35838     35835     35834     35837     35839
     35835     35834     35837     35840     35836     35834     35837     35838
     35836     35834     35837     35839     35836     35834     35837     35840
     35837     35840     35843     35844     35837     35840     35843     35845
     35837     35840     35843     35846     35838     35837     35840     35841
     35838     35837     35840     35842     35838     35837     35840     35843
     35839     35837     35840     35841     35839     35837     35840     35842
     35839     35837     35840     35843     35841     35840     35843     35844
     35841     35840     35843     35845     35841     35840     35843     35846
     35842     35840     35843     35844     35842     35840     35843     35845
     35842     35840     35843     35846     35847     35850     35853     35854
     35847     35850     35853     35855     35847     35850     35853     35856
     35848     35847     35850     35851     35848     35847     35850     35852
     35848     35847     35850     35853     35849     35847     35850     35851
     35849     35847     35850     35852     35849     35847     35850     35853
     35850     35853     35856     35857     35850     35853     35856     35858
     35850     35853     35856     35859     35851     35850     35853     35854
     35851     35850     35853     35855     35851     35850     35853     35856
     35852     35850     35853     35854     35852     35850     35853     35855
     35852     35850     35853     35856     35853     35856     35859     35860
     35853     35856     35859     35861     35853     35856     35859     35862
     35854     35853     35856     35857     35854     35853     35856     35858
     35854     35853     35856     35859     35855     35853     35856     35857
     35855     35853     35856     35858     35855     35853     35856     35859
     35856     35859     35862     35863     35856     35859     35862     35864
     35856     35859     35862     35865     35857     35856     35859     35860
     35857     35856     35859     35861     35857     35856     35859     35862
     35858     35856     35859     35860     35858     35856     35859     35861
     35858     35856     35859     35862     35859     35862     35865     35866
     35859     35862     35865     35867     35859     35862     35865     35868
     35860     35859     35862     35863     35860     35859     35862     35864
     35860     35859     35862     35865     35861     35859     35862     35863
     35861     35859     35862     35864     35861     35859     35862     35865
     35862     35865     35868     35869     35862     35865     35868     35870
     35862     35865     35868     35871     35863     35862     35865     35866
     35863     35862     35865     35867     35863     35862     35865     35868
     35864     35862     35865     35866     35864     35862     35865     35867
     35864     35862     35865     35868     35865     35868     35871     35872
     35865     35868     35871     35873     35865     35868     35871     35874
     35866     35865     35868     35869     35866     35865     35868     35870
     35866     35865     35868     35871     35867     35865     35868     35869
     35867     35865     35868     35870     35867     35865     35868     35871
     35868     35871     35874     35875     35868     35871     35874     35876
     35868     35871     35874     35877     35869     35868     35871     35872
     35869     35868     35871     35873     35869     35868     35871     35874
     35870     35868     35871     35872     35870     35868     35871     35873
     35870     35868     35871     35874     35871     35874     35877     35878
     35871     35874     35877     35879     35871     35874     35877     35880
     35872     35871     35874     35875     35872     35871     35874     35876
     35872     35871     35874     35877     35873     35871     35874     35875
     35873     35871     35874     35876     35873     35871     35874     35877
     35874     35877     35880     35881     35874     35877     35880     35882
     35874     35877     35880     35883     35875     35874     35877     35878
     35875     35874     35877     35879     35875     35874     35877     35880
     35876     35874     35877     35878     35876     35874     35877     35879
     35876     35874     35877     35880     35877     35880     35883     35884
     35877     35880     35883     35885     35877     35880     35883     35886
     35878     35877     35880     35881     35878     35877     35880     35882
     35878     35877     35880     35883     35879     35877     35880     35881
     35879     35877     35880     35882     35879     35877     35880     35883
     35880     35883     35886     35887     35880     35883     35886     35888
     35880     35883     35886     35889     35881     35880     35883     35884
     35881     35880     35883     35885     35881     35880     35883     35886
     35882     35880     35883     35884     35882     35880     35883     35885
     35882     35880     35883     35886     35884     35883     35886     35887
     35884     35883     35886     35888     35884     35883     35886     35889
     35885     35883     35886     35887     35885     35883     35886     35888
     35885     35883     35886     35889     35890     35894     35897     35898
     35890     35894     35897     35899     35890     35894     35897     35904
     35891     35890     35894     35895     35891     35890     35894     35896
     35891     35890     35894     35897     35892     35890     35894     35895
     35892     35890     35894     35896     35892     35890     35894     35897
     35893     35890     35894     35895     35893     35890     35894     35896
     35893     35890     35894     35897     35894     35897     35904     35900
     35895     35894     35897     35898     35895     35894     35897     35899
     35895     35894     35897     35904     35896     35894     35897     35898
     35896     35894     35897     35899     35896     35894     35897     35904
     35897     35904     35900     35901     35897     35904     35900     35902
     35897     35904     35900     35903     35898     35897     35904     35900
     35899     35897     35904     35900     35900     35903     35905     35906
     35900     35903     35905     35907     35900     35903     35905     35908
     35901     35900     35903     35905     35902     35900     35903     35905
     35903     35905     35908     35909     35903     35905     35908     35910
     35903     35905     35908     35916     35904     35900     35903     35905
     35905     35908     35910     35911     35905     35908     35916     35917
     35905     35908     35916     35918     35905     35908     35916     35919
     35906     35905     35908     35909     35906     35905     35908     35910
     35906     35905     35908     35916     35907     35905     35908     35909
     35907     35905     35908     35910     35907     35905     35908     35916
     35908     35910     35911     35912     35908     35910     35911     35913
     35908     35916     35919     35920     35909     35908     35910     35911
     35909     35908     35916     35917     35909     35908     35916     35918
     35909     35908     35916     35919     35910     35908     35916     35917
     35910     35908     35916     35918     35910     35908     35916     35919
     35910     35911     35913     35914     35910     35911     35913     35915
     35910     35911     35913     35925     35911     35910     35908     35916
     35911     35913     35925     35926     35911     35913     35925     35927
     35911     35913     35925     35928     35912     35911     35913     35914
     35912     35911     35913     35915     35912     35911     35913     35925
     35913     35925     35928     35929     35913     35925     35928     35930
     35913     35925     35928     35931     35914     35913     35925     35926
     35914     35913     35925     35927     35914     35913     35925     35928
     35915     35913     35925     35926     35915     35913     35925     35927
     35915     35913     35925     35928     35916     35919     35920     35921
     35916     35919     35920     35922     35917     35916     35919     35920
     35918     35916     35919     35920     35919     35920     35922     35923
     35919     35920     35922     35924     35919     35920     35922     35972
     35920     35922     35972     35973     35920     35922     35972     35974
     35920     35922     35972     35975     35921     35920     35922     35923
     35921     35920     35922     35924     35921     35920     35922     35972
     35922     35972     35975     35976     35922     35972     35975     35977
     35922     35972     35975     35978     35923     35922     35972     35973
     35923     35922     35972     35974     35923     35922     35972     35975
     35924     35922     35972     35973     35924     35922     35972     35974
     35924     35922     35972     35975     35925     35928     35931     35932
     35925     35928     35931     35933     35925     35928     35931     35934
     35926     35925     35928     35929     35926     35925     35928     35930
     35926     35925     35928     35931     35927     35925     35928     35929
     35927     35925     35928     35930     35927     35925     35928     35931
     35928     35931     35934     35935     35928     35931     35934     35936
     35928     35931     35934     35937     35929     35928     35931     35932
     35929     35928     35931     35933     35929     35928     35931     35934
     35930     35928     35931     35932     35930     35928     35931     35933
     35930     35928     35931     35934     35931     35934     35937     35938
     35931     35934     35937     35939     35931     35934     35937     35940
     35932     35931     35934     35935     35932     35931     35934     35936
     35932     35931     35934     35937     35933     35931     35934     35935
     35933     35931     35934     35936     35933     35931     35934     35937
     35934     35937     35940     35941     35934     35937     35940     35942
     35934     35937     35940     35943     35935     35934     35937     35938
     35935     35934     35937     35939     35935     35934     35937     35940
     35936     35934     35937     35938     35936     35934     35937     35939
     35936     35934     35937     35940     35937     35940     35943     35944
     35937     35940     35943     35945     35938     35937     35940     35941
     35938     35937     35940     35942     35938     35937     35940     35943
     35939     35937     35940     35941     35939     35937     35940     35942
     35939     35937     35940     35943     35940     35943     35945     35946
     35940     35943     35945     35947     35941     35940     35943     35944
     35941     35940     35943     35945     35942     35940     35943     35944
     35942     35940     35943     35945     35943     35945     35947     35948
     35943     35945     35947     35949     35943     35945     35947     35950
     35944     35943     35945     35946     35944     35943     35945     35947
     35945     35947     35950     35951     35945     35947     35950     35952
     35945     35947     35950     35953     35946     35945     35947     35948
     35946     35945     35947     35949     35946     35945     35947     35950
     35947     35950     35953     35954     35947     35950     35953     35955
     35947     35950     35953     35956     35948     35947     35950     35951
     35948     35947     35950     35952     35948     35947     35950     35953
     35949     35947     35950     35951     35949     35947     35950     35952
     35949     35947     35950     35953     35950     35953     35956     35957
     35950     35953     35956     35958     35950     35953     35956     35959
     35951     35950     35953     35954     35951     35950     35953     35955
     35951     35950     35953     35956     35952     35950     35953     35954
     35952     35950     35953     35955     35952     35950     35953     35956
     35953     35956     35959     35960     35953     35956     35959     35961
     35953     35956     35959     35962     35954     35953     35956     35957
     35954     35953     35956     35958     35954     35953     35956     35959
     35955     35953     35956     35957     35955     35953     35956     35958
     35955     35953     35956     35959     35956     35959     35962     35963
     35956     35959     35962     35964     35956     35959     35962     35965
     35957     35956     35959     35960     35957     35956     35959     35961
     35957     35956     35959     35962     35958     35956     35959     35960
     35958     35956     35959     35961     35958     35956     35959     35962
     35959     35962     35965     35966     35959     35962     35965     35967
     35959     35962     35965     35968     35960     35959     35962     35963
     35960     35959     35962     35964     35960     35959     35962     35965
     35961     35959     35962     35963     35961     35959     35962     35964
     35961     35959     35962     35965     35962     35965     35968     35969
     35962     35965     35968     35970     35962     35965     35968     35971
     35963     35962     35965     35966     35963     35962     35965     35967
     35963     35962     35965     35968     35964     35962     35965     35966
     35964     35962     35965     35967     35964     35962     35965     35968
     35966     35965     35968     35969     35966     35965     35968     35970
     35966     35965     35968     35971     35967     35965     35968     35969
     35967     35965     35968     35970     35967     35965     35968     35971
     35972     35975     35978     35979     35972     35975     35978     35980
     35972     35975     35978     35981     35973     35972     35975     35976
     35973     35972     35975     35977     35973     35972     35975     35978
     35974     35972     35975     35976     35974     35972     35975     35977
     35974     35972     35975     35978     35975     35978     35981     35982
     35975     35978     35981     35983     35975     35978     35981     35984
     35976     35975     35978     35979     35976     35975     35978     35980
     35976     35975     35978     35981     35977     35975     35978     35979
     35977     35975     35978     35980     35977     35975     35978     35981
     35978     35981     35984     35985     35978     35981     35984     35986
     35978     35981     35984     35987     35979     35978     35981     35982
     35979     35978     35981     35983     35979     35978     35981     35984
     35980     35978     35981     35982     35980     35978     35981     35983
     35980     35978     35981     35984     35981     35984     35987     35988
     35981     35984     35987     35989     35981     35984     35987     35990
     35982     35981     35984     35985     35982     35981     35984     35986
     35982     35981     35984     35987     35983     35981     35984     35985
     35983     35981     35984     35986     35983     35981     35984     35987
     35984     35987     35990     35991     35984     35987     35990     35992
     35984     35987     35990     35993     35985     35984     35987     35988
     35985     35984     35987     35989     35985     35984     35987     35990
     35986     35984     35987     35988     35986     35984     35987     35989
     35986     35984     35987     35990     35987     35990     35993     35994
     35987     35990     35993     35995     35987     35990     35993     35996
     35988     35987     35990     35991     35988     35987     35990     35992
     35988     35987     35990     35993     35989     35987     35990     35991
     35989     35987     35990     35992     35989     35987     35990     35993
     35990     35993     35996     35997     35990     35993     35996     35998
     35990     35993     35996     35999     35991     35990     35993     35994
     35991     35990     35993     35995     35991     35990     35993     35996
     35992     35990     35993     35994     35992     35990     35993     35995
     35992     35990     35993     35996     35993     35996     35999     36000
     35993     35996     35999     36001     35993     35996     35999     36002
     35994     35993     35996     35997     35994     35993     35996     35998
     35994     35993     35996     35999     35995     35993     35996     35997
     35995     35993     35996     35998     35995     35993     35996     35999
     35996     35999     36002     36003     35996     35999     36002     36004
     35996     35999     36002     36005     35997     35996     35999     36000
     35997     35996     35999     36001     35997     35996     35999     36002
     35998     35996     35999     36000     35998     35996     35999     36001
     35998     35996     35999     36002     35999     36002     36005     36006
     35999     36002     36005     36007     35999     36002     36005     36008
     36000     35999     36002     36003     36000     35999     36002     36004
     36000     35999     36002     36005     36001     35999     36002     36003
     36001     35999     36002     36004     36001     35999     36002     36005
     36002     36005     36008     36009     36002     36005     36008     36010
     36002     36005     36008     36011     36003     36002     36005     36006
     36003     36002     36005     36007     36003     36002     36005     36008
     36004     36002     36005     36006     36004     36002     36005     36007
     36004     36002     36005     36008     36005     36008     36011     36012
     36005     36008     36011     36013     36005     36008     36011     36014
     36006     36005     36008     36009     36006     36005     36008     36010
     36006     36005     36008     36011     36007     36005     36008     36009
     36007     36005     36008     36010     36007     36005     36008     36011
     36009     36008     36011     36012     36009     36008     36011     36013
     36009     36008     36011     36014     36010     36008     36011     36012
     36010     36008     36011     36013     36010     36008     36011     36014
     36015     36019     36022     36023     36015     36019     36022     36024
     36015     36019     36022     36029     36016     36015     36019     36020
     36016     36015     36019     36021     36016     36015     36019     36022
     36017     36015     36019     36020     36017     36015     36019     36021
     36017     36015     36019     36022     36018     36015     36019     36020
     36018     36015     36019     36021     36018     36015     36019     36022
     36019     36022     36029     36025     36020     36019     36022     36023
     36020     36019     36022     36024     36020     36019     36022     36029
     36021     36019     36022     36023     36021     36019     36022     36024
     36021     36019     36022     36029     36022     36029     36025     36026
     36022     36029     36025     36027     36022     36029     36025     36028
     36023     36022     36029     36025     36024     36022     36029     36025
     36025     36028     36030     36031     36025     36028     36030     36032
     36025     36028     36030     36033     36026     36025     36028     36030
     36027     36025     36028     36030     36028     36030     36033     36034
     36028     36030     36033     36035     36028     36030     36033     36041
     36029     36025     36028     36030     36030     36033     36035     36036
     36030     36033     36041     36042     36030     36033     36041     36043
     36030     36033     36041     36044     36031     36030     36033     36034
     36031     36030     36033     36035     36031     36030     36033     36041
     36032     36030     36033     36034     36032     36030     36033     36035
     36032     36030     36033     36041     36033     36035     36036     36037
     36033     36035     36036     36038     36033     36041     36044     36045
     36034     36033     36035     36036     36034     36033     36041     36042
     36034     36033     36041     36043     36034     36033     36041     36044
     36035     36033     36041     36042     36035     36033     36041     36043
     36035     36033     36041     36044     36035     36036     36038     36039
     36035     36036     36038     36040     36035     36036     36038     36050
     36036     36035     36033     36041     36036     36038     36050     36051
     36036     36038     36050     36052     36036     36038     36050     36053
     36037     36036     36038     36039     36037     36036     36038     36040
     36037     36036     36038     36050     36038     36050     36053     36054
     36038     36050     36053     36055     36038     36050     36053     36056
     36039     36038     36050     36051     36039     36038     36050     36052
     36039     36038     36050     36053     36040     36038     36050     36051
     36040     36038     36050     36052     36040     36038     36050     36053
     36041     36044     36045     36046     36041     36044     36045     36047
     36042     36041     36044     36045     36043     36041     36044     36045
     36044     36045     36047     36048     36044     36045     36047     36049
     36044     36045     36047     36097     36045     36047     36097     36098
     36045     36047     36097     36099     36045     36047     36097     36100
     36046     36045     36047     36048     36046     36045     36047     36049
     36046     36045     36047     36097     36047     36097     36100     36101
     36047     36097     36100     36102     36047     36097     36100     36103
     36048     36047     36097     36098     36048     36047     36097     36099
     36048     36047     36097     36100     36049     36047     36097     36098
     36049     36047     36097     36099     36049     36047     36097     36100
     36050     36053     36056     36057     36050     36053     36056     36058
     36050     36053     36056     36059     36051     36050     36053     36054
     36051     36050     36053     36055     36051     36050     36053     36056
     36052     36050     36053     36054     36052     36050     36053     36055
     36052     36050     36053     36056     36053     36056     36059     36060
     36053     36056     36059     36061     36053     36056     36059     36062
     36054     36053     36056     36057     36054     36053     36056     36058
     36054     36053     36056     36059     36055     36053     36056     36057
     36055     36053     36056     36058     36055     36053     36056     36059
     36056     36059     36062     36063     36056     36059     36062     36064
     36056     36059     36062     36065     36057     36056     36059     36060
     36057     36056     36059     36061     36057     36056     36059     36062
     36058     36056     36059     36060     36058     36056     36059     36061
     36058     36056     36059     36062     36059     36062     36065     36066
     36059     36062     36065     36067     36059     36062     36065     36068
     36060     36059     36062     36063     36060     36059     36062     36064
     36060     36059     36062     36065     36061     36059     36062     36063
     36061     36059     36062     36064     36061     36059     36062     36065
     36062     36065     36068     36069     36062     36065     36068     36070
     36063     36062     36065     36066     36063     36062     36065     36067
     36063     36062     36065     36068     36064     36062     36065     36066
     36064     36062     36065     36067     36064     36062     36065     36068
     36065     36068     36070     36071     36065     36068     36070     36072
     36066     36065     36068     36069     36066     36065     36068     36070
     36067     36065     36068     36069     36067     36065     36068     36070
     36068     36070     36072     36073     36068     36070     36072     36074
     36068     36070     36072     36075     36069     36068     36070     36071
     36069     36068     36070     36072     36070     36072     36075     36076
     36070     36072     36075     36077     36070     36072     36075     36078
     36071     36070     36072     36073     36071     36070     36072     36074
     36071     36070     36072     36075     36072     36075     36078     36079
     36072     36075     36078     36080     36072     36075     36078     36081
     36073     36072     36075     36076     36073     36072     36075     36077
     36073     36072     36075     36078     36074     36072     36075     36076
     36074     36072     36075     36077     36074     36072     36075     36078
     36075     36078     36081     36082     36075     36078     36081     36083
     36075     36078     36081     36084     36076     36075     36078     36079
     36076     36075     36078     36080     36076     36075     36078     36081
     36077     36075     36078     36079     36077     36075     36078     36080
     36077     36075     36078     36081     36078     36081     36084     36085
     36078     36081     36084     36086     36078     36081     36084     36087
     36079     36078     36081     36082     36079     36078     36081     36083
     36079     36078     36081     36084     36080     36078     36081     36082
     36080     36078     36081     36083     36080     36078     36081     36084
     36081     36084     36087     36088     36081     36084     36087     36089
     36081     36084     36087     36090     36082     36081     36084     36085
     36082     36081     36084     36086     36082     36081     36084     36087
     36083     36081     36084     36085     36083     36081     36084     36086
     36083     36081     36084     36087     36084     36087     36090     36091
     36084     36087     36090     36092     36084     36087     36090     36093
     36085     36084     36087     36088     36085     36084     36087     36089
     36085     36084     36087     36090     36086     36084     36087     36088
     36086     36084     36087     36089     36086     36084     36087     36090
     36087     36090     36093     36094     36087     36090     36093     36095
     36087     36090     36093     36096     36088     36087     36090     36091
     36088     36087     36090     36092     36088     36087     36090     36093
     36089     36087     36090     36091     36089     36087     36090     36092
     36089     36087     36090     36093     36091     36090     36093     36094
     36091     36090     36093     36095     36091     36090     36093     36096
     36092     36090     36093     36094     36092     36090     36093     36095
     36092     36090     36093     36096     36097     36100     36103     36104
     36097     36100     36103     36105     36097     36100     36103     36106
     36098     36097     36100     36101     36098     36097     36100     36102
     36098     36097     36100     36103     36099     36097     36100     36101
     36099     36097     36100     36102     36099     36097     36100     36103
     36100     36103     36106     36107     36100     36103     36106     36108
     36100     36103     36106     36109     36101     36100     36103     36104
     36101     36100     36103     36105     36101     36100     36103     36106
     36102     36100     36103     36104     36102     36100     36103     36105
     36102     36100     36103     36106     36103     36106     36109     36110
     36103     36106     36109     36111     36103     36106     36109     36112
     36104     36103     36106     36107     36104     36103     36106     36108
     36104     36103     36106     36109     36105     36103     36106     36107
     36105     36103     36106     36108     36105     36103     36106     36109
     36106     36109     36112     36113     36106     36109     36112     36114
     36106     36109     36112     36115     36107     36106     36109     36110
     36107     36106     36109     36111     36107     36106     36109     36112
     36108     36106     36109     36110     36108     36106     36109     36111
     36108     36106     36109     36112     36109     36112     36115     36116
     36109     36112     36115     36117     36109     36112     36115     36118
     36110     36109     36112     36113     36110     36109     36112     36114
     36110     36109     36112     36115     36111     36109     36112     36113
     36111     36109     36112     36114     36111     36109     36112     36115
     36112     36115     36118     36119     36112     36115     36118     36120
     36112     36115     36118     36121     36113     36112     36115     36116
     36113     36112     36115     36117     36113     36112     36115     36118
     36114     36112     36115     36116     36114     36112     36115     36117
     36114     36112     36115     36118     36115     36118     36121     36122
     36115     36118     36121     36123     36115     36118     36121     36124
     36116     36115     36118     36119     36116     36115     36118     36120
     36116     36115     36118     36121     36117     36115     36118     36119
     36117     36115     36118     36120     36117     36115     36118     36121
     36118     36121     36124     36125     36118     36121     36124     36126
     36118     36121     36124     36127     36119     36118     36121     36122
     36119     36118     36121     36123     36119     36118     36121     36124
     36120     36118     36121     36122     36120     36118     36121     36123
     36120     36118     36121     36124     36121     36124     36127     36128
     36121     36124     36127     36129     36121     36124     36127     36130
     36122     36121     36124     36125     36122     36121     36124     36126
     36122     36121     36124     36127     36123     36121     36124     36125
     36123     36121     36124     36126     36123     36121     36124     36127
     36124     36127     36130     36131     36124     36127     36130     36132
     36124     36127     36130     36133     36125     36124     36127     36128
     36125     36124     36127     36129     36125     36124     36127     36130
     36126     36124     36127     36128     36126     36124     36127     36129
     36126     36124     36127     36130     36127     36130     36133     36134
     36127     36130     36133     36135     36127     36130     36133     36136
     36128     36127     36130     36131     36128     36127     36130     36132
     36128     36127     36130     36133     36129     36127     36130     36131
     36129     36127     36130     36132     36129     36127     36130     36133
     36130     36133     36136     36137     36130     36133     36136     36138
     36130     36133     36136     36139     36131     36130     36133     36134
     36131     36130     36133     36135     36131     36130     36133     36136
     36132     36130     36133     36134     36132     36130     36133     36135
     36132     36130     36133     36136     36134     36133     36136     36137
     36134     36133     36136     36138     36134     36133     36136     36139
     36135     36133     36136     36137     36135     36133     36136     36138
     36135     36133     36136     36139     36140     36144     36147     36148
     36140     36144     36147     36149     36140     36144     36147     36154
     36141     36140     36144     36145     36141     36140     36144     36146
     36141     36140     36144     36147     36142     36140     36144     36145
     36142     36140     36144     36146     36142     36140     36144     36147
     36143     36140     36144     36145     36143     36140     36144     36146
     36143     36140     36144     36147     36144     36147     36154     36150
     36145     36144     36147     36148     36145     36144     36147     36149
     36145     36144     36147     36154     36146     36144     36147     36148
     36146     36144     36147     36149     36146     36144     36147     36154
     36147     36154     36150     36151     36147     36154     36150     36152
     36147     36154     36150     36153     36148     36147     36154     36150
     36149     36147     36154     36150     36150     36153     36155     36156
     36150     36153     36155     36157     36150     36153     36155     36158
     36151     36150     36153     36155     36152     36150     36153     36155
     36153     36155     36158     36159     36153     36155     36158     36160
     36153     36155     36158     36166     36154     36150     36153     36155
     36155     36158     36160     36161     36155     36158     36166     36167
     36155     36158     36166     36168     36155     36158     36166     36169
     36156     36155     36158     36159     36156     36155     36158     36160
     36156     36155     36158     36166     36157     36155     36158     36159
     36157     36155     36158     36160     36157     36155     36158     36166
     36158     36160     36161     36162     36158     36160     36161     36163
     36158     36166     36169     36170     36159     36158     36160     36161
     36159     36158     36166     36167     36159     36158     36166     36168
     36159     36158     36166     36169     36160     36158     36166     36167
     36160     36158     36166     36168     36160     36158     36166     36169
     36160     36161     36163     36164     36160     36161     36163     36165
     36160     36161     36163     36175     36161     36160     36158     36166
     36161     36163     36175     36176     36161     36163     36175     36177
     36161     36163     36175     36178     36162     36161     36163     36164
     36162     36161     36163     36165     36162     36161     36163     36175
     36163     36175     36178     36179     36163     36175     36178     36180
     36163     36175     36178     36181     36164     36163     36175     36176
     36164     36163     36175     36177     36164     36163     36175     36178
     36165     36163     36175     36176     36165     36163     36175     36177
     36165     36163     36175     36178     36166     36169     36170     36171
     36166     36169     36170     36172     36167     36166     36169     36170
     36168     36166     36169     36170     36169     36170     36172     36173
     36169     36170     36172     36174     36169     36170     36172     36222
     36170     36172     36222     36223     36170     36172     36222     36224
     36170     36172     36222     36225     36171     36170     36172     36173
     36171     36170     36172     36174     36171     36170     36172     36222
     36172     36222     36225     36226     36172     36222     36225     36227
     36172     36222     36225     36228     36173     36172     36222     36223
     36173     36172     36222     36224     36173     36172     36222     36225
     36174     36172     36222     36223     36174     36172     36222     36224
     36174     36172     36222     36225     36175     36178     36181     36182
     36175     36178     36181     36183     36175     36178     36181     36184
     36176     36175     36178     36179     36176     36175     36178     36180
     36176     36175     36178     36181     36177     36175     36178     36179
     36177     36175     36178     36180     36177     36175     36178     36181
     36178     36181     36184     36185     36178     36181     36184     36186
     36178     36181     36184     36187     36179     36178     36181     36182
     36179     36178     36181     36183     36179     36178     36181     36184
     36180     36178     36181     36182     36180     36178     36181     36183
     36180     36178     36181     36184     36181     36184     36187     36188
     36181     36184     36187     36189     36181     36184     36187     36190
     36182     36181     36184     36185     36182     36181     36184     36186
     36182     36181     36184     36187     36183     36181     36184     36185
     36183     36181     36184     36186     36183     36181     36184     36187
     36184     36187     36190     36191     36184     36187     36190     36192
     36184     36187     36190     36193     36185     36184     36187     36188
     36185     36184     36187     36189     36185     36184     36187     36190
     36186     36184     36187     36188     36186     36184     36187     36189
     36186     36184     36187     36190     36187     36190     36193     36194
     36187     36190     36193     36195     36188     36187     36190     36191
     36188     36187     36190     36192     36188     36187     36190     36193
     36189     36187     36190     36191     36189     36187     36190     36192
     36189     36187     36190     36193     36190     36193     36195     36196
     36190     36193     36195     36197     36191     36190     36193     36194
     36191     36190     36193     36195     36192     36190     36193     36194
     36192     36190     36193     36195     36193     36195     36197     36198
     36193     36195     36197     36199     36193     36195     36197     36200
     36194     36193     36195     36196     36194     36193     36195     36197
     36195     36197     36200     36201     36195     36197     36200     36202
     36195     36197     36200     36203     36196     36195     36197     36198
     36196     36195     36197     36199     36196     36195     36197     36200
     36197     36200     36203     36204     36197     36200     36203     36205
     36197     36200     36203     36206     36198     36197     36200     36201
     36198     36197     36200     36202     36198     36197     36200     36203
     36199     36197     36200     36201     36199     36197     36200     36202
     36199     36197     36200     36203     36200     36203     36206     36207
     36200     36203     36206     36208     36200     36203     36206     36209
     36201     36200     36203     36204     36201     36200     36203     36205
     36201     36200     36203     36206     36202     36200     36203     36204
     36202     36200     36203     36205     36202     36200     36203     36206
     36203     36206     36209     36210     36203     36206     36209     36211
     36203     36206     36209     36212     36204     36203     36206     36207
     36204     36203     36206     36208     36204     36203     36206     36209
     36205     36203     36206     36207     36205     36203     36206     36208
     36205     36203     36206     36209     36206     36209     36212     36213
     36206     36209     36212     36214     36206     36209     36212     36215
     36207     36206     36209     36210     36207     36206     36209     36211
     36207     36206     36209     36212     36208     36206     36209     36210
     36208     36206     36209     36211     36208     36206     36209     36212
     36209     36212     36215     36216     36209     36212     36215     36217
     36209     36212     36215     36218     36210     36209     36212     36213
     36210     36209     36212     36214     36210     36209     36212     36215
     36211     36209     36212     36213     36211     36209     36212     36214
     36211     36209     36212     36215     36212     36215     36218     36219
     36212     36215     36218     36220     36212     36215     36218     36221
     36213     36212     36215     36216     36213     36212     36215     36217
     36213     36212     36215     36218     36214     36212     36215     36216
     36214     36212     36215     36217     36214     36212     36215     36218
     36216     36215     36218     36219     36216     36215     36218     36220
     36216     36215     36218     36221     36217     36215     36218     36219
     36217     36215     36218     36220     36217     36215     36218     36221
     36222     36225     36228     36229     36222     36225     36228     36230
     36222     36225     36228     36231     36223     36222     36225     36226
     36223     36222     36225     36227     36223     36222     36225     36228
     36224     36222     36225     36226     36224     36222     36225     36227
     36224     36222     36225     36228     36225     36228     36231     36232
     36225     36228     36231     36233     36225     36228     36231     36234
     36226     36225     36228     36229     36226     36225     36228     36230
     36226     36225     36228     36231     36227     36225     36228     36229
     36227     36225     36228     36230     36227     36225     36228     36231
     36228     36231     36234     36235     36228     36231     36234     36236
     36228     36231     36234     36237     36229     36228     36231     36232
     36229     36228     36231     36233     36229     36228     36231     36234
     36230     36228     36231     36232     36230     36228     36231     36233
     36230     36228     36231     36234     36231     36234     36237     36238
     36231     36234     36237     36239     36231     36234     36237     36240
     36232     36231     36234     36235     36232     36231     36234     36236
     36232     36231     36234     36237     36233     36231     36234     36235
     36233     36231     36234     36236     36233     36231     36234     36237
     36234     36237     36240     36241     36234     36237     36240     36242
     36234     36237     36240     36243     36235     36234     36237     36238
     36235     36234     36237     36239     36235     36234     36237     36240
     36236     36234     36237     36238     36236     36234     36237     36239
     36236     36234     36237     36240     36237     36240     36243     36244
     36237     36240     36243     36245     36237     36240     36243     36246
     36238     36237     36240     36241     36238     36237     36240     36242
     36238     36237     36240     36243     36239     36237     36240     36241
     36239     36237     36240     36242     36239     36237     36240     36243
     36240     36243     36246     36247     36240     36243     36246     36248
     36240     36243     36246     36249     36241     36240     36243     36244
     36241     36240     36243     36245     36241     36240     36243     36246
     36242     36240     36243     36244     36242     36240     36243     36245
     36242     36240     36243     36246     36243     36246     36249     36250
     36243     36246     36249     36251     36243     36246     36249     36252
     36244     36243     36246     36247     36244     36243     36246     36248
     36244     36243     36246     36249     36245     36243     36246     36247
     36245     36243     36246     36248     36245     36243     36246     36249
     36246     36249     36252     36253     36246     36249     36252     36254
     36246     36249     36252     36255     36247     36246     36249     36250
     36247     36246     36249     36251     36247     36246     36249     36252
     36248     36246     36249     36250     36248     36246     36249     36251
     36248     36246     36249     36252     36249     36252     36255     36256
     36249     36252     36255     36257     36249     36252     36255     36258
     36250     36249     36252     36253     36250     36249     36252     36254
     36250     36249     36252     36255     36251     36249     36252     36253
     36251     36249     36252     36254     36251     36249     36252     36255
     36252     36255     36258     36259     36252     36255     36258     36260
     36252     36255     36258     36261     36253     36252     36255     36256
     36253     36252     36255     36257     36253     36252     36255     36258
     36254     36252     36255     36256     36254     36252     36255     36257
     36254     36252     36255     36258     36255     36258     36261     36262
     36255     36258     36261     36263     36255     36258     36261     36264
     36256     36255     36258     36259     36256     36255     36258     36260
     36256     36255     36258     36261     36257     36255     36258     36259
     36257     36255     36258     36260     36257     36255     36258     36261
     36259     36258     36261     36262     36259     36258     36261     36263
     36259     36258     36261     36264     36260     36258     36261     36262
     36260     36258     36261     36263     36260     36258     36261     36264
     36265     36269     36272     36273     36265     36269     36272     36274
     36265     36269     36272     36279     36266     36265     36269     36270
     36266     36265     36269     36271     36266     36265     36269     36272
     36267     36265     36269     36270     36267     36265     36269     36271
     36267     36265     36269     36272     36268     36265     36269     36270
     36268     36265     36269     36271     36268     36265     36269     36272
     36269     36272     36279     36275     36270     36269     36272     36273
     36270     36269     36272     36274     36270     36269     36272     36279
     36271     36269     36272     36273     36271     36269     36272     36274
     36271     36269     36272     36279     36272     36279     36275     36276
     36272     36279     36275     36277     36272     36279     36275     36278
     36273     36272     36279     36275     36274     36272     36279     36275
     36275     36278     36280     36281     36275     36278     36280     36282
     36275     36278     36280     36283     36276     36275     36278     36280
     36277     36275     36278     36280     36278     36280     36283     36284
     36278     36280     36283     36285     36278     36280     36283     36291
     36279     36275     36278     36280     36280     36283     36285     36286
     36280     36283     36291     36292     36280     36283     36291     36293
     36280     36283     36291     36294     36281     36280     36283     36284
     36281     36280     36283     36285     36281     36280     36283     36291
     36282     36280     36283     36284     36282     36280     36283     36285
     36282     36280     36283     36291     36283     36285     36286     36287
     36283     36285     36286     36288     36283     36291     36294     36295
     36284     36283     36285     36286     36284     36283     36291     36292
     36284     36283     36291     36293     36284     36283     36291     36294
     36285     36283     36291     36292     36285     36283     36291     36293
     36285     36283     36291     36294     36285     36286     36288     36289
     36285     36286     36288     36290     36285     36286     36288     36300
     36286     36285     36283     36291     36286     36288     36300     36301
     36286     36288     36300     36302     36286     36288     36300     36303
     36287     36286     36288     36289     36287     36286     36288     36290
     36287     36286     36288     36300     36288     36300     36303     36304
     36288     36300     36303     36305     36288     36300     36303     36306
     36289     36288     36300     36301     36289     36288     36300     36302
     36289     36288     36300     36303     36290     36288     36300     36301
     36290     36288     36300     36302     36290     36288     36300     36303
     36291     36294     36295     36296     36291     36294     36295     36297
     36292     36291     36294     36295     36293     36291     36294     36295
     36294     36295     36297     36298     36294     36295     36297     36299
     36294     36295     36297     36347     36295     36297     36347     36348
     36295     36297     36347     36349     36295     36297     36347     36350
     36296     36295     36297     36298     36296     36295     36297     36299
     36296     36295     36297     36347     36297     36347     36350     36351
     36297     36347     36350     36352     36297     36347     36350     36353
     36298     36297     36347     36348     36298     36297     36347     36349
     36298     36297     36347     36350     36299     36297     36347     36348
     36299     36297     36347     36349     36299     36297     36347     36350
     36300     36303     36306     36307     36300     36303     36306     36308
     36300     36303     36306     36309     36301     36300     36303     36304
     36301     36300     36303     36305     36301     36300     36303     36306
     36302     36300     36303     36304     36302     36300     36303     36305
     36302     36300     36303     36306     36303     36306     36309     36310
     36303     36306     36309     36311     36303     36306     36309     36312
     36304     36303     36306     36307     36304     36303     36306     36308
     36304     36303     36306     36309     36305     36303     36306     36307
     36305     36303     36306     36308     36305     36303     36306     36309
     36306     36309     36312     36313     36306     36309     36312     36314
     36306     36309     36312     36315     36307     36306     36309     36310
     36307     36306     36309     36311     36307     36306     36309     36312
     36308     36306     36309     36310     36308     36306     36309     36311
     36308     36306     36309     36312     36309     36312     36315     36316
     36309     36312     36315     36317     36309     36312     36315     36318
     36310     36309     36312     36313     36310     36309     36312     36314
     36310     36309     36312     36315     36311     36309     36312     36313
     36311     36309     36312     36314     36311     36309     36312     36315
     36312     36315     36318     36319     36312     36315     36318     36320
     36313     36312     36315     36316     36313     36312     36315     36317
     36313     36312     36315     36318     36314     36312     36315     36316
     36314     36312     36315     36317     36314     36312     36315     36318
     36315     36318     36320     36321     36315     36318     36320     36322
     36316     36315     36318     36319     36316     36315     36318     36320
     36317     36315     36318     36319     36317     36315     36318     36320
     36318     36320     36322     36323     36318     36320     36322     36324
     36318     36320     36322     36325     36319     36318     36320     36321
     36319     36318     36320     36322     36320     36322     36325     36326
     36320     36322     36325     36327     36320     36322     36325     36328
     36321     36320     36322     36323     36321     36320     36322     36324
     36321     36320     36322     36325     36322     36325     36328     36329
     36322     36325     36328     36330     36322     36325     36328     36331
     36323     36322     36325     36326     36323     36322     36325     36327
     36323     36322     36325     36328     36324     36322     36325     36326
     36324     36322     36325     36327     36324     36322     36325     36328
     36325     36328     36331     36332     36325     36328     36331     36333
     36325     36328     36331     36334     36326     36325     36328     36329
     36326     36325     36328     36330     36326     36325     36328     36331
     36327     36325     36328     36329     36327     36325     36328     36330
     36327     36325     36328     36331     36328     36331     36334     36335
     36328     36331     36334     36336     36328     36331     36334     36337
     36329     36328     36331     36332     36329     36328     36331     36333
     36329     36328     36331     36334     36330     36328     36331     36332
     36330     36328     36331     36333     36330     36328     36331     36334
     36331     36334     36337     36338     36331     36334     36337     36339
     36331     36334     36337     36340     36332     36331     36334     36335
     36332     36331     36334     36336     36332     36331     36334     36337
     36333     36331     36334     36335     36333     36331     36334     36336
     36333     36331     36334     36337     36334     36337     36340     36341
     36334     36337     36340     36342     36334     36337     36340     36343
     36335     36334     36337     36338     36335     36334     36337     36339
     36335     36334     36337     36340     36336     36334     36337     36338
     36336     36334     36337     36339     36336     36334     36337     36340
     36337     36340     36343     36344     36337     36340     36343     36345
     36337     36340     36343     36346     36338     36337     36340     36341
     36338     36337     36340     36342     36338     36337     36340     36343
     36339     36337     36340     36341     36339     36337     36340     36342
     36339     36337     36340     36343     36341     36340     36343     36344
     36341     36340     36343     36345     36341     36340     36343     36346
     36342     36340     36343     36344     36342     36340     36343     36345
     36342     36340     36343     36346     36347     36350     36353     36354
     36347     36350     36353     36355     36347     36350     36353     36356
     36348     36347     36350     36351     36348     36347     36350     36352
     36348     36347     36350     36353     36349     36347     36350     36351
     36349     36347     36350     36352     36349     36347     36350     36353
     36350     36353     36356     36357     36350     36353     36356     36358
     36350     36353     36356     36359     36351     36350     36353     36354
     36351     36350     36353     36355     36351     36350     36353     36356
     36352     36350     36353     36354     36352     36350     36353     36355
     36352     36350     36353     36356     36353     36356     36359     36360
     36353     36356     36359     36361     36353     36356     36359     36362
     36354     36353     36356     36357     36354     36353     36356     36358
     36354     36353     36356     36359     36355     36353     36356     36357
     36355     36353     36356     36358     36355     36353     36356     36359
     36356     36359     36362     36363     36356     36359     36362     36364
     36356     36359     36362     36365     36357     36356     36359     36360
     36357     36356     36359     36361     36357     36356     36359     36362
     36358     36356     36359     36360     36358     36356     36359     36361
     36358     36356     36359     36362     36359     36362     36365     36366
     36359     36362     36365     36367     36359     36362     36365     36368
     36360     36359     36362     36363     36360     36359     36362     36364
     36360     36359     36362     36365     36361     36359     36362     36363
     36361     36359     36362     36364     36361     36359     36362     36365
     36362     36365     36368     36369     36362     36365     36368     36370
     36362     36365     36368     36371     36363     36362     36365     36366
     36363     36362     36365     36367     36363     36362     36365     36368
     36364     36362     36365     36366     36364     36362     36365     36367
     36364     36362     36365     36368     36365     36368     36371     36372
     36365     36368     36371     36373     36365     36368     36371     36374
     36366     36365     36368     36369     36366     36365     36368     36370
     36366     36365     36368     36371     36367     36365     36368     36369
     36367     36365     36368     36370     36367     36365     36368     36371
     36368     36371     36374     36375     36368     36371     36374     36376
     36368     36371     36374     36377     36369     36368     36371     36372
     36369     36368     36371     36373     36369     36368     36371     36374
     36370     36368     36371     36372     36370     36368     36371     36373
     36370     36368     36371     36374     36371     36374     36377     36378
     36371     36374     36377     36379     36371     36374     36377     36380
     36372     36371     36374     36375     36372     36371     36374     36376
     36372     36371     36374     36377     36373     36371     36374     36375
     36373     36371     36374     36376     36373     36371     36374     36377
     36374     36377     36380     36381     36374     36377     36380     36382
     36374     36377     36380     36383     36375     36374     36377     36378
     36375     36374     36377     36379     36375     36374     36377     36380
     36376     36374     36377     36378     36376     36374     36377     36379
     36376     36374     36377     36380     36377     36380     36383     36384
     36377     36380     36383     36385     36377     36380     36383     36386
     36378     36377     36380     36381     36378     36377     36380     36382
     36378     36377     36380     36383     36379     36377     36380     36381
     36379     36377     36380     36382     36379     36377     36380     36383
     36380     36383     36386     36387     36380     36383     36386     36388
     36380     36383     36386     36389     36381     36380     36383     36384
     36381     36380     36383     36385     36381     36380     36383     36386
     36382     36380     36383     36384     36382     36380     36383     36385
     36382     36380     36383     36386     36384     36383     36386     36387
     36384     36383     36386     36388     36384     36383     36386     36389
     36385     36383     36386     36387     36385     36383     36386     36388
     36385     36383     36386     36389     36390     36394     36397     36398
     36390     36394     36397     36399     36390     36394     36397     36404
     36391     36390     36394     36395     36391     36390     36394     36396
     36391     36390     36394     36397     36392     36390     36394     36395
     36392     36390     36394     36396     36392     36390     36394     36397
     36393     36390     36394     36395     36393     36390     36394     36396
     36393     36390     36394     36397     36394     36397     36404     36400
     36395     36394     36397     36398     36395     36394     36397     36399
     36395     36394     36397     36404     36396     36394     36397     36398
     36396     36394     36397     36399     36396     36394     36397     36404
     36397     36404     36400     36401     36397     36404     36400     36402
     36397     36404     36400     36403     36398     36397     36404     36400
     36399     36397     36404     36400     36400     36403     36405     36406
     36400     36403     36405     36407     36400     36403     36405     36408
     36401     36400     36403     36405     36402     36400     36403     36405
     36403     36405     36408     36409     36403     36405     36408     36410
     36403     36405     36408     36416     36404     36400     36403     36405
     36405     36408     36410     36411     36405     36408     36416     36417
     36405     36408     36416     36418     36405     36408     36416     36419
     36406     36405     36408     36409     36406     36405     36408     36410
     36406     36405     36408     36416     36407     36405     36408     36409
     36407     36405     36408     36410     36407     36405     36408     36416
     36408     36410     36411     36412     36408     36410     36411     36413
     36408     36416     36419     36420     36409     36408     36410     36411
     36409     36408     36416     36417     36409     36408     36416     36418
     36409     36408     36416     36419     36410     36408     36416     36417
     36410     36408     36416     36418     36410     36408     36416     36419
     36410     36411     36413     36414     36410     36411     36413     36415
     36410     36411     36413     36425     36411     36410     36408     36416
     36411     36413     36425     36426     36411     36413     36425     36427
     36411     36413     36425     36428     36412     36411     36413     36414
     36412     36411     36413     36415     36412     36411     36413     36425
     36413     36425     36428     36429     36413     36425     36428     36430
     36413     36425     36428     36431     36414     36413     36425     36426
     36414     36413     36425     36427     36414     36413     36425     36428
     36415     36413     36425     36426     36415     36413     36425     36427
     36415     36413     36425     36428     36416     36419     36420     36421
     36416     36419     36420     36422     36417     36416     36419     36420
     36418     36416     36419     36420     36419     36420     36422     36423
     36419     36420     36422     36424     36419     36420     36422     36472
     36420     36422     36472     36473     36420     36422     36472     36474
     36420     36422     36472     36475     36421     36420     36422     36423
     36421     36420     36422     36424     36421     36420     36422     36472
     36422     36472     36475     36476     36422     36472     36475     36477
     36422     36472     36475     36478     36423     36422     36472     36473
     36423     36422     36472     36474     36423     36422     36472     36475
     36424     36422     36472     36473     36424     36422     36472     36474
     36424     36422     36472     36475     36425     36428     36431     36432
     36425     36428     36431     36433     36425     36428     36431     36434
     36426     36425     36428     36429     36426     36425     36428     36430
     36426     36425     36428     36431     36427     36425     36428     36429
     36427     36425     36428     36430     36427     36425     36428     36431
     36428     36431     36434     36435     36428     36431     36434     36436
     36428     36431     36434     36437     36429     36428     36431     36432
     36429     36428     36431     36433     36429     36428     36431     36434
     36430     36428     36431     36432     36430     36428     36431     36433
     36430     36428     36431     36434     36431     36434     36437     36438
     36431     36434     36437     36439     36431     36434     36437     36440
     36432     36431     36434     36435     36432     36431     36434     36436
     36432     36431     36434     36437     36433     36431     36434     36435
     36433     36431     36434     36436     36433     36431     36434     36437
     36434     36437     36440     36441     36434     36437     36440     36442
     36434     36437     36440     36443     36435     36434     36437     36438
     36435     36434     36437     36439     36435     36434     36437     36440
     36436     36434     36437     36438     36436     36434     36437     36439
     36436     36434     36437     36440     36437     36440     36443     36444
     36437     36440     36443     36445     36438     36437     36440     36441
     36438     36437     36440     36442     36438     36437     36440     36443
     36439     36437     36440     36441     36439     36437     36440     36442
     36439     36437     36440     36443     36440     36443     36445     36446
     36440     36443     36445     36447     36441     36440     36443     36444
     36441     36440     36443     36445     36442     36440     36443     36444
     36442     36440     36443     36445     36443     36445     36447     36448
     36443     36445     36447     36449     36443     36445     36447     36450
     36444     36443     36445     36446     36444     36443     36445     36447
     36445     36447     36450     36451     36445     36447     36450     36452
     36445     36447     36450     36453     36446     36445     36447     36448
     36446     36445     36447     36449     36446     36445     36447     36450
     36447     36450     36453     36454     36447     36450     36453     36455
     36447     36450     36453     36456     36448     36447     36450     36451
     36448     36447     36450     36452     36448     36447     36450     36453
     36449     36447     36450     36451     36449     36447     36450     36452
     36449     36447     36450     36453     36450     36453     36456     36457
     36450     36453     36456     36458     36450     36453     36456     36459
     36451     36450     36453     36454     36451     36450     36453     36455
     36451     36450     36453     36456     36452     36450     36453     36454
     36452     36450     36453     36455     36452     36450     36453     36456
     36453     36456     36459     36460     36453     36456     36459     36461
     36453     36456     36459     36462     36454     36453     36456     36457
     36454     36453     36456     36458     36454     36453     36456     36459
     36455     36453     36456     36457     36455     36453     36456     36458
     36455     36453     36456     36459     36456     36459     36462     36463
     36456     36459     36462     36464     36456     36459     36462     36465
     36457     36456     36459     36460     36457     36456     36459     36461
     36457     36456     36459     36462     36458     36456     36459     36460
     36458     36456     36459     36461     36458     36456     36459     36462
     36459     36462     36465     36466     36459     36462     36465     36467
     36459     36462     36465     36468     36460     36459     36462     36463
     36460     36459     36462     36464     36460     36459     36462     36465
     36461     36459     36462     36463     36461     36459     36462     36464
     36461     36459     36462     36465     36462     36465     36468     36469
     36462     36465     36468     36470     36462     36465     36468     36471
     36463     36462     36465     36466     36463     36462     36465     36467
     36463     36462     36465     36468     36464     36462     36465     36466
     36464     36462     36465     36467     36464     36462     36465     36468
     36466     36465     36468     36469     36466     36465     36468     36470
     36466     36465     36468     36471     36467     36465     36468     36469
     36467     36465     36468     36470     36467     36465     36468     36471
     36472     36475     36478     36479     36472     36475     36478     36480
     36472     36475     36478     36481     36473     36472     36475     36476
     36473     36472     36475     36477     36473     36472     36475     36478
     36474     36472     36475     36476     36474     36472     36475     36477
     36474     36472     36475     36478     36475     36478     36481     36482
     36475     36478     36481     36483     36475     36478     36481     36484
     36476     36475     36478     36479     36476     36475     36478     36480
     36476     36475     36478     36481     36477     36475     36478     36479
     36477     36475     36478     36480     36477     36475     36478     36481
     36478     36481     36484     36485     36478     36481     36484     36486
     36478     36481     36484     36487     36479     36478     36481     36482
     36479     36478     36481     36483     36479     36478     36481     36484
     36480     36478     36481     36482     36480     36478     36481     36483
     36480     36478     36481     36484     36481     36484     36487     36488
     36481     36484     36487     36489     36481     36484     36487     36490
     36482     36481     36484     36485     36482     36481     36484     36486
     36482     36481     36484     36487     36483     36481     36484     36485
     36483     36481     36484     36486     36483     36481     36484     36487
     36484     36487     36490     36491     36484     36487     36490     36492
     36484     36487     36490     36493     36485     36484     36487     36488
     36485     36484     36487     36489     36485     36484     36487     36490
     36486     36484     36487     36488     36486     36484     36487     36489
     36486     36484     36487     36490     36487     36490     36493     36494
     36487     36490     36493     36495     36487     36490     36493     36496
     36488     36487     36490     36491     36488     36487     36490     36492
     36488     36487     36490     36493     36489     36487     36490     36491
     36489     36487     36490     36492     36489     36487     36490     36493
     36490     36493     36496     36497     36490     36493     36496     36498
     36490     36493     36496     36499     36491     36490     36493     36494
     36491     36490     36493     36495     36491     36490     36493     36496
     36492     36490     36493     36494     36492     36490     36493     36495
     36492     36490     36493     36496     36493     36496     36499     36500
     36493     36496     36499     36501     36493     36496     36499     36502
     36494     36493     36496     36497     36494     36493     36496     36498
     36494     36493     36496     36499     36495     36493     36496     36497
     36495     36493     36496     36498     36495     36493     36496     36499
     36496     36499     36502     36503     36496     36499     36502     36504
     36496     36499     36502     36505     36497     36496     36499     36500
     36497     36496     36499     36501     36497     36496     36499     36502
     36498     36496     36499     36500     36498     36496     36499     36501
     36498     36496     36499     36502     36499     36502     36505     36506
     36499     36502     36505     36507     36499     36502     36505     36508
     36500     36499     36502     36503     36500     36499     36502     36504
     36500     36499     36502     36505     36501     36499     36502     36503
     36501     36499     36502     36504     36501     36499     36502     36505
     36502     36505     36508     36509     36502     36505     36508     36510
     36502     36505     36508     36511     36503     36502     36505     36506
     36503     36502     36505     36507     36503     36502     36505     36508
     36504     36502     36505     36506     36504     36502     36505     36507
     36504     36502     36505     36508     36505     36508     36511     36512
     36505     36508     36511     36513     36505     36508     36511     36514
     36506     36505     36508     36509     36506     36505     36508     36510
     36506     36505     36508     36511     36507     36505     36508     36509
     36507     36505     36508     36510     36507     36505     36508     36511
     36509     36508     36511     36512     36509     36508     36511     36513
     36509     36508     36511     36514     36510     36508     36511     36512
     36510     36508     36511     36513     36510     36508     36511     36514
     36515     36516     36531     36532     36515     36516     36531     36533
     36515     36516     36531     36537     36516     36515     36519     36520
     36516     36515     36519     36521     36516     36515     36519     36522
     36516     36515     36523     36524     36516     36515     36523     36525
     36516     36515     36523     36526     36516     36515     36527     36528
     36516     36515     36527     36529     36516     36515     36527     36530
     36516     36531     36537     36534     36517     36516     36515     36519
     36517     36516     36515     36523     36517     36516     36515     36527
     36517     36516     36531     36532     36517     36516     36531     36533
     36517     36516     36531     36537     36518     36516     36515     36519
     36518     36516     36515     36523     36518     36516     36515     36527
     36518     36516     36531     36532     36518     36516     36531     36533
     36518     36516     36531     36537     36519     36515     36516     36531
     36519     36515     36523     36524     36519     36515     36523     36525
     36519     36515     36523     36526     36519     36515     36527     36528
     36519     36515     36527     36529     36519     36515     36527     36530
     36520     36519     36515     36523     36520     36519     36515     36527
     36521     36519     36515     36523     36521     36519     36515     36527
     36522     36519     36515     36523     36522     36519     36515     36527
     36523     36515     36516     36531     36523     36515     36527     36528
     36523     36515     36527     36529     36523     36515     36527     36530
     36524     36523     36515     36527     36525     36523     36515     36527
     36526     36523     36515     36527     36527     36515     36516     36531
     36531     36537     36534     36535     36531     36537     36534     36536
     36531     36537     36534     36538     36532     36531     36537     36534
     36533     36531     36537     36534     36534     36538     36539     36540
     36534     36538     36539     36541     36534     36538     36539     36542
     36535     36534     36538     36539     36536     36534     36538     36539
     36537     36534     36538     36539     36538     36539     36542     36543
     36538     36539     36542     36544     36538     36539     36542     36550
     36539     36542     36544     36545     36539     36542     36550     36551
     36539     36542     36550     36552     36539     36542     36550     36553
     36540     36539     36542     36543     36540     36539     36542     36544
     36540     36539     36542     36550     36541     36539     36542     36543
     36541     36539     36542     36544     36541     36539     36542     36550
     36542     36544     36545     36546     36542     36544     36545     36547
     36542     36550     36553     36554     36543     36542     36544     36545
     36543     36542     36550     36551     36543     36542     36550     36552
     36543     36542     36550     36553     36544     36542     36550     36551
     36544     36542     36550     36552     36544     36542     36550     36553
     36544     36545     36547     36548     36544     36545     36547     36549
     36544     36545     36547     36559     36545     36544     36542     36550
     36545     36547     36559     36560     36545     36547     36559     36561
     36545     36547     36559     36562     36546     36545     36547     36548
     36546     36545     36547     36549     36546     36545     36547     36559
     36547     36559     36562     36563     36547     36559     36562     36564
     36547     36559     36562     36565     36548     36547     36559     36560
     36548     36547     36559     36561     36548     36547     36559     36562
     36549     36547     36559     36560     36549     36547     36559     36561
     36549     36547     36559     36562     36550     36553     36554     36555
     36550     36553     36554     36556     36551     36550     36553     36554
     36552     36550     36553     36554     36553     36554     36556     36557
     36553     36554     36556     36558     36553     36554     36556     36606
     36554     36556     36606     36607     36554     36556     36606     36608
     36554     36556     36606     36609     36555     36554     36556     36557
     36555     36554     36556     36558     36555     36554     36556     36606
     36556     36606     36609     36610     36556     36606     36609     36611
     36556     36606     36609     36612     36557     36556     36606     36607
     36557     36556     36606     36608     36557     36556     36606     36609
     36558     36556     36606     36607     36558     36556     36606     36608
     36558     36556     36606     36609     36559     36562     36565     36566
     36559     36562     36565     36567     36559     36562     36565     36568
     36560     36559     36562     36563     36560     36559     36562     36564
     36560     36559     36562     36565     36561     36559     36562     36563
     36561     36559     36562     36564     36561     36559     36562     36565
     36562     36565     36568     36569     36562     36565     36568     36570
     36562     36565     36568     36571     36563     36562     36565     36566
     36563     36562     36565     36567     36563     36562     36565     36568
     36564     36562     36565     36566     36564     36562     36565     36567
     36564     36562     36565     36568     36565     36568     36571     36572
     36565     36568     36571     36573     36565     36568     36571     36574
     36566     36565     36568     36569     36566     36565     36568     36570
     36566     36565     36568     36571     36567     36565     36568     36569
     36567     36565     36568     36570     36567     36565     36568     36571
     36568     36571     36574     36575     36568     36571     36574     36576
     36568     36571     36574     36577     36569     36568     36571     36572
     36569     36568     36571     36573     36569     36568     36571     36574
     36570     36568     36571     36572     36570     36568     36571     36573
     36570     36568     36571     36574     36571     36574     36577     36578
     36571     36574     36577     36579     36572     36571     36574     36575
     36572     36571     36574     36576     36572     36571     36574     36577
     36573     36571     36574     36575     36573     36571     36574     36576
     36573     36571     36574     36577     36574     36577     36579     36580
     36574     36577     36579     36581     36575     36574     36577     36578
     36575     36574     36577     36579     36576     36574     36577     36578
     36576     36574     36577     36579     36577     36579     36581     36582
     36577     36579     36581     36583     36577     36579     36581     36584
     36578     36577     36579     36580     36578     36577     36579     36581
     36579     36581     36584     36585     36579     36581     36584     36586
     36579     36581     36584     36587     36580     36579     36581     36582
     36580     36579     36581     36583     36580     36579     36581     36584
     36581     36584     36587     36588     36581     36584     36587     36589
     36581     36584     36587     36590     36582     36581     36584     36585
     36582     36581     36584     36586     36582     36581     36584     36587
     36583     36581     36584     36585     36583     36581     36584     36586
     36583     36581     36584     36587     36584     36587     36590     36591
     36584     36587     36590     36592     36584     36587     36590     36593
     36585     36584     36587     36588     36585     36584     36587     36589
     36585     36584     36587     36590     36586     36584     36587     36588
     36586     36584     36587     36589     36586     36584     36587     36590
     36587     36590     36593     36594     36587     36590     36593     36595
     36587     36590     36593     36596     36588     36587     36590     36591
     36588     36587     36590     36592     36588     36587     36590     36593
     36589     36587     36590     36591     36589     36587     36590     36592
     36589     36587     36590     36593     36590     36593     36596     36597
     36590     36593     36596     36598     36590     36593     36596     36599
     36591     36590     36593     36594     36591     36590     36593     36595
     36591     36590     36593     36596     36592     36590     36593     36594
     36592     36590     36593     36595     36592     36590     36593     36596
     36593     36596     36599     36600     36593     36596     36599     36601
     36593     36596     36599     36602     36594     36593     36596     36597
     36594     36593     36596     36598     36594     36593     36596     36599
     36595     36593     36596     36597     36595     36593     36596     36598
     36595     36593     36596     36599     36596     36599     36602     36603
     36596     36599     36602     36604     36596     36599     36602     36605
     36597     36596     36599     36600     36597     36596     36599     36601
     36597     36596     36599     36602     36598     36596     36599     36600
     36598     36596     36599     36601     36598     36596     36599     36602
     36600     36599     36602     36603     36600     36599     36602     36604
     36600     36599     36602     36605     36601     36599     36602     36603
     36601     36599     36602     36604     36601     36599     36602     36605
     36606     36609     36612     36613     36606     36609     36612     36614
     36606     36609     36612     36615     36607     36606     36609     36610
     36607     36606     36609     36611     36607     36606     36609     36612
     36608     36606     36609     36610     36608     36606     36609     36611
     36608     36606     36609     36612     36609     36612     36615     36616
     36609     36612     36615     36617     36609     36612     36615     36618
     36610     36609     36612     36613     36610     36609     36612     36614
     36610     36609     36612     36615     36611     36609     36612     36613
     36611     36609     36612     36614     36611     36609     36612     36615
     36612     36615     36618     36619     36612     36615     36618     36620
     36612     36615     36618     36621     36613     36612     36615     36616
     36613     36612     36615     36617     36613     36612     36615     36618
     36614     36612     36615     36616     36614     36612     36615     36617
     36614     36612     36615     36618     36615     36618     36621     36622
     36615     36618     36621     36623     36615     36618     36621     36624
     36616     36615     36618     36619     36616     36615     36618     36620
     36616     36615     36618     36621     36617     36615     36618     36619
     36617     36615     36618     36620     36617     36615     36618     36621
     36618     36621     36624     36625     36618     36621     36624     36626
     36618     36621     36624     36627     36619     36618     36621     36622
     36619     36618     36621     36623     36619     36618     36621     36624
     36620     36618     36621     36622     36620     36618     36621     36623
     36620     36618     36621     36624     36621     36624     36627     36628
     36621     36624     36627     36629     36621     36624     36627     36630
     36622     36621     36624     36625     36622     36621     36624     36626
     36622     36621     36624     36627     36623     36621     36624     36625
     36623     36621     36624     36626     36623     36621     36624     36627
     36624     36627     36630     36631     36624     36627     36630     36632
     36624     36627     36630     36633     36625     36624     36627     36628
     36625     36624     36627     36629     36625     36624     36627     36630
     36626     36624     36627     36628     36626     36624     36627     36629
     36626     36624     36627     36630     36627     36630     36633     36634
     36627     36630     36633     36635     36627     36630     36633     36636
     36628     36627     36630     36631     36628     36627     36630     36632
     36628     36627     36630     36633     36629     36627     36630     36631
     36629     36627     36630     36632     36629     36627     36630     36633
     36630     36633     36636     36637     36630     36633     36636     36638
     36630     36633     36636     36639     36631     36630     36633     36634
     36631     36630     36633     36635     36631     36630     36633     36636
     36632     36630     36633     36634     36632     36630     36633     36635
     36632     36630     36633     36636     36633     36636     36639     36640
     36633     36636     36639     36641     36633     36636     36639     36642
     36634     36633     36636     36637     36634     36633     36636     36638
     36634     36633     36636     36639     36635     36633     36636     36637
     36635     36633     36636     36638     36635     36633     36636     36639
     36636     36639     36642     36643     36636     36639     36642     36644
     36636     36639     36642     36645     36637     36636     36639     36640
     36637     36636     36639     36641     36637     36636     36639     36642
     36638     36636     36639     36640     36638     36636     36639     36641
     36638     36636     36639     36642     36639     36642     36645     36646
     36639     36642     36645     36647     36639     36642     36645     36648
     36640     36639     36642     36643     36640     36639     36642     36644
     36640     36639     36642     36645     36641     36639     36642     36643
     36641     36639     36642     36644     36641     36639     36642     36645
     36643     36642     36645     36646     36643     36642     36645     36647
     36643     36642     36645     36648     36644     36642     36645     36646
     36644     36642     36645     36647     36644     36642     36645     36648
     36649     36653     36656     36657     36649     36653     36656     36658
     36649     36653     36656     36663     36650     36649     36653     36654
     36650     36649     36653     36655     36650     36649     36653     36656
     36651     36649     36653     36654     36651     36649     36653     36655
     36651     36649     36653     36656     36652     36649     36653     36654
     36652     36649     36653     36655     36652     36649     36653     36656
     36653     36656     36663     36659     36654     36653     36656     36657
     36654     36653     36656     36658     36654     36653     36656     36663
     36655     36653     36656     36657     36655     36653     36656     36658
     36655     36653     36656     36663     36656     36663     36659     36660
     36656     36663     36659     36661     36656     36663     36659     36662
     36657     36656     36663     36659     36658     36656     36663     36659
     36659     36662     36664     36665     36659     36662     36664     36666
     36659     36662     36664     36667     36660     36659     36662     36664
     36661     36659     36662     36664     36662     36664     36667     36668
     36662     36664     36667     36669     36662     36664     36667     36675
     36663     36659     36662     36664     36664     36667     36669     36670
     36664     36667     36675     36676     36664     36667     36675     36677
     36664     36667     36675     36678     36665     36664     36667     36668
     36665     36664     36667     36669     36665     36664     36667     36675
     36666     36664     36667     36668     36666     36664     36667     36669
     36666     36664     36667     36675     36667     36669     36670     36671
     36667     36669     36670     36672     36667     36675     36678     36679
     36668     36667     36669     36670     36668     36667     36675     36676
     36668     36667     36675     36677     36668     36667     36675     36678
     36669     36667     36675     36676     36669     36667     36675     36677
     36669     36667     36675     36678     36669     36670     36672     36673
     36669     36670     36672     36674     36669     36670     36672     36684
     36670     36669     36667     36675     36670     36672     36684     36685
     36670     36672     36684     36686     36670     36672     36684     36687
     36671     36670     36672     36673     36671     36670     36672     36674
     36671     36670     36672     36684     36672     36684     36687     36688
     36672     36684     36687     36689     36672     36684     36687     36690
     36673     36672     36684     36685     36673     36672     36684     36686
     36673     36672     36684     36687     36674     36672     36684     36685
     36674     36672     36684     36686     36674     36672     36684     36687
     36675     36678     36679     36680     36675     36678     36679     36681
     36676     36675     36678     36679     36677     36675     36678     36679
     36678     36679     36681     36682     36678     36679     36681     36683
     36678     36679     36681     36731     36679     36681     36731     36732
     36679     36681     36731     36733     36679     36681     36731     36734
     36680     36679     36681     36682     36680     36679     36681     36683
     36680     36679     36681     36731     36681     36731     36734     36735
     36681     36731     36734     36736     36681     36731     36734     36737
     36682     36681     36731     36732     36682     36681     36731     36733
     36682     36681     36731     36734     36683     36681     36731     36732
     36683     36681     36731     36733     36683     36681     36731     36734
     36684     36687     36690     36691     36684     36687     36690     36692
     36684     36687     36690     36693     36685     36684     36687     36688
     36685     36684     36687     36689     36685     36684     36687     36690
     36686     36684     36687     36688     36686     36684     36687     36689
     36686     36684     36687     36690     36687     36690     36693     36694
     36687     36690     36693     36695     36687     36690     36693     36696
     36688     36687     36690     36691     36688     36687     36690     36692
     36688     36687     36690     36693     36689     36687     36690     36691
     36689     36687     36690     36692     36689     36687     36690     36693
     36690     36693     36696     36697     36690     36693     36696     36698
     36690     36693     36696     36699     36691     36690     36693     36694
     36691     36690     36693     36695     36691     36690     36693     36696
     36692     36690     36693     36694     36692     36690     36693     36695
     36692     36690     36693     36696     36693     36696     36699     36700
     36693     36696     36699     36701     36693     36696     36699     36702
     36694     36693     36696     36697     36694     36693     36696     36698
     36694     36693     36696     36699     36695     36693     36696     36697
     36695     36693     36696     36698     36695     36693     36696     36699
     36696     36699     36702     36703     36696     36699     36702     36704
     36697     36696     36699     36700     36697     36696     36699     36701
     36697     36696     36699     36702     36698     36696     36699     36700
     36698     36696     36699     36701     36698     36696     36699     36702
     36699     36702     36704     36705     36699     36702     36704     36706
     36700     36699     36702     36703     36700     36699     36702     36704
     36701     36699     36702     36703     36701     36699     36702     36704
     36702     36704     36706     36707     36702     36704     36706     36708
     36702     36704     36706     36709     36703     36702     36704     36705
     36703     36702     36704     36706     36704     36706     36709     36710
     36704     36706     36709     36711     36704     36706     36709     36712
     36705     36704     36706     36707     36705     36704     36706     36708
     36705     36704     36706     36709     36706     36709     36712     36713
     36706     36709     36712     36714     36706     36709     36712     36715
     36707     36706     36709     36710     36707     36706     36709     36711
     36707     36706     36709     36712     36708     36706     36709     36710
     36708     36706     36709     36711     36708     36706     36709     36712
     36709     36712     36715     36716     36709     36712     36715     36717
     36709     36712     36715     36718     36710     36709     36712     36713
     36710     36709     36712     36714     36710     36709     36712     36715
     36711     36709     36712     36713     36711     36709     36712     36714
     36711     36709     36712     36715     36712     36715     36718     36719
     36712     36715     36718     36720     36712     36715     36718     36721
     36713     36712     36715     36716     36713     36712     36715     36717
     36713     36712     36715     36718     36714     36712     36715     36716
     36714     36712     36715     36717     36714     36712     36715     36718
     36715     36718     36721     36722     36715     36718     36721     36723
     36715     36718     36721     36724     36716     36715     36718     36719
     36716     36715     36718     36720     36716     36715     36718     36721
     36717     36715     36718     36719     36717     36715     36718     36720
     36717     36715     36718     36721     36718     36721     36724     36725
     36718     36721     36724     36726     36718     36721     36724     36727
     36719     36718     36721     36722     36719     36718     36721     36723
     36719     36718     36721     36724     36720     36718     36721     36722
     36720     36718     36721     36723     36720     36718     36721     36724
     36721     36724     36727     36728     36721     36724     36727     36729
     36721     36724     36727     36730     36722     36721     36724     36725
     36722     36721     36724     36726     36722     36721     36724     36727
     36723     36721     36724     36725     36723     36721     36724     36726
     36723     36721     36724     36727     36725     36724     36727     36728
     36725     36724     36727     36729     36725     36724     36727     36730
     36726     36724     36727     36728     36726     36724     36727     36729
     36726     36724     36727     36730     36731     36734     36737     36738
     36731     36734     36737     36739     36731     36734     36737     36740
     36732     36731     36734     36735     36732     36731     36734     36736
     36732     36731     36734     36737     36733     36731     36734     36735
     36733     36731     36734     36736     36733     36731     36734     36737
     36734     36737     36740     36741     36734     36737     36740     36742
     36734     36737     36740     36743     36735     36734     36737     36738
     36735     36734     36737     36739     36735     36734     36737     36740
     36736     36734     36737     36738     36736     36734     36737     36739
     36736     36734     36737     36740     36737     36740     36743     36744
     36737     36740     36743     36745     36737     36740     36743     36746
     36738     36737     36740     36741     36738     36737     36740     36742
     36738     36737     36740     36743     36739     36737     36740     36741
     36739     36737     36740     36742     36739     36737     36740     36743
     36740     36743     36746     36747     36740     36743     36746     36748
     36740     36743     36746     36749     36741     36740     36743     36744
     36741     36740     36743     36745     36741     36740     36743     36746
     36742     36740     36743     36744     36742     36740     36743     36745
     36742     36740     36743     36746     36743     36746     36749     36750
     36743     36746     36749     36751     36743     36746     36749     36752
     36744     36743     36746     36747     36744     36743     36746     36748
     36744     36743     36746     36749     36745     36743     36746     36747
     36745     36743     36746     36748     36745     36743     36746     36749
     36746     36749     36752     36753     36746     36749     36752     36754
     36746     36749     36752     36755     36747     36746     36749     36750
     36747     36746     36749     36751     36747     36746     36749     36752
     36748     36746     36749     36750     36748     36746     36749     36751
     36748     36746     36749     36752     36749     36752     36755     36756
     36749     36752     36755     36757     36749     36752     36755     36758
     36750     36749     36752     36753     36750     36749     36752     36754
     36750     36749     36752     36755     36751     36749     36752     36753
     36751     36749     36752     36754     36751     36749     36752     36755
     36752     36755     36758     36759     36752     36755     36758     36760
     36752     36755     36758     36761     36753     36752     36755     36756
     36753     36752     36755     36757     36753     36752     36755     36758
     36754     36752     36755     36756     36754     36752     36755     36757
     36754     36752     36755     36758     36755     36758     36761     36762
     36755     36758     36761     36763     36755     36758     36761     36764
     36756     36755     36758     36759     36756     36755     36758     36760
     36756     36755     36758     36761     36757     36755     36758     36759
     36757     36755     36758     36760     36757     36755     36758     36761
     36758     36761     36764     36765     36758     36761     36764     36766
     36758     36761     36764     36767     36759     36758     36761     36762
     36759     36758     36761     36763     36759     36758     36761     36764
     36760     36758     36761     36762     36760     36758     36761     36763
     36760     36758     36761     36764     36761     36764     36767     36768
     36761     36764     36767     36769     36761     36764     36767     36770
     36762     36761     36764     36765     36762     36761     36764     36766
     36762     36761     36764     36767     36763     36761     36764     36765
     36763     36761     36764     36766     36763     36761     36764     36767
     36764     36767     36770     36771     36764     36767     36770     36772
     36764     36767     36770     36773     36765     36764     36767     36768
     36765     36764     36767     36769     36765     36764     36767     36770
     36766     36764     36767     36768     36766     36764     36767     36769
     36766     36764     36767     36770     36768     36767     36770     36771
     36768     36767     36770     36772     36768     36767     36770     36773
     36769     36767     36770     36771     36769     36767     36770     36772
     36769     36767     36770     36773     36774     36778     36781     36782
     36774     36778     36781     36783     36774     36778     36781     36788
     36775     36774     36778     36779     36775     36774     36778     36780
     36775     36774     36778     36781     36776     36774     36778     36779
     36776     36774     36778     36780     36776     36774     36778     36781
     36777     36774     36778     36779     36777     36774     36778     36780
     36777     36774     36778     36781     36778     36781     36788     36784
     36779     36778     36781     36782     36779     36778     36781     36783
     36779     36778     36781     36788     36780     36778     36781     36782
     36780     36778     36781     36783     36780     36778     36781     36788
     36781     36788     36784     36785     36781     36788     36784     36786
     36781     36788     36784     36787     36782     36781     36788     36784
     36783     36781     36788     36784     36784     36787     36789     36790
     36784     36787     36789     36791     36784     36787     36789     36792
     36785     36784     36787     36789     36786     36784     36787     36789
     36787     36789     36792     36793     36787     36789     36792     36794
     36787     36789     36792     36800     36788     36784     36787     36789
     36789     36792     36794     36795     36789     36792     36800     36801
     36789     36792     36800     36802     36789     36792     36800     36803
     36790     36789     36792     36793     36790     36789     36792     36794
     36790     36789     36792     36800     36791     36789     36792     36793
     36791     36789     36792     36794     36791     36789     36792     36800
     36792     36794     36795     36796     36792     36794     36795     36797
     36792     36800     36803     36804     36793     36792     36794     36795
     36793     36792     36800     36801     36793     36792     36800     36802
     36793     36792     36800     36803     36794     36792     36800     36801
     36794     36792     36800     36802     36794     36792     36800     36803
     36794     36795     36797     36798     36794     36795     36797     36799
     36794     36795     36797     36809     36795     36794     36792     36800
     36795     36797     36809     36810     36795     36797     36809     36811
     36795     36797     36809     36812     36796     36795     36797     36798
     36796     36795     36797     36799     36796     36795     36797     36809
     36797     36809     36812     36813     36797     36809     36812     36814
     36797     36809     36812     36815     36798     36797     36809     36810
     36798     36797     36809     36811     36798     36797     36809     36812
     36799     36797     36809     36810     36799     36797     36809     36811
     36799     36797     36809     36812     36800     36803     36804     36805
     36800     36803     36804     36806     36801     36800     36803     36804
     36802     36800     36803     36804     36803     36804     36806     36807
     36803     36804     36806     36808     36803     36804     36806     36856
     36804     36806     36856     36857     36804     36806     36856     36858
     36804     36806     36856     36859     36805     36804     36806     36807
     36805     36804     36806     36808     36805     36804     36806     36856
     36806     36856     36859     36860     36806     36856     36859     36861
     36806     36856     36859     36862     36807     36806     36856     36857
     36807     36806     36856     36858     36807     36806     36856     36859
     36808     36806     36856     36857     36808     36806     36856     36858
     36808     36806     36856     36859     36809     36812     36815     36816
     36809     36812     36815     36817     36809     36812     36815     36818
     36810     36809     36812     36813     36810     36809     36812     36814
     36810     36809     36812     36815     36811     36809     36812     36813
     36811     36809     36812     36814     36811     36809     36812     36815
     36812     36815     36818     36819     36812     36815     36818     36820
     36812     36815     36818     36821     36813     36812     36815     36816
     36813     36812     36815     36817     36813     36812     36815     36818
     36814     36812     36815     36816     36814     36812     36815     36817
     36814     36812     36815     36818     36815     36818     36821     36822
     36815     36818     36821     36823     36815     36818     36821     36824
     36816     36815     36818     36819     36816     36815     36818     36820
     36816     36815     36818     36821     36817     36815     36818     36819
     36817     36815     36818     36820     36817     36815     36818     36821
     36818     36821     36824     36825     36818     36821     36824     36826
     36818     36821     36824     36827     36819     36818     36821     36822
     36819     36818     36821     36823     36819     36818     36821     36824
     36820     36818     36821     36822     36820     36818     36821     36823
     36820     36818     36821     36824     36821     36824     36827     36828
     36821     36824     36827     36829     36822     36821     36824     36825
     36822     36821     36824     36826     36822     36821     36824     36827
     36823     36821     36824     36825     36823     36821     36824     36826
     36823     36821     36824     36827     36824     36827     36829     36830
     36824     36827     36829     36831     36825     36824     36827     36828
     36825     36824     36827     36829     36826     36824     36827     36828
     36826     36824     36827     36829     36827     36829     36831     36832
     36827     36829     36831     36833     36827     36829     36831     36834
     36828     36827     36829     36830     36828     36827     36829     36831
     36829     36831     36834     36835     36829     36831     36834     36836
     36829     36831     36834     36837     36830     36829     36831     36832
     36830     36829     36831     36833     36830     36829     36831     36834
     36831     36834     36837     36838     36831     36834     36837     36839
     36831     36834     36837     36840     36832     36831     36834     36835
     36832     36831     36834     36836     36832     36831     36834     36837
     36833     36831     36834     36835     36833     36831     36834     36836
     36833     36831     36834     36837     36834     36837     36840     36841
     36834     36837     36840     36842     36834     36837     36840     36843
     36835     36834     36837     36838     36835     36834     36837     36839
     36835     36834     36837     36840     36836     36834     36837     36838
     36836     36834     36837     36839     36836     36834     36837     36840
     36837     36840     36843     36844     36837     36840     36843     36845
     36837     36840     36843     36846     36838     36837     36840     36841
     36838     36837     36840     36842     36838     36837     36840     36843
     36839     36837     36840     36841     36839     36837     36840     36842
     36839     36837     36840     36843     36840     36843     36846     36847
     36840     36843     36846     36848     36840     36843     36846     36849
     36841     36840     36843     36844     36841     36840     36843     36845
     36841     36840     36843     36846     36842     36840     36843     36844
     36842     36840     36843     36845     36842     36840     36843     36846
     36843     36846     36849     36850     36843     36846     36849     36851
     36843     36846     36849     36852     36844     36843     36846     36847
     36844     36843     36846     36848     36844     36843     36846     36849
     36845     36843     36846     36847     36845     36843     36846     36848
     36845     36843     36846     36849     36846     36849     36852     36853
     36846     36849     36852     36854     36846     36849     36852     36855
     36847     36846     36849     36850     36847     36846     36849     36851
     36847     36846     36849     36852     36848     36846     36849     36850
     36848     36846     36849     36851     36848     36846     36849     36852
     36850     36849     36852     36853     36850     36849     36852     36854
     36850     36849     36852     36855     36851     36849     36852     36853
     36851     36849     36852     36854     36851     36849     36852     36855
     36856     36859     36862     36863     36856     36859     36862     36864
     36856     36859     36862     36865     36857     36856     36859     36860
     36857     36856     36859     36861     36857     36856     36859     36862
     36858     36856     36859     36860     36858     36856     36859     36861
     36858     36856     36859     36862     36859     36862     36865     36866
     36859     36862     36865     36867     36859     36862     36865     36868
     36860     36859     36862     36863     36860     36859     36862     36864
     36860     36859     36862     36865     36861     36859     36862     36863
     36861     36859     36862     36864     36861     36859     36862     36865
     36862     36865     36868     36869     36862     36865     36868     36870
     36862     36865     36868     36871     36863     36862     36865     36866
     36863     36862     36865     36867     36863     36862     36865     36868
     36864     36862     36865     36866     36864     36862     36865     36867
     36864     36862     36865     36868     36865     36868     36871     36872
     36865     36868     36871     36873     36865     36868     36871     36874
     36866     36865     36868     36869     36866     36865     36868     36870
     36866     36865     36868     36871     36867     36865     36868     36869
     36867     36865     36868     36870     36867     36865     36868     36871
     36868     36871     36874     36875     36868     36871     36874     36876
     36868     36871     36874     36877     36869     36868     36871     36872
     36869     36868     36871     36873     36869     36868     36871     36874
     36870     36868     36871     36872     36870     36868     36871     36873
     36870     36868     36871     36874     36871     36874     36877     36878
     36871     36874     36877     36879     36871     36874     36877     36880
     36872     36871     36874     36875     36872     36871     36874     36876
     36872     36871     36874     36877     36873     36871     36874     36875
     36873     36871     36874     36876     36873     36871     36874     36877
     36874     36877     36880     36881     36874     36877     36880     36882
     36874     36877     36880     36883     36875     36874     36877     36878
     36875     36874     36877     36879     36875     36874     36877     36880
     36876     36874     36877     36878     36876     36874     36877     36879
     36876     36874     36877     36880     36877     36880     36883     36884
     36877     36880     36883     36885     36877     36880     36883     36886
     36878     36877     36880     36881     36878     36877     36880     36882
     36878     36877     36880     36883     36879     36877     36880     36881
     36879     36877     36880     36882     36879     36877     36880     36883
     36880     36883     36886     36887     36880     36883     36886     36888
     36880     36883     36886     36889     36881     36880     36883     36884
     36881     36880     36883     36885     36881     36880     36883     36886
     36882     36880     36883     36884     36882     36880     36883     36885
     36882     36880     36883     36886     36883     36886     36889     36890
     36883     36886     36889     36891     36883     36886     36889     36892
     36884     36883     36886     36887     36884     36883     36886     36888
     36884     36883     36886     36889     36885     36883     36886     36887
     36885     36883     36886     36888     36885     36883     36886     36889
     36886     36889     36892     36893     36886     36889     36892     36894
     36886     36889     36892     36895     36887     36886     36889     36890
     36887     36886     36889     36891     36887     36886     36889     36892
     36888     36886     36889     36890     36888     36886     36889     36891
     36888     36886     36889     36892     36889     36892     36895     36896
     36889     36892     36895     36897     36889     36892     36895     36898
     36890     36889     36892     36893     36890     36889     36892     36894
     36890     36889     36892     36895     36891     36889     36892     36893
     36891     36889     36892     36894     36891     36889     36892     36895
     36893     36892     36895     36896     36893     36892     36895     36897
     36893     36892     36895     36898     36894     36892     36895     36896
     36894     36892     36895     36897     36894     36892     36895     36898
     36899     36903     36906     36907     36899     36903     36906     36908
     36899     36903     36906     36913     36900     36899     36903     36904
     36900     36899     36903     36905     36900     36899     36903     36906
     36901     36899     36903     36904     36901     36899     36903     36905
     36901     36899     36903     36906     36902     36899     36903     36904
     36902     36899     36903     36905     36902     36899     36903     36906
     36903     36906     36913     36909     36904     36903     36906     36907
     36904     36903     36906     36908     36904     36903     36906     36913
     36905     36903     36906     36907     36905     36903     36906     36908
     36905     36903     36906     36913     36906     36913     36909     36910
     36906     36913     36909     36911     36906     36913     36909     36912
     36907     36906     36913     36909     36908     36906     36913     36909
     36909     36912     36914     36915     36909     36912     36914     36916
     36909     36912     36914     36917     36910     36909     36912     36914
     36911     36909     36912     36914     36912     36914     36917     36918
     36912     36914     36917     36919     36912     36914     36917     36925
     36913     36909     36912     36914     36914     36917     36919     36920
     36914     36917     36925     36926     36914     36917     36925     36927
     36914     36917     36925     36928     36915     36914     36917     36918
     36915     36914     36917     36919     36915     36914     36917     36925
     36916     36914     36917     36918     36916     36914     36917     36919
     36916     36914     36917     36925     36917     36919     36920     36921
     36917     36919     36920     36922     36917     36925     36928     36929
     36918     36917     36919     36920     36918     36917     36925     36926
     36918     36917     36925     36927     36918     36917     36925     36928
     36919     36917     36925     36926     36919     36917     36925     36927
     36919     36917     36925     36928     36919     36920     36922     36923
     36919     36920     36922     36924     36919     36920     36922     36934
     36920     36919     36917     36925     36920     36922     36934     36935
     36920     36922     36934     36936     36920     36922     36934     36937
     36921     36920     36922     36923     36921     36920     36922     36924
     36921     36920     36922     36934     36922     36934     36937     36938
     36922     36934     36937     36939     36922     36934     36937     36940
     36923     36922     36934     36935     36923     36922     36934     36936
     36923     36922     36934     36937     36924     36922     36934     36935
     36924     36922     36934     36936     36924     36922     36934     36937
     36925     36928     36929     36930     36925     36928     36929     36931
     36926     36925     36928     36929     36927     36925     36928     36929
     36928     36929     36931     36932     36928     36929     36931     36933
     36928     36929     36931     36981     36929     36931     36981     36982
     36929     36931     36981     36983     36929     36931     36981     36984
     36930     36929     36931     36932     36930     36929     36931     36933
     36930     36929     36931     36981     36931     36981     36984     36985
     36931     36981     36984     36986     36931     36981     36984     36987
     36932     36931     36981     36982     36932     36931     36981     36983
     36932     36931     36981     36984     36933     36931     36981     36982
     36933     36931     36981     36983     36933     36931     36981     36984
     36934     36937     36940     36941     36934     36937     36940     36942
     36934     36937     36940     36943     36935     36934     36937     36938
     36935     36934     36937     36939     36935     36934     36937     36940
     36936     36934     36937     36938     36936     36934     36937     36939
     36936     36934     36937     36940     36937     36940     36943     36944
     36937     36940     36943     36945     36937     36940     36943     36946
     36938     36937     36940     36941     36938     36937     36940     36942
     36938     36937     36940     36943     36939     36937     36940     36941
     36939     36937     36940     36942     36939     36937     36940     36943
     36940     36943     36946     36947     36940     36943     36946     36948
     36940     36943     36946     36949     36941     36940     36943     36944
     36941     36940     36943     36945     36941     36940     36943     36946
     36942     36940     36943     36944     36942     36940     36943     36945
     36942     36940     36943     36946     36943     36946     36949     36950
     36943     36946     36949     36951     36943     36946     36949     36952
     36944     36943     36946     36947     36944     36943     36946     36948
     36944     36943     36946     36949     36945     36943     36946     36947
     36945     36943     36946     36948     36945     36943     36946     36949
     36946     36949     36952     36953     36946     36949     36952     36954
     36947     36946     36949     36950     36947     36946     36949     36951
     36947     36946     36949     36952     36948     36946     36949     36950
     36948     36946     36949     36951     36948     36946     36949     36952
     36949     36952     36954     36955     36949     36952     36954     36956
     36950     36949     36952     36953     36950     36949     36952     36954
     36951     36949     36952     36953     36951     36949     36952     36954
     36952     36954     36956     36957     36952     36954     36956     36958
     36952     36954     36956     36959     36953     36952     36954     36955
     36953     36952     36954     36956     36954     36956     36959     36960
     36954     36956     36959     36961     36954     36956     36959     36962
     36955     36954     36956     36957     36955     36954     36956     36958
     36955     36954     36956     36959     36956     36959     36962     36963
     36956     36959     36962     36964     36956     36959     36962     36965
     36957     36956     36959     36960     36957     36956     36959     36961
     36957     36956     36959     36962     36958     36956     36959     36960
     36958     36956     36959     36961     36958     36956     36959     36962
     36959     36962     36965     36966     36959     36962     36965     36967
     36959     36962     36965     36968     36960     36959     36962     36963
     36960     36959     36962     36964     36960     36959     36962     36965
     36961     36959     36962     36963     36961     36959     36962     36964
     36961     36959     36962     36965     36962     36965     36968     36969
     36962     36965     36968     36970     36962     36965     36968     36971
     36963     36962     36965     36966     36963     36962     36965     36967
     36963     36962     36965     36968     36964     36962     36965     36966
     36964     36962     36965     36967     36964     36962     36965     36968
     36965     36968     36971     36972     36965     36968     36971     36973
     36965     36968     36971     36974     36966     36965     36968     36969
     36966     36965     36968     36970     36966     36965     36968     36971
     36967     36965     36968     36969     36967     36965     36968     36970
     36967     36965     36968     36971     36968     36971     36974     36975
     36968     36971     36974     36976     36968     36971     36974     36977
     36969     36968     36971     36972     36969     36968     36971     36973
     36969     36968     36971     36974     36970     36968     36971     36972
     36970     36968     36971     36973     36970     36968     36971     36974
     36971     36974     36977     36978     36971     36974     36977     36979
     36971     36974     36977     36980     36972     36971     36974     36975
     36972     36971     36974     36976     36972     36971     36974     36977
     36973     36971     36974     36975     36973     36971     36974     36976
     36973     36971     36974     36977     36975     36974     36977     36978
     36975     36974     36977     36979     36975     36974     36977     36980
     36976     36974     36977     36978     36976     36974     36977     36979
     36976     36974     36977     36980     36981     36984     36987     36988
     36981     36984     36987     36989     36981     36984     36987     36990
     36982     36981     36984     36985     36982     36981     36984     36986
     36982     36981     36984     36987     36983     36981     36984     36985
     36983     36981     36984     36986     36983     36981     36984     36987
     36984     36987     36990     36991     36984     36987     36990     36992
     36984     36987     36990     36993     36985     36984     36987     36988
     36985     36984     36987     36989     36985     36984     36987     36990
     36986     36984     36987     36988     36986     36984     36987     36989
     36986     36984     36987     36990     36987     36990     36993     36994
     36987     36990     36993     36995     36987     36990     36993     36996
     36988     36987     36990     36991     36988     36987     36990     36992
     36988     36987     36990     36993     36989     36987     36990     36991
     36989     36987     36990     36992     36989     36987     36990     36993
     36990     36993     36996     36997     36990     36993     36996     36998
     36990     36993     36996     36999     36991     36990     36993     36994
     36991     36990     36993     36995     36991     36990     36993     36996
     36992     36990     36993     36994     36992     36990     36993     36995
     36992     36990     36993     36996     36993     36996     36999     37000
     36993     36996     36999     37001     36993     36996     36999     37002
     36994     36993     36996     36997     36994     36993     36996     36998
     36994     36993     36996     36999     36995     36993     36996     36997
     36995     36993     36996     36998     36995     36993     36996     36999
     36996     36999     37002     37003     36996     36999     37002     37004
     36996     36999     37002     37005     36997     36996     36999     37000
     36997     36996     36999     37001     36997     36996     36999     37002
     36998     36996     36999     37000     36998     36996     36999     37001
     36998     36996     36999     37002     36999     37002     37005     37006
     36999     37002     37005     37007     36999     37002     37005     37008
     37000     36999     37002     37003     37000     36999     37002     37004
     37000     36999     37002     37005     37001     36999     37002     37003
     37001     36999     37002     37004     37001     36999     37002     37005
     37002     37005     37008     37009     37002     37005     37008     37010
     37002     37005     37008     37011     37003     37002     37005     37006
     37003     37002     37005     37007     37003     37002     37005     37008
     37004     37002     37005     37006     37004     37002     37005     37007
     37004     37002     37005     37008     37005     37008     37011     37012
     37005     37008     37011     37013     37005     37008     37011     37014
     37006     37005     37008     37009     37006     37005     37008     37010
     37006     37005     37008     37011     37007     37005     37008     37009
     37007     37005     37008     37010     37007     37005     37008     37011
     37008     37011     37014     37015     37008     37011     37014     37016
     37008     37011     37014     37017     37009     37008     37011     37012
     37009     37008     37011     37013     37009     37008     37011     37014
     37010     37008     37011     37012     37010     37008     37011     37013
     37010     37008     37011     37014     37011     37014     37017     37018
     37011     37014     37017     37019     37011     37014     37017     37020
     37012     37011     37014     37015     37012     37011     37014     37016
     37012     37011     37014     37017     37013     37011     37014     37015
     37013     37011     37014     37016     37013     37011     37014     37017
     37014     37017     37020     37021     37014     37017     37020     37022
     37014     37017     37020     37023     37015     37014     37017     37018
     37015     37014     37017     37019     37015     37014     37017     37020
     37016     37014     37017     37018     37016     37014     37017     37019
     37016     37014     37017     37020     37018     37017     37020     37021
     37018     37017     37020     37022     37018     37017     37020     37023
     37019     37017     37020     37021     37019     37017     37020     37022
     37019     37017     37020     37023     37024     37028     37031     37032
     37024     37028     37031     37033     37024     37028     37031     37038
     37025     37024     37028     37029     37025     37024     37028     37030
     37025     37024     37028     37031     37026     37024     37028     37029
     37026     37024     37028     37030     37026     37024     37028     37031
     37027     37024     37028     37029     37027     37024     37028     37030
     37027     37024     37028     37031     37028     37031     37038     37034
     37029     37028     37031     37032     37029     37028     37031     37033
     37029     37028     37031     37038     37030     37028     37031     37032
     37030     37028     37031     37033     37030     37028     37031     37038
     37031     37038     37034     37035     37031     37038     37034     37036
     37031     37038     37034     37037     37032     37031     37038     37034
     37033     37031     37038     37034     37034     37037     37039     37040
     37034     37037     37039     37041     37034     37037     37039     37042
     37035     37034     37037     37039     37036     37034     37037     37039
     37037     37039     37042     37043     37037     37039     37042     37044
     37037     37039     37042     37050     37038     37034     37037     37039
     37039     37042     37044     37045     37039     37042     37050     37051
     37039     37042     37050     37052     37039     37042     37050     37053
     37040     37039     37042     37043     37040     37039     37042     37044
     37040     37039     37042     37050     37041     37039     37042     37043
     37041     37039     37042     37044     37041     37039     37042     37050
     37042     37044     37045     37046     37042     37044     37045     37047
     37042     37050     37053     37054     37043     37042     37044     37045
     37043     37042     37050     37051     37043     37042     37050     37052
     37043     37042     37050     37053     37044     37042     37050     37051
     37044     37042     37050     37052     37044     37042     37050     37053
     37044     37045     37047     37048     37044     37045     37047     37049
     37044     37045     37047     37059     37045     37044     37042     37050
     37045     37047     37059     37060     37045     37047     37059     37061
     37045     37047     37059     37062     37046     37045     37047     37048
     37046     37045     37047     37049     37046     37045     37047     37059
     37047     37059     37062     37063     37047     37059     37062     37064
     37047     37059     37062     37065     37048     37047     37059     37060
     37048     37047     37059     37061     37048     37047     37059     37062
     37049     37047     37059     37060     37049     37047     37059     37061
     37049     37047     37059     37062     37050     37053     37054     37055
     37050     37053     37054     37056     37051     37050     37053     37054
     37052     37050     37053     37054     37053     37054     37056     37057
     37053     37054     37056     37058     37053     37054     37056     37106
     37054     37056     37106     37107     37054     37056     37106     37108
     37054     37056     37106     37109     37055     37054     37056     37057
     37055     37054     37056     37058     37055     37054     37056     37106
     37056     37106     37109     37110     37056     37106     37109     37111
     37056     37106     37109     37112     37057     37056     37106     37107
     37057     37056     37106     37108     37057     37056     37106     37109
     37058     37056     37106     37107     37058     37056     37106     37108
     37058     37056     37106     37109     37059     37062     37065     37066
     37059     37062     37065     37067     37059     37062     37065     37068
     37060     37059     37062     37063     37060     37059     37062     37064
     37060     37059     37062     37065     37061     37059     37062     37063
     37061     37059     37062     37064     37061     37059     37062     37065
     37062     37065     37068     37069     37062     37065     37068     37070
     37062     37065     37068     37071     37063     37062     37065     37066
     37063     37062     37065     37067     37063     37062     37065     37068
     37064     37062     37065     37066     37064     37062     37065     37067
     37064     37062     37065     37068     37065     37068     37071     37072
     37065     37068     37071     37073     37065     37068     37071     37074
     37066     37065     37068     37069     37066     37065     37068     37070
     37066     37065     37068     37071     37067     37065     37068     37069
     37067     37065     37068     37070     37067     37065     37068     37071
     37068     37071     37074     37075     37068     37071     37074     37076
     37068     37071     37074     37077     37069     37068     37071     37072
     37069     37068     37071     37073     37069     37068     37071     37074
     37070     37068     37071     37072     37070     37068     37071     37073
     37070     37068     37071     37074     37071     37074     37077     37078
     37071     37074     37077     37079     37072     37071     37074     37075
     37072     37071     37074     37076     37072     37071     37074     37077
     37073     37071     37074     37075     37073     37071     37074     37076
     37073     37071     37074     37077     37074     37077     37079     37080
     37074     37077     37079     37081     37075     37074     37077     37078
     37075     37074     37077     37079     37076     37074     37077     37078
     37076     37074     37077     37079     37077     37079     37081     37082
     37077     37079     37081     37083     37077     37079     37081     37084
     37078     37077     37079     37080     37078     37077     37079     37081
     37079     37081     37084     37085     37079     37081     37084     37086
     37079     37081     37084     37087     37080     37079     37081     37082
     37080     37079     37081     37083     37080     37079     37081     37084
     37081     37084     37087     37088     37081     37084     37087     37089
     37081     37084     37087     37090     37082     37081     37084     37085
     37082     37081     37084     37086     37082     37081     37084     37087
     37083     37081     37084     37085     37083     37081     37084     37086
     37083     37081     37084     37087     37084     37087     37090     37091
     37084     37087     37090     37092     37084     37087     37090     37093
     37085     37084     37087     37088     37085     37084     37087     37089
     37085     37084     37087     37090     37086     37084     37087     37088
     37086     37084     37087     37089     37086     37084     37087     37090
     37087     37090     37093     37094     37087     37090     37093     37095
     37087     37090     37093     37096     37088     37087     37090     37091
     37088     37087     37090     37092     37088     37087     37090     37093
     37089     37087     37090     37091     37089     37087     37090     37092
     37089     37087     37090     37093     37090     37093     37096     37097
     37090     37093     37096     37098     37090     37093     37096     37099
     37091     37090     37093     37094     37091     37090     37093     37095
     37091     37090     37093     37096     37092     37090     37093     37094
     37092     37090     37093     37095     37092     37090     37093     37096
     37093     37096     37099     37100     37093     37096     37099     37101
     37093     37096     37099     37102     37094     37093     37096     37097
     37094     37093     37096     37098     37094     37093     37096     37099
     37095     37093     37096     37097     37095     37093     37096     37098
     37095     37093     37096     37099     37096     37099     37102     37103
     37096     37099     37102     37104     37096     37099     37102     37105
     37097     37096     37099     37100     37097     37096     37099     37101
     37097     37096     37099     37102     37098     37096     37099     37100
     37098     37096     37099     37101     37098     37096     37099     37102
     37100     37099     37102     37103     37100     37099     37102     37104
     37100     37099     37102     37105     37101     37099     37102     37103
     37101     37099     37102     37104     37101     37099     37102     37105
     37106     37109     37112     37113     37106     37109     37112     37114
     37106     37109     37112     37115     37107     37106     37109     37110
     37107     37106     37109     37111     37107     37106     37109     37112
     37108     37106     37109     37110     37108     37106     37109     37111
     37108     37106     37109     37112     37109     37112     37115     37116
     37109     37112     37115     37117     37109     37112     37115     37118
     37110     37109     37112     37113     37110     37109     37112     37114
     37110     37109     37112     37115     37111     37109     37112     37113
     37111     37109     37112     37114     37111     37109     37112     37115
     37112     37115     37118     37119     37112     37115     37118     37120
     37112     37115     37118     37121     37113     37112     37115     37116
     37113     37112     37115     37117     37113     37112     37115     37118
     37114     37112     37115     37116     37114     37112     37115     37117
     37114     37112     37115     37118     37115     37118     37121     37122
     37115     37118     37121     37123     37115     37118     37121     37124
     37116     37115     37118     37119     37116     37115     37118     37120
     37116     37115     37118     37121     37117     37115     37118     37119
     37117     37115     37118     37120     37117     37115     37118     37121
     37118     37121     37124     37125     37118     37121     37124     37126
     37118     37121     37124     37127     37119     37118     37121     37122
     37119     37118     37121     37123     37119     37118     37121     37124
     37120     37118     37121     37122     37120     37118     37121     37123
     37120     37118     37121     37124     37121     37124     37127     37128
     37121     37124     37127     37129     37121     37124     37127     37130
     37122     37121     37124     37125     37122     37121     37124     37126
     37122     37121     37124     37127     37123     37121     37124     37125
     37123     37121     37124     37126     37123     37121     37124     37127
     37124     37127     37130     37131     37124     37127     37130     37132
     37124     37127     37130     37133     37125     37124     37127     37128
     37125     37124     37127     37129     37125     37124     37127     37130
     37126     37124     37127     37128     37126     37124     37127     37129
     37126     37124     37127     37130     37127     37130     37133     37134
     37127     37130     37133     37135     37127     37130     37133     37136
     37128     37127     37130     37131     37128     37127     37130     37132
     37128     37127     37130     37133     37129     37127     37130     37131
     37129     37127     37130     37132     37129     37127     37130     37133
     37130     37133     37136     37137     37130     37133     37136     37138
     37130     37133     37136     37139     37131     37130     37133     37134
     37131     37130     37133     37135     37131     37130     37133     37136
     37132     37130     37133     37134     37132     37130     37133     37135
     37132     37130     37133     37136     37133     37136     37139     37140
     37133     37136     37139     37141     37133     37136     37139     37142
     37134     37133     37136     37137     37134     37133     37136     37138
     37134     37133     37136     37139     37135     37133     37136     37137
     37135     37133     37136     37138     37135     37133     37136     37139
     37136     37139     37142     37143     37136     37139     37142     37144
     37136     37139     37142     37145     37137     37136     37139     37140
     37137     37136     37139     37141     37137     37136     37139     37142
     37138     37136     37139     37140     37138     37136     37139     37141
     37138     37136     37139     37142     37139     37142     37145     37146
     37139     37142     37145     37147     37139     37142     37145     37148
     37140     37139     37142     37143     37140     37139     37142     37144
     37140     37139     37142     37145     37141     37139     37142     37143
     37141     37139     37142     37144     37141     37139     37142     37145
     37143     37142     37145     37146     37143     37142     37145     37147
     37143     37142     37145     37148     37144     37142     37145     37146
     37144     37142     37145     37147     37144     37142     37145     37148
     37149     37150     37165     37166     37149     37150     37165     37167
     37149     37150     37165     37171     37150     37149     37153     37154
     37150     37149     37153     37155     37150     37149     37153     37156
     37150     37149     37157     37158     37150     37149     37157     37159
     37150     37149     37157     37160     37150     37149     37161     37162
     37150     37149     37161     37163     37150     37149     37161     37164
     37150     37165     37171     37168     37151     37150     37149     37153
     37151     37150     37149     37157     37151     37150     37149     37161
     37151     37150     37165     37166     37151     37150     37165     37167
     37151     37150     37165     37171     37152     37150     37149     37153
     37152     37150     37149     37157     37152     37150     37149     37161
     37152     37150     37165     37166     37152     37150     37165     37167
     37152     37150     37165     37171     37153     37149     37150     37165
     37153     37149     37157     37158     37153     37149     37157     37159
     37153     37149     37157     37160     37153     37149     37161     37162
     37153     37149     37161     37163     37153     37149     37161     37164
     37154     37153     37149     37157     37154     37153     37149     37161
     37155     37153     37149     37157     37155     37153     37149     37161
     37156     37153     37149     37157     37156     37153     37149     37161
     37157     37149     37150     37165     37157     37149     37161     37162
     37157     37149     37161     37163     37157     37149     37161     37164
     37158     37157     37149     37161     37159     37157     37149     37161
     37160     37157     37149     37161     37161     37149     37150     37165
     37165     37171     37168     37169     37165     37171     37168     37170
     37165     37171     37168     37172     37166     37165     37171     37168
     37167     37165     37171     37168     37168     37172     37173     37174
     37168     37172     37173     37175     37168     37172     37173     37176
     37169     37168     37172     37173     37170     37168     37172     37173
     37171     37168     37172     37173     37172     37173     37176     37177
     37172     37173     37176     37178     37172     37173     37176     37184
     37173     37176     37178     37179     37173     37176     37184     37185
     37173     37176     37184     37186     37173     37176     37184     37187
     37174     37173     37176     37177     37174     37173     37176     37178
     37174     37173     37176     37184     37175     37173     37176     37177
     37175     37173     37176     37178     37175     37173     37176     37184
     37176     37178     37179     37180     37176     37178     37179     37181
     37176     37184     37187     37188     37177     37176     37178     37179
     37177     37176     37184     37185     37177     37176     37184     37186
     37177     37176     37184     37187     37178     37176     37184     37185
     37178     37176     37184     37186     37178     37176     37184     37187
     37178     37179     37181     37182     37178     37179     37181     37183
     37178     37179     37181     37193     37179     37178     37176     37184
     37179     37181     37193     37194     37179     37181     37193     37195
     37179     37181     37193     37196     37180     37179     37181     37182
     37180     37179     37181     37183     37180     37179     37181     37193
     37181     37193     37196     37197     37181     37193     37196     37198
     37181     37193     37196     37199     37182     37181     37193     37194
     37182     37181     37193     37195     37182     37181     37193     37196
     37183     37181     37193     37194     37183     37181     37193     37195
     37183     37181     37193     37196     37184     37187     37188     37189
     37184     37187     37188     37190     37185     37184     37187     37188
     37186     37184     37187     37188     37187     37188     37190     37191
     37187     37188     37190     37192     37187     37188     37190     37240
     37188     37190     37240     37241     37188     37190     37240     37242
     37188     37190     37240     37243     37189     37188     37190     37191
     37189     37188     37190     37192     37189     37188     37190     37240
     37190     37240     37243     37244     37190     37240     37243     37245
     37190     37240     37243     37246     37191     37190     37240     37241
     37191     37190     37240     37242     37191     37190     37240     37243
     37192     37190     37240     37241     37192     37190     37240     37242
     37192     37190     37240     37243     37193     37196     37199     37200
     37193     37196     37199     37201     37193     37196     37199     37202
     37194     37193     37196     37197     37194     37193     37196     37198
     37194     37193     37196     37199     37195     37193     37196     37197
     37195     37193     37196     37198     37195     37193     37196     37199
     37196     37199     37202     37203     37196     37199     37202     37204
     37196     37199     37202     37205     37197     37196     37199     37200
     37197     37196     37199     37201     37197     37196     37199     37202
     37198     37196     37199     37200     37198     37196     37199     37201
     37198     37196     37199     37202     37199     37202     37205     37206
     37199     37202     37205     37207     37199     37202     37205     37208
     37200     37199     37202     37203     37200     37199     37202     37204
     37200     37199     37202     37205     37201     37199     37202     37203
     37201     37199     37202     37204     37201     37199     37202     37205
     37202     37205     37208     37209     37202     37205     37208     37210
     37202     37205     37208     37211     37203     37202     37205     37206
     37203     37202     37205     37207     37203     37202     37205     37208
     37204     37202     37205     37206     37204     37202     37205     37207
     37204     37202     37205     37208     37205     37208     37211     37212
     37205     37208     37211     37213     37206     37205     37208     37209
     37206     37205     37208     37210     37206     37205     37208     37211
     37207     37205     37208     37209     37207     37205     37208     37210
     37207     37205     37208     37211     37208     37211     37213     37214
     37208     37211     37213     37215     37209     37208     37211     37212
     37209     37208     37211     37213     37210     37208     37211     37212
     37210     37208     37211     37213     37211     37213     37215     37216
     37211     37213     37215     37217     37211     37213     37215     37218
     37212     37211     37213     37214     37212     37211     37213     37215
     37213     37215     37218     37219     37213     37215     37218     37220
     37213     37215     37218     37221     37214     37213     37215     37216
     37214     37213     37215     37217     37214     37213     37215     37218
     37215     37218     37221     37222     37215     37218     37221     37223
     37215     37218     37221     37224     37216     37215     37218     37219
     37216     37215     37218     37220     37216     37215     37218     37221
     37217     37215     37218     37219     37217     37215     37218     37220
     37217     37215     37218     37221     37218     37221     37224     37225
     37218     37221     37224     37226     37218     37221     37224     37227
     37219     37218     37221     37222     37219     37218     37221     37223
     37219     37218     37221     37224     37220     37218     37221     37222
     37220     37218     37221     37223     37220     37218     37221     37224
     37221     37224     37227     37228     37221     37224     37227     37229
     37221     37224     37227     37230     37222     37221     37224     37225
     37222     37221     37224     37226     37222     37221     37224     37227
     37223     37221     37224     37225     37223     37221     37224     37226
     37223     37221     37224     37227     37224     37227     37230     37231
     37224     37227     37230     37232     37224     37227     37230     37233
     37225     37224     37227     37228     37225     37224     37227     37229
     37225     37224     37227     37230     37226     37224     37227     37228
     37226     37224     37227     37229     37226     37224     37227     37230
     37227     37230     37233     37234     37227     37230     37233     37235
     37227     37230     37233     37236     37228     37227     37230     37231
     37228     37227     37230     37232     37228     37227     37230     37233
     37229     37227     37230     37231     37229     37227     37230     37232
     37229     37227     37230     37233     37230     37233     37236     37237
     37230     37233     37236     37238     37230     37233     37236     37239
     37231     37230     37233     37234     37231     37230     37233     37235
     37231     37230     37233     37236     37232     37230     37233     37234
     37232     37230     37233     37235     37232     37230     37233     37236
     37234     37233     37236     37237     37234     37233     37236     37238
     37234     37233     37236     37239     37235     37233     37236     37237
     37235     37233     37236     37238     37235     37233     37236     37239
     37240     37243     37246     37247     37240     37243     37246     37248
     37240     37243     37246     37249     37241     37240     37243     37244
     37241     37240     37243     37245     37241     37240     37243     37246
     37242     37240     37243     37244     37242     37240     37243     37245
     37242     37240     37243     37246     37243     37246     37249     37250
     37243     37246     37249     37251     37243     37246     37249     37252
     37244     37243     37246     37247     37244     37243     37246     37248
     37244     37243     37246     37249     37245     37243     37246     37247
     37245     37243     37246     37248     37245     37243     37246     37249
     37246     37249     37252     37253     37246     37249     37252     37254
     37246     37249     37252     37255     37247     37246     37249     37250
     37247     37246     37249     37251     37247     37246     37249     37252
     37248     37246     37249     37250     37248     37246     37249     37251
     37248     37246     37249     37252     37249     37252     37255     37256
     37249     37252     37255     37257     37249     37252     37255     37258
     37250     37249     37252     37253     37250     37249     37252     37254
     37250     37249     37252     37255     37251     37249     37252     37253
     37251     37249     37252     37254     37251     37249     37252     37255
     37252     37255     37258     37259     37252     37255     37258     37260
     37252     37255     37258     37261     37253     37252     37255     37256
     37253     37252     37255     37257     37253     37252     37255     37258
     37254     37252     37255     37256     37254     37252     37255     37257
     37254     37252     37255     37258     37255     37258     37261     37262
     37255     37258     37261     37263     37255     37258     37261     37264
     37256     37255     37258     37259     37256     37255     37258     37260
     37256     37255     37258     37261     37257     37255     37258     37259
     37257     37255     37258     37260     37257     37255     37258     37261
     37258     37261     37264     37265     37258     37261     37264     37266
     37258     37261     37264     37267     37259     37258     37261     37262
     37259     37258     37261     37263     37259     37258     37261     37264
     37260     37258     37261     37262     37260     37258     37261     37263
     37260     37258     37261     37264     37261     37264     37267     37268
     37261     37264     37267     37269     37261     37264     37267     37270
     37262     37261     37264     37265     37262     37261     37264     37266
     37262     37261     37264     37267     37263     37261     37264     37265
     37263     37261     37264     37266     37263     37261     37264     37267
     37264     37267     37270     37271     37264     37267     37270     37272
     37264     37267     37270     37273     37265     37264     37267     37268
     37265     37264     37267     37269     37265     37264     37267     37270
     37266     37264     37267     37268     37266     37264     37267     37269
     37266     37264     37267     37270     37267     37270     37273     37274
     37267     37270     37273     37275     37267     37270     37273     37276
     37268     37267     37270     37271     37268     37267     37270     37272
     37268     37267     37270     37273     37269     37267     37270     37271
     37269     37267     37270     37272     37269     37267     37270     37273
     37270     37273     37276     37277     37270     37273     37276     37278
     37270     37273     37276     37279     37271     37270     37273     37274
     37271     37270     37273     37275     37271     37270     37273     37276
     37272     37270     37273     37274     37272     37270     37273     37275
     37272     37270     37273     37276     37273     37276     37279     37280
     37273     37276     37279     37281     37273     37276     37279     37282
     37274     37273     37276     37277     37274     37273     37276     37278
     37274     37273     37276     37279     37275     37273     37276     37277
     37275     37273     37276     37278     37275     37273     37276     37279
     37277     37276     37279     37280     37277     37276     37279     37281
     37277     37276     37279     37282     37278     37276     37279     37280
     37278     37276     37279     37281     37278     37276     37279     37282
     37283     37287     37290     37291     37283     37287     37290     37292
     37283     37287     37290     37297     37284     37283     37287     37288
     37284     37283     37287     37289     37284     37283     37287     37290
     37285     37283     37287     37288     37285     37283     37287     37289
     37285     37283     37287     37290     37286     37283     37287     37288
     37286     37283     37287     37289     37286     37283     37287     37290
     37287     37290     37297     37293     37288     37287     37290     37291
     37288     37287     37290     37292     37288     37287     37290     37297
     37289     37287     37290     37291     37289     37287     37290     37292
     37289     37287     37290     37297     37290     37297     37293     37294
     37290     37297     37293     37295     37290     37297     37293     37296
     37291     37290     37297     37293     37292     37290     37297     37293
     37293     37296     37298     37299     37293     37296     37298     37300
     37293     37296     37298     37301     37294     37293     37296     37298
     37295     37293     37296     37298     37296     37298     37301     37302
     37296     37298     37301     37303     37296     37298     37301     37309
     37297     37293     37296     37298     37298     37301     37303     37304
     37298     37301     37309     37310     37298     37301     37309     37311
     37298     37301     37309     37312     37299     37298     37301     37302
     37299     37298     37301     37303     37299     37298     37301     37309
     37300     37298     37301     37302     37300     37298     37301     37303
     37300     37298     37301     37309     37301     37303     37304     37305
     37301     37303     37304     37306     37301     37309     37312     37313
     37302     37301     37303     37304     37302     37301     37309     37310
     37302     37301     37309     37311     37302     37301     37309     37312
     37303     37301     37309     37310     37303     37301     37309     37311
     37303     37301     37309     37312     37303     37304     37306     37307
     37303     37304     37306     37308     37303     37304     37306     37318
     37304     37303     37301     37309     37304     37306     37318     37319
     37304     37306     37318     37320     37304     37306     37318     37321
     37305     37304     37306     37307     37305     37304     37306     37308
     37305     37304     37306     37318     37306     37318     37321     37322
     37306     37318     37321     37323     37306     37318     37321     37324
     37307     37306     37318     37319     37307     37306     37318     37320
     37307     37306     37318     37321     37308     37306     37318     37319
     37308     37306     37318     37320     37308     37306     37318     37321
     37309     37312     37313     37314     37309     37312     37313     37315
     37310     37309     37312     37313     37311     37309     37312     37313
     37312     37313     37315     37316     37312     37313     37315     37317
     37312     37313     37315     37365     37313     37315     37365     37366
     37313     37315     37365     37367     37313     37315     37365     37368
     37314     37313     37315     37316     37314     37313     37315     37317
     37314     37313     37315     37365     37315     37365     37368     37369
     37315     37365     37368     37370     37315     37365     37368     37371
     37316     37315     37365     37366     37316     37315     37365     37367
     37316     37315     37365     37368     37317     37315     37365     37366
     37317     37315     37365     37367     37317     37315     37365     37368
     37318     37321     37324     37325     37318     37321     37324     37326
     37318     37321     37324     37327     37319     37318     37321     37322
     37319     37318     37321     37323     37319     37318     37321     37324
     37320     37318     37321     37322     37320     37318     37321     37323
     37320     37318     37321     37324     37321     37324     37327     37328
     37321     37324     37327     37329     37321     37324     37327     37330
     37322     37321     37324     37325     37322     37321     37324     37326
     37322     37321     37324     37327     37323     37321     37324     37325
     37323     37321     37324     37326     37323     37321     37324     37327
     37324     37327     37330     37331     37324     37327     37330     37332
     37324     37327     37330     37333     37325     37324     37327     37328
     37325     37324     37327     37329     37325     37324     37327     37330
     37326     37324     37327     37328     37326     37324     37327     37329
     37326     37324     37327     37330     37327     37330     37333     37334
     37327     37330     37333     37335     37327     37330     37333     37336
     37328     37327     37330     37331     37328     37327     37330     37332
     37328     37327     37330     37333     37329     37327     37330     37331
     37329     37327     37330     37332     37329     37327     37330     37333
     37330     37333     37336     37337     37330     37333     37336     37338
     37331     37330     37333     37334     37331     37330     37333     37335
     37331     37330     37333     37336     37332     37330     37333     37334
     37332     37330     37333     37335     37332     37330     37333     37336
     37333     37336     37338     37339     37333     37336     37338     37340
     37334     37333     37336     37337     37334     37333     37336     37338
     37335     37333     37336     37337     37335     37333     37336     37338
     37336     37338     37340     37341     37336     37338     37340     37342
     37336     37338     37340     37343     37337     37336     37338     37339
     37337     37336     37338     37340     37338     37340     37343     37344
     37338     37340     37343     37345     37338     37340     37343     37346
     37339     37338     37340     37341     37339     37338     37340     37342
     37339     37338     37340     37343     37340     37343     37346     37347
     37340     37343     37346     37348     37340     37343     37346     37349
     37341     37340     37343     37344     37341     37340     37343     37345
     37341     37340     37343     37346     37342     37340     37343     37344
     37342     37340     37343     37345     37342     37340     37343     37346
     37343     37346     37349     37350     37343     37346     37349     37351
     37343     37346     37349     37352     37344     37343     37346     37347
     37344     37343     37346     37348     37344     37343     37346     37349
     37345     37343     37346     37347     37345     37343     37346     37348
     37345     37343     37346     37349     37346     37349     37352     37353
     37346     37349     37352     37354     37346     37349     37352     37355
     37347     37346     37349     37350     37347     37346     37349     37351
     37347     37346     37349     37352     37348     37346     37349     37350
     37348     37346     37349     37351     37348     37346     37349     37352
     37349     37352     37355     37356     37349     37352     37355     37357
     37349     37352     37355     37358     37350     37349     37352     37353
     37350     37349     37352     37354     37350     37349     37352     37355
     37351     37349     37352     37353     37351     37349     37352     37354
     37351     37349     37352     37355     37352     37355     37358     37359
     37352     37355     37358     37360     37352     37355     37358     37361
     37353     37352     37355     37356     37353     37352     37355     37357
     37353     37352     37355     37358     37354     37352     37355     37356
     37354     37352     37355     37357     37354     37352     37355     37358
     37355     37358     37361     37362     37355     37358     37361     37363
     37355     37358     37361     37364     37356     37355     37358     37359
     37356     37355     37358     37360     37356     37355     37358     37361
     37357     37355     37358     37359     37357     37355     37358     37360
     37357     37355     37358     37361     37359     37358     37361     37362
     37359     37358     37361     37363     37359     37358     37361     37364
     37360     37358     37361     37362     37360     37358     37361     37363
     37360     37358     37361     37364     37365     37368     37371     37372
     37365     37368     37371     37373     37365     37368     37371     37374
     37366     37365     37368     37369     37366     37365     37368     37370
     37366     37365     37368     37371     37367     37365     37368     37369
     37367     37365     37368     37370     37367     37365     37368     37371
     37368     37371     37374     37375     37368     37371     37374     37376
     37368     37371     37374     37377     37369     37368     37371     37372
     37369     37368     37371     37373     37369     37368     37371     37374
     37370     37368     37371     37372     37370     37368     37371     37373
     37370     37368     37371     37374     37371     37374     37377     37378
     37371     37374     37377     37379     37371     37374     37377     37380
     37372     37371     37374     37375     37372     37371     37374     37376
     37372     37371     37374     37377     37373     37371     37374     37375
     37373     37371     37374     37376     37373     37371     37374     37377
     37374     37377     37380     37381     37374     37377     37380     37382
     37374     37377     37380     37383     37375     37374     37377     37378
     37375     37374     37377     37379     37375     37374     37377     37380
     37376     37374     37377     37378     37376     37374     37377     37379
     37376     37374     37377     37380     37377     37380     37383     37384
     37377     37380     37383     37385     37377     37380     37383     37386
     37378     37377     37380     37381     37378     37377     37380     37382
     37378     37377     37380     37383     37379     37377     37380     37381
     37379     37377     37380     37382     37379     37377     37380     37383
     37380     37383     37386     37387     37380     37383     37386     37388
     37380     37383     37386     37389     37381     37380     37383     37384
     37381     37380     37383     37385     37381     37380     37383     37386
     37382     37380     37383     37384     37382     37380     37383     37385
     37382     37380     37383     37386     37383     37386     37389     37390
     37383     37386     37389     37391     37383     37386     37389     37392
     37384     37383     37386     37387     37384     37383     37386     37388
     37384     37383     37386     37389     37385     37383     37386     37387
     37385     37383     37386     37388     37385     37383     37386     37389
     37386     37389     37392     37393     37386     37389     37392     37394
     37386     37389     37392     37395     37387     37386     37389     37390
     37387     37386     37389     37391     37387     37386     37389     37392
     37388     37386     37389     37390     37388     37386     37389     37391
     37388     37386     37389     37392     37389     37392     37395     37396
     37389     37392     37395     37397     37389     37392     37395     37398
     37390     37389     37392     37393     37390     37389     37392     37394
     37390     37389     37392     37395     37391     37389     37392     37393
     37391     37389     37392     37394     37391     37389     37392     37395
     37392     37395     37398     37399     37392     37395     37398     37400
     37392     37395     37398     37401     37393     37392     37395     37396
     37393     37392     37395     37397     37393     37392     37395     37398
     37394     37392     37395     37396     37394     37392     37395     37397
     37394     37392     37395     37398     37395     37398     37401     37402
     37395     37398     37401     37403     37395     37398     37401     37404
     37396     37395     37398     37399     37396     37395     37398     37400
     37396     37395     37398     37401     37397     37395     37398     37399
     37397     37395     37398     37400     37397     37395     37398     37401
     37398     37401     37404     37405     37398     37401     37404     37406
     37398     37401     37404     37407     37399     37398     37401     37402
     37399     37398     37401     37403     37399     37398     37401     37404
     37400     37398     37401     37402     37400     37398     37401     37403
     37400     37398     37401     37404     37402     37401     37404     37405
     37402     37401     37404     37406     37402     37401     37404     37407
     37403     37401     37404     37405     37403     37401     37404     37406
     37403     37401     37404     37407     37408     37409     37424     37425
     37408     37409     37424     37426     37408     37409     37424     37430
     37409     37408     37412     37413     37409     37408     37412     37414
     37409     37408     37412     37415     37409     37408     37416     37417
     37409     37408     37416     37418     37409     37408     37416     37419
     37409     37408     37420     37421     37409     37408     37420     37422
     37409     37408     37420     37423     37409     37424     37430     37427
     37410     37409     37408     37412     37410     37409     37408     37416
     37410     37409     37408     37420     37410     37409     37424     37425
     37410     37409     37424     37426     37410     37409     37424     37430
     37411     37409     37408     37412     37411     37409     37408     37416
     37411     37409     37408     37420     37411     37409     37424     37425
     37411     37409     37424     37426     37411     37409     37424     37430
     37412     37408     37409     37424     37412     37408     37416     37417
     37412     37408     37416     37418     37412     37408     37416     37419
     37412     37408     37420     37421     37412     37408     37420     37422
     37412     37408     37420     37423     37413     37412     37408     37416
     37413     37412     37408     37420     37414     37412     37408     37416
     37414     37412     37408     37420     37415     37412     37408     37416
     37415     37412     37408     37420     37416     37408     37409     37424
     37416     37408     37420     37421     37416     37408     37420     37422
     37416     37408     37420     37423     37417     37416     37408     37420
     37418     37416     37408     37420     37419     37416     37408     37420
     37420     37408     37409     37424     37424     37430     37427     37428
     37424     37430     37427     37429     37424     37430     37427     37431
     37425     37424     37430     37427     37426     37424     37430     37427
     37427     37431     37432     37433     37427     37431     37432     37434
     37427     37431     37432     37435     37428     37427     37431     37432
     37429     37427     37431     37432     37430     37427     37431     37432
     37431     37432     37435     37436     37431     37432     37435     37437
     37431     37432     37435     37443     37432     37435     37437     37438
     37432     37435     37443     37444     37432     37435     37443     37445
     37432     37435     37443     37446     37433     37432     37435     37436
     37433     37432     37435     37437     37433     37432     37435     37443
     37434     37432     37435     37436     37434     37432     37435     37437
     37434     37432     37435     37443     37435     37437     37438     37439
     37435     37437     37438     37440     37435     37443     37446     37447
     37436     37435     37437     37438     37436     37435     37443     37444
     37436     37435     37443     37445     37436     37435     37443     37446
     37437     37435     37443     37444     37437     37435     37443     37445
     37437     37435     37443     37446     37437     37438     37440     37441
     37437     37438     37440     37442     37437     37438     37440     37452
     37438     37437     37435     37443     37438     37440     37452     37453
     37438     37440     37452     37454     37438     37440     37452     37455
     37439     37438     37440     37441     37439     37438     37440     37442
     37439     37438     37440     37452     37440     37452     37455     37456
     37440     37452     37455     37457     37440     37452     37455     37458
     37441     37440     37452     37453     37441     37440     37452     37454
     37441     37440     37452     37455     37442     37440     37452     37453
     37442     37440     37452     37454     37442     37440     37452     37455
     37443     37446     37447     37448     37443     37446     37447     37449
     37444     37443     37446     37447     37445     37443     37446     37447
     37446     37447     37449     37450     37446     37447     37449     37451
     37446     37447     37449     37499     37447     37449     37499     37500
     37447     37449     37499     37501     37447     37449     37499     37502
     37448     37447     37449     37450     37448     37447     37449     37451
     37448     37447     37449     37499     37449     37499     37502     37503
     37449     37499     37502     37504     37449     37499     37502     37505
     37450     37449     37499     37500     37450     37449     37499     37501
     37450     37449     37499     37502     37451     37449     37499     37500
     37451     37449     37499     37501     37451     37449     37499     37502
     37452     37455     37458     37459     37452     37455     37458     37460
     37452     37455     37458     37461     37453     37452     37455     37456
     37453     37452     37455     37457     37453     37452     37455     37458
     37454     37452     37455     37456     37454     37452     37455     37457
     37454     37452     37455     37458     37455     37458     37461     37462
     37455     37458     37461     37463     37455     37458     37461     37464
     37456     37455     37458     37459     37456     37455     37458     37460
     37456     37455     37458     37461     37457     37455     37458     37459
     37457     37455     37458     37460     37457     37455     37458     37461
     37458     37461     37464     37465     37458     37461     37464     37466
     37458     37461     37464     37467     37459     37458     37461     37462
     37459     37458     37461     37463     37459     37458     37461     37464
     37460     37458     37461     37462     37460     37458     37461     37463
     37460     37458     37461     37464     37461     37464     37467     37468
     37461     37464     37467     37469     37461     37464     37467     37470
     37462     37461     37464     37465     37462     37461     37464     37466
     37462     37461     37464     37467     37463     37461     37464     37465
     37463     37461     37464     37466     37463     37461     37464     37467
     37464     37467     37470     37471     37464     37467     37470     37472
     37465     37464     37467     37468     37465     37464     37467     37469
     37465     37464     37467     37470     37466     37464     37467     37468
     37466     37464     37467     37469     37466     37464     37467     37470
     37467     37470     37472     37473     37467     37470     37472     37474
     37468     37467     37470     37471     37468     37467     37470     37472
     37469     37467     37470     37471     37469     37467     37470     37472
     37470     37472     37474     37475     37470     37472     37474     37476
     37470     37472     37474     37477     37471     37470     37472     37473
     37471     37470     37472     37474     37472     37474     37477     37478
     37472     37474     37477     37479     37472     37474     37477     37480
     37473     37472     37474     37475     37473     37472     37474     37476
     37473     37472     37474     37477     37474     37477     37480     37481
     37474     37477     37480     37482     37474     37477     37480     37483
     37475     37474     37477     37478     37475     37474     37477     37479
     37475     37474     37477     37480     37476     37474     37477     37478
     37476     37474     37477     37479     37476     37474     37477     37480
     37477     37480     37483     37484     37477     37480     37483     37485
     37477     37480     37483     37486     37478     37477     37480     37481
     37478     37477     37480     37482     37478     37477     37480     37483
     37479     37477     37480     37481     37479     37477     37480     37482
     37479     37477     37480     37483     37480     37483     37486     37487
     37480     37483     37486     37488     37480     37483     37486     37489
     37481     37480     37483     37484     37481     37480     37483     37485
     37481     37480     37483     37486     37482     37480     37483     37484
     37482     37480     37483     37485     37482     37480     37483     37486
     37483     37486     37489     37490     37483     37486     37489     37491
     37483     37486     37489     37492     37484     37483     37486     37487
     37484     37483     37486     37488     37484     37483     37486     37489
     37485     37483     37486     37487     37485     37483     37486     37488
     37485     37483     37486     37489     37486     37489     37492     37493
     37486     37489     37492     37494     37486     37489     37492     37495
     37487     37486     37489     37490     37487     37486     37489     37491
     37487     37486     37489     37492     37488     37486     37489     37490
     37488     37486     37489     37491     37488     37486     37489     37492
     37489     37492     37495     37496     37489     37492     37495     37497
     37489     37492     37495     37498     37490     37489     37492     37493
     37490     37489     37492     37494     37490     37489     37492     37495
     37491     37489     37492     37493     37491     37489     37492     37494
     37491     37489     37492     37495     37493     37492     37495     37496
     37493     37492     37495     37497     37493     37492     37495     37498
     37494     37492     37495     37496     37494     37492     37495     37497
     37494     37492     37495     37498     37499     37502     37505     37506
     37499     37502     37505     37507     37499     37502     37505     37508
     37500     37499     37502     37503     37500     37499     37502     37504
     37500     37499     37502     37505     37501     37499     37502     37503
     37501     37499     37502     37504     37501     37499     37502     37505
     37502     37505     37508     37509     37502     37505     37508     37510
     37502     37505     37508     37511     37503     37502     37505     37506
     37503     37502     37505     37507     37503     37502     37505     37508
     37504     37502     37505     37506     37504     37502     37505     37507
     37504     37502     37505     37508     37505     37508     37511     37512
     37505     37508     37511     37513     37505     37508     37511     37514
     37506     37505     37508     37509     37506     37505     37508     37510
     37506     37505     37508     37511     37507     37505     37508     37509
     37507     37505     37508     37510     37507     37505     37508     37511
     37508     37511     37514     37515     37508     37511     37514     37516
     37508     37511     37514     37517     37509     37508     37511     37512
     37509     37508     37511     37513     37509     37508     37511     37514
     37510     37508     37511     37512     37510     37508     37511     37513
     37510     37508     37511     37514     37511     37514     37517     37518
     37511     37514     37517     37519     37511     37514     37517     37520
     37512     37511     37514     37515     37512     37511     37514     37516
     37512     37511     37514     37517     37513     37511     37514     37515
     37513     37511     37514     37516     37513     37511     37514     37517
     37514     37517     37520     37521     37514     37517     37520     37522
     37514     37517     37520     37523     37515     37514     37517     37518
     37515     37514     37517     37519     37515     37514     37517     37520
     37516     37514     37517     37518     37516     37514     37517     37519
     37516     37514     37517     37520     37517     37520     37523     37524
     37517     37520     37523     37525     37517     37520     37523     37526
     37518     37517     37520     37521     37518     37517     37520     37522
     37518     37517     37520     37523     37519     37517     37520     37521
     37519     37517     37520     37522     37519     37517     37520     37523
     37520     37523     37526     37527     37520     37523     37526     37528
     37520     37523     37526     37529     37521     37520     37523     37524
     37521     37520     37523     37525     37521     37520     37523     37526
     37522     37520     37523     37524     37522     37520     37523     37525
     37522     37520     37523     37526     37523     37526     37529     37530
     37523     37526     37529     37531     37523     37526     37529     37532
     37524     37523     37526     37527     37524     37523     37526     37528
     37524     37523     37526     37529     37525     37523     37526     37527
     37525     37523     37526     37528     37525     37523     37526     37529
     37526     37529     37532     37533     37526     37529     37532     37534
     37526     37529     37532     37535     37527     37526     37529     37530
     37527     37526     37529     37531     37527     37526     37529     37532
     37528     37526     37529     37530     37528     37526     37529     37531
     37528     37526     37529     37532     37529     37532     37535     37536
     37529     37532     37535     37537     37529     37532     37535     37538
     37530     37529     37532     37533     37530     37529     37532     37534
     37530     37529     37532     37535     37531     37529     37532     37533
     37531     37529     37532     37534     37531     37529     37532     37535
     37532     37535     37538     37539     37532     37535     37538     37540
     37532     37535     37538     37541     37533     37532     37535     37536
     37533     37532     37535     37537     37533     37532     37535     37538
     37534     37532     37535     37536     37534     37532     37535     37537
     37534     37532     37535     37538     37536     37535     37538     37539
     37536     37535     37538     37540     37536     37535     37538     37541
     37537     37535     37538     37539     37537     37535     37538     37540
     37537     37535     37538     37541     37542     37543     37558     37559
     37542     37543     37558     37560     37542     37543     37558     37564
     37543     37542     37546     37547     37543     37542     37546     37548
     37543     37542     37546     37549     37543     37542     37550     37551
     37543     37542     37550     37552     37543     37542     37550     37553
     37543     37542     37554     37555     37543     37542     37554     37556
     37543     37542     37554     37557     37543     37558     37564     37561
     37544     37543     37542     37546     37544     37543     37542     37550
     37544     37543     37542     37554     37544     37543     37558     37559
     37544     37543     37558     37560     37544     37543     37558     37564
     37545     37543     37542     37546     37545     37543     37542     37550
     37545     37543     37542     37554     37545     37543     37558     37559
     37545     37543     37558     37560     37545     37543     37558     37564
     37546     37542     37543     37558     37546     37542     37550     37551
     37546     37542     37550     37552     37546     37542     37550     37553
     37546     37542     37554     37555     37546     37542     37554     37556
     37546     37542     37554     37557     37547     37546     37542     37550
     37547     37546     37542     37554     37548     37546     37542     37550
     37548     37546     37542     37554     37549     37546     37542     37550
     37549     37546     37542     37554     37550     37542     37543     37558
     37550     37542     37554     37555     37550     37542     37554     37556
     37550     37542     37554     37557     37551     37550     37542     37554
     37552     37550     37542     37554     37553     37550     37542     37554
     37554     37542     37543     37558     37558     37564     37561     37562
     37558     37564     37561     37563     37558     37564     37561     37565
     37559     37558     37564     37561     37560     37558     37564     37561
     37561     37565     37566     37567     37561     37565     37566     37568
     37561     37565     37566     37569     37562     37561     37565     37566
     37563     37561     37565     37566     37564     37561     37565     37566
     37565     37566     37569     37570     37565     37566     37569     37571
     37565     37566     37569     37577     37566     37569     37571     37572
     37566     37569     37577     37578     37566     37569     37577     37579
     37566     37569     37577     37580     37567     37566     37569     37570
     37567     37566     37569     37571     37567     37566     37569     37577
     37568     37566     37569     37570     37568     37566     37569     37571
     37568     37566     37569     37577     37569     37571     37572     37573
     37569     37571     37572     37574     37569     37577     37580     37581
     37570     37569     37571     37572     37570     37569     37577     37578
     37570     37569     37577     37579     37570     37569     37577     37580
     37571     37569     37577     37578     37571     37569     37577     37579
     37571     37569     37577     37580     37571     37572     37574     37575
     37571     37572     37574     37576     37571     37572     37574     37586
     37572     37571     37569     37577     37572     37574     37586     37587
     37572     37574     37586     37588     37572     37574     37586     37589
     37573     37572     37574     37575     37573     37572     37574     37576
     37573     37572     37574     37586     37574     37586     37589     37590
     37574     37586     37589     37591     37574     37586     37589     37592
     37575     37574     37586     37587     37575     37574     37586     37588
     37575     37574     37586     37589     37576     37574     37586     37587
     37576     37574     37586     37588     37576     37574     37586     37589
     37577     37580     37581     37582     37577     37580     37581     37583
     37578     37577     37580     37581     37579     37577     37580     37581
     37580     37581     37583     37584     37580     37581     37583     37585
     37580     37581     37583     37633     37581     37583     37633     37634
     37581     37583     37633     37635     37581     37583     37633     37636
     37582     37581     37583     37584     37582     37581     37583     37585
     37582     37581     37583     37633     37583     37633     37636     37637
     37583     37633     37636     37638     37583     37633     37636     37639
     37584     37583     37633     37634     37584     37583     37633     37635
     37584     37583     37633     37636     37585     37583     37633     37634
     37585     37583     37633     37635     37585     37583     37633     37636
     37586     37589     37592     37593     37586     37589     37592     37594
     37586     37589     37592     37595     37587     37586     37589     37590
     37587     37586     37589     37591     37587     37586     37589     37592
     37588     37586     37589     37590     37588     37586     37589     37591
     37588     37586     37589     37592     37589     37592     37595     37596
     37589     37592     37595     37597     37589     37592     37595     37598
     37590     37589     37592     37593     37590     37589     37592     37594
     37590     37589     37592     37595     37591     37589     37592     37593
     37591     37589     37592     37594     37591     37589     37592     37595
     37592     37595     37598     37599     37592     37595     37598     37600
     37592     37595     37598     37601     37593     37592     37595     37596
     37593     37592     37595     37597     37593     37592     37595     37598
     37594     37592     37595     37596     37594     37592     37595     37597
     37594     37592     37595     37598     37595     37598     37601     37602
     37595     37598     37601     37603     37595     37598     37601     37604
     37596     37595     37598     37599     37596     37595     37598     37600
     37596     37595     37598     37601     37597     37595     37598     37599
     37597     37595     37598     37600     37597     37595     37598     37601
     37598     37601     37604     37605     37598     37601     37604     37606
     37599     37598     37601     37602     37599     37598     37601     37603
     37599     37598     37601     37604     37600     37598     37601     37602
     37600     37598     37601     37603     37600     37598     37601     37604
     37601     37604     37606     37607     37601     37604     37606     37608
     37602     37601     37604     37605     37602     37601     37604     37606
     37603     37601     37604     37605     37603     37601     37604     37606
     37604     37606     37608     37609     37604     37606     37608     37610
     37604     37606     37608     37611     37605     37604     37606     37607
     37605     37604     37606     37608     37606     37608     37611     37612
     37606     37608     37611     37613     37606     37608     37611     37614
     37607     37606     37608     37609     37607     37606     37608     37610
     37607     37606     37608     37611     37608     37611     37614     37615
     37608     37611     37614     37616     37608     37611     37614     37617
     37609     37608     37611     37612     37609     37608     37611     37613
     37609     37608     37611     37614     37610     37608     37611     37612
     37610     37608     37611     37613     37610     37608     37611     37614
     37611     37614     37617     37618     37611     37614     37617     37619
     37611     37614     37617     37620     37612     37611     37614     37615
     37612     37611     37614     37616     37612     37611     37614     37617
     37613     37611     37614     37615     37613     37611     37614     37616
     37613     37611     37614     37617     37614     37617     37620     37621
     37614     37617     37620     37622     37614     37617     37620     37623
     37615     37614     37617     37618     37615     37614     37617     37619
     37615     37614     37617     37620     37616     37614     37617     37618
     37616     37614     37617     37619     37616     37614     37617     37620
     37617     37620     37623     37624     37617     37620     37623     37625
     37617     37620     37623     37626     37618     37617     37620     37621
     37618     37617     37620     37622     37618     37617     37620     37623
     37619     37617     37620     37621     37619     37617     37620     37622
     37619     37617     37620     37623     37620     37623     37626     37627
     37620     37623     37626     37628     37620     37623     37626     37629
     37621     37620     37623     37624     37621     37620     37623     37625
     37621     37620     37623     37626     37622     37620     37623     37624
     37622     37620     37623     37625     37622     37620     37623     37626
     37623     37626     37629     37630     37623     37626     37629     37631
     37623     37626     37629     37632     37624     37623     37626     37627
     37624     37623     37626     37628     37624     37623     37626     37629
     37625     37623     37626     37627     37625     37623     37626     37628
     37625     37623     37626     37629     37627     37626     37629     37630
     37627     37626     37629     37631     37627     37626     37629     37632
     37628     37626     37629     37630     37628     37626     37629     37631
     37628     37626     37629     37632     37633     37636     37639     37640
     37633     37636     37639     37641     37633     37636     37639     37642
     37634     37633     37636     37637     37634     37633     37636     37638
     37634     37633     37636     37639     37635     37633     37636     37637
     37635     37633     37636     37638     37635     37633     37636     37639
     37636     37639     37642     37643     37636     37639     37642     37644
     37636     37639     37642     37645     37637     37636     37639     37640
     37637     37636     37639     37641     37637     37636     37639     37642
     37638     37636     37639     37640     37638     37636     37639     37641
     37638     37636     37639     37642     37639     37642     37645     37646
     37639     37642     37645     37647     37639     37642     37645     37648
     37640     37639     37642     37643     37640     37639     37642     37644
     37640     37639     37642     37645     37641     37639     37642     37643
     37641     37639     37642     37644     37641     37639     37642     37645
     37642     37645     37648     37649     37642     37645     37648     37650
     37642     37645     37648     37651     37643     37642     37645     37646
     37643     37642     37645     37647     37643     37642     37645     37648
     37644     37642     37645     37646     37644     37642     37645     37647
     37644     37642     37645     37648     37645     37648     37651     37652
     37645     37648     37651     37653     37645     37648     37651     37654
     37646     37645     37648     37649     37646     37645     37648     37650
     37646     37645     37648     37651     37647     37645     37648     37649
     37647     37645     37648     37650     37647     37645     37648     37651
     37648     37651     37654     37655     37648     37651     37654     37656
     37648     37651     37654     37657     37649     37648     37651     37652
     37649     37648     37651     37653     37649     37648     37651     37654
     37650     37648     37651     37652     37650     37648     37651     37653
     37650     37648     37651     37654     37651     37654     37657     37658
     37651     37654     37657     37659     37651     37654     37657     37660
     37652     37651     37654     37655     37652     37651     37654     37656
     37652     37651     37654     37657     37653     37651     37654     37655
     37653     37651     37654     37656     37653     37651     37654     37657
     37654     37657     37660     37661     37654     37657     37660     37662
     37654     37657     37660     37663     37655     37654     37657     37658
     37655     37654     37657     37659     37655     37654     37657     37660
     37656     37654     37657     37658     37656     37654     37657     37659
     37656     37654     37657     37660     37657     37660     37663     37664
     37657     37660     37663     37665     37657     37660     37663     37666
     37658     37657     37660     37661     37658     37657     37660     37662
     37658     37657     37660     37663     37659     37657     37660     37661
     37659     37657     37660     37662     37659     37657     37660     37663
     37660     37663     37666     37667     37660     37663     37666     37668
     37660     37663     37666     37669     37661     37660     37663     37664
     37661     37660     37663     37665     37661     37660     37663     37666
     37662     37660     37663     37664     37662     37660     37663     37665
     37662     37660     37663     37666     37663     37666     37669     37670
     37663     37666     37669     37671     37663     37666     37669     37672
     37664     37663     37666     37667     37664     37663     37666     37668
     37664     37663     37666     37669     37665     37663     37666     37667
     37665     37663     37666     37668     37665     37663     37666     37669
     37666     37669     37672     37673     37666     37669     37672     37674
     37666     37669     37672     37675     37667     37666     37669     37670
     37667     37666     37669     37671     37667     37666     37669     37672
     37668     37666     37669     37670     37668     37666     37669     37671
     37668     37666     37669     37672     37670     37669     37672     37673
     37670     37669     37672     37674     37670     37669     37672     37675
     37671     37669     37672     37673     37671     37669     37672     37674
     37671     37669     37672     37675     37676     37677     37692     37693
     37676     37677     37692     37694     37676     37677     37692     37698
     37677     37676     37680     37681     37677     37676     37680     37682
     37677     37676     37680     37683     37677     37676     37684     37685
     37677     37676     37684     37686     37677     37676     37684     37687
     37677     37676     37688     37689     37677     37676     37688     37690
     37677     37676     37688     37691     37677     37692     37698     37695
     37678     37677     37676     37680     37678     37677     37676     37684
     37678     37677     37676     37688     37678     37677     37692     37693
     37678     37677     37692     37694     37678     37677     37692     37698
     37679     37677     37676     37680     37679     37677     37676     37684
     37679     37677     37676     37688     37679     37677     37692     37693
     37679     37677     37692     37694     37679     37677     37692     37698
     37680     37676     37677     37692     37680     37676     37684     37685
     37680     37676     37684     37686     37680     37676     37684     37687
     37680     37676     37688     37689     37680     37676     37688     37690
     37680     37676     37688     37691     37681     37680     37676     37684
     37681     37680     37676     37688     37682     37680     37676     37684
     37682     37680     37676     37688     37683     37680     37676     37684
     37683     37680     37676     37688     37684     37676     37677     37692
     37684     37676     37688     37689     37684     37676     37688     37690
     37684     37676     37688     37691     37685     37684     37676     37688
     37686     37684     37676     37688     37687     37684     37676     37688
     37688     37676     37677     37692     37692     37698     37695     37696
     37692     37698     37695     37697     37692     37698     37695     37699
     37693     37692     37698     37695     37694     37692     37698     37695
     37695     37699     37700     37701     37695     37699     37700     37702
     37695     37699     37700     37703     37696     37695     37699     37700
     37697     37695     37699     37700     37698     37695     37699     37700
     37699     37700     37703     37704     37699     37700     37703     37705
     37699     37700     37703     37711     37700     37703     37705     37706
     37700     37703     37711     37712     37700     37703     37711     37713
     37700     37703     37711     37714     37701     37700     37703     37704
     37701     37700     37703     37705     37701     37700     37703     37711
     37702     37700     37703     37704     37702     37700     37703     37705
     37702     37700     37703     37711     37703     37705     37706     37707
     37703     37705     37706     37708     37703     37711     37714     37715
     37704     37703     37705     37706     37704     37703     37711     37712
     37704     37703     37711     37713     37704     37703     37711     37714
     37705     37703     37711     37712     37705     37703     37711     37713
     37705     37703     37711     37714     37705     37706     37708     37709
     37705     37706     37708     37710     37705     37706     37708     37720
     37706     37705     37703     37711     37706     37708     37720     37721
     37706     37708     37720     37722     37706     37708     37720     37723
     37707     37706     37708     37709     37707     37706     37708     37710
     37707     37706     37708     37720     37708     37720     37723     37724
     37708     37720     37723     37725     37708     37720     37723     37726
     37709     37708     37720     37721     37709     37708     37720     37722
     37709     37708     37720     37723     37710     37708     37720     37721
     37710     37708     37720     37722     37710     37708     37720     37723
     37711     37714     37715     37716     37711     37714     37715     37717
     37712     37711     37714     37715     37713     37711     37714     37715
     37714     37715     37717     37718     37714     37715     37717     37719
     37714     37715     37717     37767     37715     37717     37767     37768
     37715     37717     37767     37769     37715     37717     37767     37770
     37716     37715     37717     37718     37716     37715     37717     37719
     37716     37715     37717     37767     37717     37767     37770     37771
     37717     37767     37770     37772     37717     37767     37770     37773
     37718     37717     37767     37768     37718     37717     37767     37769
     37718     37717     37767     37770     37719     37717     37767     37768
     37719     37717     37767     37769     37719     37717     37767     37770
     37720     37723     37726     37727     37720     37723     37726     37728
     37720     37723     37726     37729     37721     37720     37723     37724
     37721     37720     37723     37725     37721     37720     37723     37726
     37722     37720     37723     37724     37722     37720     37723     37725
     37722     37720     37723     37726     37723     37726     37729     37730
     37723     37726     37729     37731     37723     37726     37729     37732
     37724     37723     37726     37727     37724     37723     37726     37728
     37724     37723     37726     37729     37725     37723     37726     37727
     37725     37723     37726     37728     37725     37723     37726     37729
     37726     37729     37732     37733     37726     37729     37732     37734
     37726     37729     37732     37735     37727     37726     37729     37730
     37727     37726     37729     37731     37727     37726     37729     37732
     37728     37726     37729     37730     37728     37726     37729     37731
     37728     37726     37729     37732     37729     37732     37735     37736
     37729     37732     37735     37737     37729     37732     37735     37738
     37730     37729     37732     37733     37730     37729     37732     37734
     37730     37729     37732     37735     37731     37729     37732     37733
     37731     37729     37732     37734     37731     37729     37732     37735
     37732     37735     37738     37739     37732     37735     37738     37740
     37733     37732     37735     37736     37733     37732     37735     37737
     37733     37732     37735     37738     37734     37732     37735     37736
     37734     37732     37735     37737     37734     37732     37735     37738
     37735     37738     37740     37741     37735     37738     37740     37742
     37736     37735     37738     37739     37736     37735     37738     37740
     37737     37735     37738     37739     37737     37735     37738     37740
     37738     37740     37742     37743     37738     37740     37742     37744
     37738     37740     37742     37745     37739     37738     37740     37741
     37739     37738     37740     37742     37740     37742     37745     37746
     37740     37742     37745     37747     37740     37742     37745     37748
     37741     37740     37742     37743     37741     37740     37742     37744
     37741     37740     37742     37745     37742     37745     37748     37749
     37742     37745     37748     37750     37742     37745     37748     37751
     37743     37742     37745     37746     37743     37742     37745     37747
     37743     37742     37745     37748     37744     37742     37745     37746
     37744     37742     37745     37747     37744     37742     37745     37748
     37745     37748     37751     37752     37745     37748     37751     37753
     37745     37748     37751     37754     37746     37745     37748     37749
     37746     37745     37748     37750     37746     37745     37748     37751
     37747     37745     37748     37749     37747     37745     37748     37750
     37747     37745     37748     37751     37748     37751     37754     37755
     37748     37751     37754     37756     37748     37751     37754     37757
     37749     37748     37751     37752     37749     37748     37751     37753
     37749     37748     37751     37754     37750     37748     37751     37752
     37750     37748     37751     37753     37750     37748     37751     37754
     37751     37754     37757     37758     37751     37754     37757     37759
     37751     37754     37757     37760     37752     37751     37754     37755
     37752     37751     37754     37756     37752     37751     37754     37757
     37753     37751     37754     37755     37753     37751     37754     37756
     37753     37751     37754     37757     37754     37757     37760     37761
     37754     37757     37760     37762     37754     37757     37760     37763
     37755     37754     37757     37758     37755     37754     37757     37759
     37755     37754     37757     37760     37756     37754     37757     37758
     37756     37754     37757     37759     37756     37754     37757     37760
     37757     37760     37763     37764     37757     37760     37763     37765
     37757     37760     37763     37766     37758     37757     37760     37761
     37758     37757     37760     37762     37758     37757     37760     37763
     37759     37757     37760     37761     37759     37757     37760     37762
     37759     37757     37760     37763     37761     37760     37763     37764
     37761     37760     37763     37765     37761     37760     37763     37766
     37762     37760     37763     37764     37762     37760     37763     37765
     37762     37760     37763     37766     37767     37770     37773     37774
     37767     37770     37773     37775     37767     37770     37773     37776
     37768     37767     37770     37771     37768     37767     37770     37772
     37768     37767     37770     37773     37769     37767     37770     37771
     37769     37767     37770     37772     37769     37767     37770     37773
     37770     37773     37776     37777     37770     37773     37776     37778
     37770     37773     37776     37779     37771     37770     37773     37774
     37771     37770     37773     37775     37771     37770     37773     37776
     37772     37770     37773     37774     37772     37770     37773     37775
     37772     37770     37773     37776     37773     37776     37779     37780
     37773     37776     37779     37781     37773     37776     37779     37782
     37774     37773     37776     37777     37774     37773     37776     37778
     37774     37773     37776     37779     37775     37773     37776     37777
     37775     37773     37776     37778     37775     37773     37776     37779
     37776     37779     37782     37783     37776     37779     37782     37784
     37776     37779     37782     37785     37777     37776     37779     37780
     37777     37776     37779     37781     37777     37776     37779     37782
     37778     37776     37779     37780     37778     37776     37779     37781
     37778     37776     37779     37782     37779     37782     37785     37786
     37779     37782     37785     37787     37779     37782     37785     37788
     37780     37779     37782     37783     37780     37779     37782     37784
     37780     37779     37782     37785     37781     37779     37782     37783
     37781     37779     37782     37784     37781     37779     37782     37785
     37782     37785     37788     37789     37782     37785     37788     37790
     37782     37785     37788     37791     37783     37782     37785     37786
     37783     37782     37785     37787     37783     37782     37785     37788
     37784     37782     37785     37786     37784     37782     37785     37787
     37784     37782     37785     37788     37785     37788     37791     37792
     37785     37788     37791     37793     37785     37788     37791     37794
     37786     37785     37788     37789     37786     37785     37788     37790
     37786     37785     37788     37791     37787     37785     37788     37789
     37787     37785     37788     37790     37787     37785     37788     37791
     37788     37791     37794     37795     37788     37791     37794     37796
     37788     37791     37794     37797     37789     37788     37791     37792
     37789     37788     37791     37793     37789     37788     37791     37794
     37790     37788     37791     37792     37790     37788     37791     37793
     37790     37788     37791     37794     37791     37794     37797     37798
     37791     37794     37797     37799     37791     37794     37797     37800
     37792     37791     37794     37795     37792     37791     37794     37796
     37792     37791     37794     37797     37793     37791     37794     37795
     37793     37791     37794     37796     37793     37791     37794     37797
     37794     37797     37800     37801     37794     37797     37800     37802
     37794     37797     37800     37803     37795     37794     37797     37798
     37795     37794     37797     37799     37795     37794     37797     37800
     37796     37794     37797     37798     37796     37794     37797     37799
     37796     37794     37797     37800     37797     37800     37803     37804
     37797     37800     37803     37805     37797     37800     37803     37806
     37798     37797     37800     37801     37798     37797     37800     37802
     37798     37797     37800     37803     37799     37797     37800     37801
     37799     37797     37800     37802     37799     37797     37800     37803
     37800     37803     37806     37807     37800     37803     37806     37808
     37800     37803     37806     37809     37801     37800     37803     37804
     37801     37800     37803     37805     37801     37800     37803     37806
     37802     37800     37803     37804     37802     37800     37803     37805
     37802     37800     37803     37806     37804     37803     37806     37807
     37804     37803     37806     37808     37804     37803     37806     37809
     37805     37803     37806     37807     37805     37803     37806     37808
     37805     37803     37806     37809     37810     37811     37826     37827
     37810     37811     37826     37828     37810     37811     37826     37832
     37811     37810     37814     37815     37811     37810     37814     37816
     37811     37810     37814     37817     37811     37810     37818     37819
     37811     37810     37818     37820     37811     37810     37818     37821
     37811     37810     37822     37823     37811     37810     37822     37824
     37811     37810     37822     37825     37811     37826     37832     37829
     37812     37811     37810     37814     37812     37811     37810     37818
     37812     37811     37810     37822     37812     37811     37826     37827
     37812     37811     37826     37828     37812     37811     37826     37832
     37813     37811     37810     37814     37813     37811     37810     37818
     37813     37811     37810     37822     37813     37811     37826     37827
     37813     37811     37826     37828     37813     37811     37826     37832
     37814     37810     37811     37826     37814     37810     37818     37819
     37814     37810     37818     37820     37814     37810     37818     37821
     37814     37810     37822     37823     37814     37810     37822     37824
     37814     37810     37822     37825     37815     37814     37810     37818
     37815     37814     37810     37822     37816     37814     37810     37818
     37816     37814     37810     37822     37817     37814     37810     37818
     37817     37814     37810     37822     37818     37810     37811     37826
     37818     37810     37822     37823     37818     37810     37822     37824
     37818     37810     37822     37825     37819     37818     37810     37822
     37820     37818     37810     37822     37821     37818     37810     37822
     37822     37810     37811     37826     37826     37832     37829     37830
     37826     37832     37829     37831     37826     37832     37829     37833
     37827     37826     37832     37829     37828     37826     37832     37829
     37829     37833     37834     37835     37829     37833     37834     37836
     37829     37833     37834     37837     37830     37829     37833     37834
     37831     37829     37833     37834     37832     37829     37833     37834
     37833     37834     37837     37838     37833     37834     37837     37839
     37833     37834     37837     37845     37834     37837     37839     37840
     37834     37837     37845     37846     37834     37837     37845     37847
     37834     37837     37845     37848     37835     37834     37837     37838
     37835     37834     37837     37839     37835     37834     37837     37845
     37836     37834     37837     37838     37836     37834     37837     37839
     37836     37834     37837     37845     37837     37839     37840     37841
     37837     37839     37840     37842     37837     37845     37848     37849
     37838     37837     37839     37840     37838     37837     37845     37846
     37838     37837     37845     37847     37838     37837     37845     37848
     37839     37837     37845     37846     37839     37837     37845     37847
     37839     37837     37845     37848     37839     37840     37842     37843
     37839     37840     37842     37844     37839     37840     37842     37854
     37840     37839     37837     37845     37840     37842     37854     37855
     37840     37842     37854     37856     37840     37842     37854     37857
     37841     37840     37842     37843     37841     37840     37842     37844
     37841     37840     37842     37854     37842     37854     37857     37858
     37842     37854     37857     37859     37842     37854     37857     37860
     37843     37842     37854     37855     37843     37842     37854     37856
     37843     37842     37854     37857     37844     37842     37854     37855
     37844     37842     37854     37856     37844     37842     37854     37857
     37845     37848     37849     37850     37845     37848     37849     37851
     37846     37845     37848     37849     37847     37845     37848     37849
     37848     37849     37851     37852     37848     37849     37851     37853
     37848     37849     37851     37901     37849     37851     37901     37902
     37849     37851     37901     37903     37849     37851     37901     37904
     37850     37849     37851     37852     37850     37849     37851     37853
     37850     37849     37851     37901     37851     37901     37904     37905
     37851     37901     37904     37906     37851     37901     37904     37907
     37852     37851     37901     37902     37852     37851     37901     37903
     37852     37851     37901     37904     37853     37851     37901     37902
     37853     37851     37901     37903     37853     37851     37901     37904
     37854     37857     37860     37861     37854     37857     37860     37862
     37854     37857     37860     37863     37855     37854     37857     37858
     37855     37854     37857     37859     37855     37854     37857     37860
     37856     37854     37857     37858     37856     37854     37857     37859
     37856     37854     37857     37860     37857     37860     37863     37864
     37857     37860     37863     37865     37857     37860     37863     37866
     37858     37857     37860     37861     37858     37857     37860     37862
     37858     37857     37860     37863     37859     37857     37860     37861
     37859     37857     37860     37862     37859     37857     37860     37863
     37860     37863     37866     37867     37860     37863     37866     37868
     37860     37863     37866     37869     37861     37860     37863     37864
     37861     37860     37863     37865     37861     37860     37863     37866
     37862     37860     37863     37864     37862     37860     37863     37865
     37862     37860     37863     37866     37863     37866     37869     37870
     37863     37866     37869     37871     37863     37866     37869     37872
     37864     37863     37866     37867     37864     37863     37866     37868
     37864     37863     37866     37869     37865     37863     37866     37867
     37865     37863     37866     37868     37865     37863     37866     37869
     37866     37869     37872     37873     37866     37869     37872     37874
     37867     37866     37869     37870     37867     37866     37869     37871
     37867     37866     37869     37872     37868     37866     37869     37870
     37868     37866     37869     37871     37868     37866     37869     37872
     37869     37872     37874     37875     37869     37872     37874     37876
     37870     37869     37872     37873     37870     37869     37872     37874
     37871     37869     37872     37873     37871     37869     37872     37874
     37872     37874     37876     37877     37872     37874     37876     37878
     37872     37874     37876     37879     37873     37872     37874     37875
     37873     37872     37874     37876     37874     37876     37879     37880
     37874     37876     37879     37881     37874     37876     37879     37882
     37875     37874     37876     37877     37875     37874     37876     37878
     37875     37874     37876     37879     37876     37879     37882     37883
     37876     37879     37882     37884     37876     37879     37882     37885
     37877     37876     37879     37880     37877     37876     37879     37881
     37877     37876     37879     37882     37878     37876     37879     37880
     37878     37876     37879     37881     37878     37876     37879     37882
     37879     37882     37885     37886     37879     37882     37885     37887
     37879     37882     37885     37888     37880     37879     37882     37883
     37880     37879     37882     37884     37880     37879     37882     37885
     37881     37879     37882     37883     37881     37879     37882     37884
     37881     37879     37882     37885     37882     37885     37888     37889
     37882     37885     37888     37890     37882     37885     37888     37891
     37883     37882     37885     37886     37883     37882     37885     37887
     37883     37882     37885     37888     37884     37882     37885     37886
     37884     37882     37885     37887     37884     37882     37885     37888
     37885     37888     37891     37892     37885     37888     37891     37893
     37885     37888     37891     37894     37886     37885     37888     37889
     37886     37885     37888     37890     37886     37885     37888     37891
     37887     37885     37888     37889     37887     37885     37888     37890
     37887     37885     37888     37891     37888     37891     37894     37895
     37888     37891     37894     37896     37888     37891     37894     37897
     37889     37888     37891     37892     37889     37888     37891     37893
     37889     37888     37891     37894     37890     37888     37891     37892
     37890     37888     37891     37893     37890     37888     37891     37894
     37891     37894     37897     37898     37891     37894     37897     37899
     37891     37894     37897     37900     37892     37891     37894     37895
     37892     37891     37894     37896     37892     37891     37894     37897
     37893     37891     37894     37895     37893     37891     37894     37896
     37893     37891     37894     37897     37895     37894     37897     37898
     37895     37894     37897     37899     37895     37894     37897     37900
     37896     37894     37897     37898     37896     37894     37897     37899
     37896     37894     37897     37900     37901     37904     37907     37908
     37901     37904     37907     37909     37901     37904     37907     37910
     37902     37901     37904     37905     37902     37901     37904     37906
     37902     37901     37904     37907     37903     37901     37904     37905
     37903     37901     37904     37906     37903     37901     37904     37907
     37904     37907     37910     37911     37904     37907     37910     37912
     37904     37907     37910     37913     37905     37904     37907     37908
     37905     37904     37907     37909     37905     37904     37907     37910
     37906     37904     37907     37908     37906     37904     37907     37909
     37906     37904     37907     37910     37907     37910     37913     37914
     37907     37910     37913     37915     37907     37910     37913     37916
     37908     37907     37910     37911     37908     37907     37910     37912
     37908     37907     37910     37913     37909     37907     37910     37911
     37909     37907     37910     37912     37909     37907     37910     37913
     37910     37913     37916     37917     37910     37913     37916     37918
     37910     37913     37916     37919     37911     37910     37913     37914
     37911     37910     37913     37915     37911     37910     37913     37916
     37912     37910     37913     37914     37912     37910     37913     37915
     37912     37910     37913     37916     37913     37916     37919     37920
     37913     37916     37919     37921     37913     37916     37919     37922
     37914     37913     37916     37917     37914     37913     37916     37918
     37914     37913     37916     37919     37915     37913     37916     37917
     37915     37913     37916     37918     37915     37913     37916     37919
     37916     37919     37922     37923     37916     37919     37922     37924
     37916     37919     37922     37925     37917     37916     37919     37920
     37917     37916     37919     37921     37917     37916     37919     37922
     37918     37916     37919     37920     37918     37916     37919     37921
     37918     37916     37919     37922     37919     37922     37925     37926
     37919     37922     37925     37927     37919     37922     37925     37928
     37920     37919     37922     37923     37920     37919     37922     37924
     37920     37919     37922     37925     37921     37919     37922     37923
     37921     37919     37922     37924     37921     37919     37922     37925
     37922     37925     37928     37929     37922     37925     37928     37930
     37922     37925     37928     37931     37923     37922     37925     37926
     37923     37922     37925     37927     37923     37922     37925     37928
     37924     37922     37925     37926     37924     37922     37925     37927
     37924     37922     37925     37928     37925     37928     37931     37932
     37925     37928     37931     37933     37925     37928     37931     37934
     37926     37925     37928     37929     37926     37925     37928     37930
     37926     37925     37928     37931     37927     37925     37928     37929
     37927     37925     37928     37930     37927     37925     37928     37931
     37928     37931     37934     37935     37928     37931     37934     37936
     37928     37931     37934     37937     37929     37928     37931     37932
     37929     37928     37931     37933     37929     37928     37931     37934
     37930     37928     37931     37932     37930     37928     37931     37933
     37930     37928     37931     37934     37931     37934     37937     37938
     37931     37934     37937     37939     37931     37934     37937     37940
     37932     37931     37934     37935     37932     37931     37934     37936
     37932     37931     37934     37937     37933     37931     37934     37935
     37933     37931     37934     37936     37933     37931     37934     37937
     37934     37937     37940     37941     37934     37937     37940     37942
     37934     37937     37940     37943     37935     37934     37937     37938
     37935     37934     37937     37939     37935     37934     37937     37940
     37936     37934     37937     37938     37936     37934     37937     37939
     37936     37934     37937     37940     37938     37937     37940     37941
     37938     37937     37940     37942     37938     37937     37940     37943
     37939     37937     37940     37941     37939     37937     37940     37942
     37939     37937     37940     37943     37944     37945     37960     37961
     37944     37945     37960     37962     37944     37945     37960     37966
     37945     37944     37948     37949     37945     37944     37948     37950
     37945     37944     37948     37951     37945     37944     37952     37953
     37945     37944     37952     37954     37945     37944     37952     37955
     37945     37944     37956     37957     37945     37944     37956     37958
     37945     37944     37956     37959     37945     37960     37966     37963
     37946     37945     37944     37948     37946     37945     37944     37952
     37946     37945     37944     37956     37946     37945     37960     37961
     37946     37945     37960     37962     37946     37945     37960     37966
     37947     37945     37944     37948     37947     37945     37944     37952
     37947     37945     37944     37956     37947     37945     37960     37961
     37947     37945     37960     37962     37947     37945     37960     37966
     37948     37944     37945     37960     37948     37944     37952     37953
     37948     37944     37952     37954     37948     37944     37952     37955
     37948     37944     37956     37957     37948     37944     37956     37958
     37948     37944     37956     37959     37949     37948     37944     37952
     37949     37948     37944     37956     37950     37948     37944     37952
     37950     37948     37944     37956     37951     37948     37944     37952
     37951     37948     37944     37956     37952     37944     37945     37960
     37952     37944     37956     37957     37952     37944     37956     37958
     37952     37944     37956     37959     37953     37952     37944     37956
     37954     37952     37944     37956     37955     37952     37944     37956
     37956     37944     37945     37960     37960     37966     37963     37964
     37960     37966     37963     37965     37960     37966     37963     37967
     37961     37960     37966     37963     37962     37960     37966     37963
     37963     37967     37968     37969     37963     37967     37968     37970
     37963     37967     37968     37971     37964     37963     37967     37968
     37965     37963     37967     37968     37966     37963     37967     37968
     37967     37968     37971     37972     37967     37968     37971     37973
     37967     37968     37971     37979     37968     37971     37973     37974
     37968     37971     37979     37980     37968     37971     37979     37981
     37968     37971     37979     37982     37969     37968     37971     37972
     37969     37968     37971     37973     37969     37968     37971     37979
     37970     37968     37971     37972     37970     37968     37971     37973
     37970     37968     37971     37979     37971     37973     37974     37975
     37971     37973     37974     37976     37971     37979     37982     37983
     37972     37971     37973     37974     37972     37971     37979     37980
     37972     37971     37979     37981     37972     37971     37979     37982
     37973     37971     37979     37980     37973     37971     37979     37981
     37973     37971     37979     37982     37973     37974     37976     37977
     37973     37974     37976     37978     37973     37974     37976     37988
     37974     37973     37971     37979     37974     37976     37988     37989
     37974     37976     37988     37990     37974     37976     37988     37991
     37975     37974     37976     37977     37975     37974     37976     37978
     37975     37974     37976     37988     37976     37988     37991     37992
     37976     37988     37991     37993     37976     37988     37991     37994
     37977     37976     37988     37989     37977     37976     37988     37990
     37977     37976     37988     37991     37978     37976     37988     37989
     37978     37976     37988     37990     37978     37976     37988     37991
     37979     37982     37983     37984     37979     37982     37983     37985
     37980     37979     37982     37983     37981     37979     37982     37983
     37982     37983     37985     37986     37982     37983     37985     37987
     37982     37983     37985     38035     37983     37985     38035     38036
     37983     37985     38035     38037     37983     37985     38035     38038
     37984     37983     37985     37986     37984     37983     37985     37987
     37984     37983     37985     38035     37985     38035     38038     38039
     37985     38035     38038     38040     37985     38035     38038     38041
     37986     37985     38035     38036     37986     37985     38035     38037
     37986     37985     38035     38038     37987     37985     38035     38036
     37987     37985     38035     38037     37987     37985     38035     38038
     37988     37991     37994     37995     37988     37991     37994     37996
     37988     37991     37994     37997     37989     37988     37991     37992
     37989     37988     37991     37993     37989     37988     37991     37994
     37990     37988     37991     37992     37990     37988     37991     37993
     37990     37988     37991     37994     37991     37994     37997     37998
     37991     37994     37997     37999     37991     37994     37997     38000
     37992     37991     37994     37995     37992     37991     37994     37996
     37992     37991     37994     37997     37993     37991     37994     37995
     37993     37991     37994     37996     37993     37991     37994     37997
     37994     37997     38000     38001     37994     37997     38000     38002
     37994     37997     38000     38003     37995     37994     37997     37998
     37995     37994     37997     37999     37995     37994     37997     38000
     37996     37994     37997     37998     37996     37994     37997     37999
     37996     37994     37997     38000     37997     38000     38003     38004
     37997     38000     38003     38005     37997     38000     38003     38006
     37998     37997     38000     38001     37998     37997     38000     38002
     37998     37997     38000     38003     37999     37997     38000     38001
     37999     37997     38000     38002     37999     37997     38000     38003
     38000     38003     38006     38007     38000     38003     38006     38008
     38001     38000     38003     38004     38001     38000     38003     38005
     38001     38000     38003     38006     38002     38000     38003     38004
     38002     38000     38003     38005     38002     38000     38003     38006
     38003     38006     38008     38009     38003     38006     38008     38010
     38004     38003     38006     38007     38004     38003     38006     38008
     38005     38003     38006     38007     38005     38003     38006     38008
     38006     38008     38010     38011     38006     38008     38010     38012
     38006     38008     38010     38013     38007     38006     38008     38009
     38007     38006     38008     38010     38008     38010     38013     38014
     38008     38010     38013     38015     38008     38010     38013     38016
     38009     38008     38010     38011     38009     38008     38010     38012
     38009     38008     38010     38013     38010     38013     38016     38017
     38010     38013     38016     38018     38010     38013     38016     38019
     38011     38010     38013     38014     38011     38010     38013     38015
     38011     38010     38013     38016     38012     38010     38013     38014
     38012     38010     38013     38015     38012     38010     38013     38016
     38013     38016     38019     38020     38013     38016     38019     38021
     38013     38016     38019     38022     38014     38013     38016     38017
     38014     38013     38016     38018     38014     38013     38016     38019
     38015     38013     38016     38017     38015     38013     38016     38018
     38015     38013     38016     38019     38016     38019     38022     38023
     38016     38019     38022     38024     38016     38019     38022     38025
     38017     38016     38019     38020     38017     38016     38019     38021
     38017     38016     38019     38022     38018     38016     38019     38020
     38018     38016     38019     38021     38018     38016     38019     38022
     38019     38022     38025     38026     38019     38022     38025     38027
     38019     38022     38025     38028     38020     38019     38022     38023
     38020     38019     38022     38024     38020     38019     38022     38025
     38021     38019     38022     38023     38021     38019     38022     38024
     38021     38019     38022     38025     38022     38025     38028     38029
     38022     38025     38028     38030     38022     38025     38028     38031
     38023     38022     38025     38026     38023     38022     38025     38027
     38023     38022     38025     38028     38024     38022     38025     38026
     38024     38022     38025     38027     38024     38022     38025     38028
     38025     38028     38031     38032     38025     38028     38031     38033
     38025     38028     38031     38034     38026     38025     38028     38029
     38026     38025     38028     38030     38026     38025     38028     38031
     38027     38025     38028     38029     38027     38025     38028     38030
     38027     38025     38028     38031     38029     38028     38031     38032
     38029     38028     38031     38033     38029     38028     38031     38034
     38030     38028     38031     38032     38030     38028     38031     38033
     38030     38028     38031     38034     38035     38038     38041     38042
     38035     38038     38041     38043     38035     38038     38041     38044
     38036     38035     38038     38039     38036     38035     38038     38040
     38036     38035     38038     38041     38037     38035     38038     38039
     38037     38035     38038     38040     38037     38035     38038     38041
     38038     38041     38044     38045     38038     38041     38044     38046
     38038     38041     38044     38047     38039     38038     38041     38042
     38039     38038     38041     38043     38039     38038     38041     38044
     38040     38038     38041     38042     38040     38038     38041     38043
     38040     38038     38041     38044     38041     38044     38047     38048
     38041     38044     38047     38049     38041     38044     38047     38050
     38042     38041     38044     38045     38042     38041     38044     38046
     38042     38041     38044     38047     38043     38041     38044     38045
     38043     38041     38044     38046     38043     38041     38044     38047
     38044     38047     38050     38051     38044     38047     38050     38052
     38044     38047     38050     38053     38045     38044     38047     38048
     38045     38044     38047     38049     38045     38044     38047     38050
     38046     38044     38047     38048     38046     38044     38047     38049
     38046     38044     38047     38050     38047     38050     38053     38054
     38047     38050     38053     38055     38047     38050     38053     38056
     38048     38047     38050     38051     38048     38047     38050     38052
     38048     38047     38050     38053     38049     38047     38050     38051
     38049     38047     38050     38052     38049     38047     38050     38053
     38050     38053     38056     38057     38050     38053     38056     38058
     38050     38053     38056     38059     38051     38050     38053     38054
     38051     38050     38053     38055     38051     38050     38053     38056
     38052     38050     38053     38054     38052     38050     38053     38055
     38052     38050     38053     38056     38053     38056     38059     38060
     38053     38056     38059     38061     38053     38056     38059     38062
     38054     38053     38056     38057     38054     38053     38056     38058
     38054     38053     38056     38059     38055     38053     38056     38057
     38055     38053     38056     38058     38055     38053     38056     38059
     38056     38059     38062     38063     38056     38059     38062     38064
     38056     38059     38062     38065     38057     38056     38059     38060
     38057     38056     38059     38061     38057     38056     38059     38062
     38058     38056     38059     38060     38058     38056     38059     38061
     38058     38056     38059     38062     38059     38062     38065     38066
     38059     38062     38065     38067     38059     38062     38065     38068
     38060     38059     38062     38063     38060     38059     38062     38064
     38060     38059     38062     38065     38061     38059     38062     38063
     38061     38059     38062     38064     38061     38059     38062     38065
     38062     38065     38068     38069     38062     38065     38068     38070
     38062     38065     38068     38071     38063     38062     38065     38066
     38063     38062     38065     38067     38063     38062     38065     38068
     38064     38062     38065     38066     38064     38062     38065     38067
     38064     38062     38065     38068     38065     38068     38071     38072
     38065     38068     38071     38073     38065     38068     38071     38074
     38066     38065     38068     38069     38066     38065     38068     38070
     38066     38065     38068     38071     38067     38065     38068     38069
     38067     38065     38068     38070     38067     38065     38068     38071
     38068     38071     38074     38075     38068     38071     38074     38076
     38068     38071     38074     38077     38069     38068     38071     38072
     38069     38068     38071     38073     38069     38068     38071     38074
     38070     38068     38071     38072     38070     38068     38071     38073
     38070     38068     38071     38074     38072     38071     38074     38075
     38072     38071     38074     38076     38072     38071     38074     38077
     38073     38071     38074     38075     38073     38071     38074     38076
     38073     38071     38074     38077     38078     38082     38085     38086
     38078     38082     38085     38087     38078     38082     38085     38092
     38079     38078     38082     38083     38079     38078     38082     38084
     38079     38078     38082     38085     38080     38078     38082     38083
     38080     38078     38082     38084     38080     38078     38082     38085
     38081     38078     38082     38083     38081     38078     38082     38084
     38081     38078     38082     38085     38082     38085     38092     38088
     38083     38082     38085     38086     38083     38082     38085     38087
     38083     38082     38085     38092     38084     38082     38085     38086
     38084     38082     38085     38087     38084     38082     38085     38092
     38085     38092     38088     38089     38085     38092     38088     38090
     38085     38092     38088     38091     38086     38085     38092     38088
     38087     38085     38092     38088     38088     38091     38093     38094
     38088     38091     38093     38095     38088     38091     38093     38096
     38089     38088     38091     38093     38090     38088     38091     38093
     38091     38093     38096     38097     38091     38093     38096     38098
     38091     38093     38096     38104     38092     38088     38091     38093
     38093     38096     38098     38099     38093     38096     38104     38105
     38093     38096     38104     38106     38093     38096     38104     38107
     38094     38093     38096     38097     38094     38093     38096     38098
     38094     38093     38096     38104     38095     38093     38096     38097
     38095     38093     38096     38098     38095     38093     38096     38104
     38096     38098     38099     38100     38096     38098     38099     38101
     38096     38104     38107     38108     38097     38096     38098     38099
     38097     38096     38104     38105     38097     38096     38104     38106
     38097     38096     38104     38107     38098     38096     38104     38105
     38098     38096     38104     38106     38098     38096     38104     38107
     38098     38099     38101     38102     38098     38099     38101     38103
     38098     38099     38101     38113     38099     38098     38096     38104
     38099     38101     38113     38114     38099     38101     38113     38115
     38099     38101     38113     38116     38100     38099     38101     38102
     38100     38099     38101     38103     38100     38099     38101     38113
     38101     38113     38116     38117     38101     38113     38116     38118
     38101     38113     38116     38119     38102     38101     38113     38114
     38102     38101     38113     38115     38102     38101     38113     38116
     38103     38101     38113     38114     38103     38101     38113     38115
     38103     38101     38113     38116     38104     38107     38108     38109
     38104     38107     38108     38110     38105     38104     38107     38108
     38106     38104     38107     38108     38107     38108     38110     38111
     38107     38108     38110     38112     38107     38108     38110     38160
     38108     38110     38160     38161     38108     38110     38160     38162
     38108     38110     38160     38163     38109     38108     38110     38111
     38109     38108     38110     38112     38109     38108     38110     38160
     38110     38160     38163     38164     38110     38160     38163     38165
     38110     38160     38163     38166     38111     38110     38160     38161
     38111     38110     38160     38162     38111     38110     38160     38163
     38112     38110     38160     38161     38112     38110     38160     38162
     38112     38110     38160     38163     38113     38116     38119     38120
     38113     38116     38119     38121     38113     38116     38119     38122
     38114     38113     38116     38117     38114     38113     38116     38118
     38114     38113     38116     38119     38115     38113     38116     38117
     38115     38113     38116     38118     38115     38113     38116     38119
     38116     38119     38122     38123     38116     38119     38122     38124
     38116     38119     38122     38125     38117     38116     38119     38120
     38117     38116     38119     38121     38117     38116     38119     38122
     38118     38116     38119     38120     38118     38116     38119     38121
     38118     38116     38119     38122     38119     38122     38125     38126
     38119     38122     38125     38127     38119     38122     38125     38128
     38120     38119     38122     38123     38120     38119     38122     38124
     38120     38119     38122     38125     38121     38119     38122     38123
     38121     38119     38122     38124     38121     38119     38122     38125
     38122     38125     38128     38129     38122     38125     38128     38130
     38122     38125     38128     38131     38123     38122     38125     38126
     38123     38122     38125     38127     38123     38122     38125     38128
     38124     38122     38125     38126     38124     38122     38125     38127
     38124     38122     38125     38128     38125     38128     38131     38132
     38125     38128     38131     38133     38126     38125     38128     38129
     38126     38125     38128     38130     38126     38125     38128     38131
     38127     38125     38128     38129     38127     38125     38128     38130
     38127     38125     38128     38131     38128     38131     38133     38134
     38128     38131     38133     38135     38129     38128     38131     38132
     38129     38128     38131     38133     38130     38128     38131     38132
     38130     38128     38131     38133     38131     38133     38135     38136
     38131     38133     38135     38137     38131     38133     38135     38138
     38132     38131     38133     38134     38132     38131     38133     38135
     38133     38135     38138     38139     38133     38135     38138     38140
     38133     38135     38138     38141     38134     38133     38135     38136
     38134     38133     38135     38137     38134     38133     38135     38138
     38135     38138     38141     38142     38135     38138     38141     38143
     38135     38138     38141     38144     38136     38135     38138     38139
     38136     38135     38138     38140     38136     38135     38138     38141
     38137     38135     38138     38139     38137     38135     38138     38140
     38137     38135     38138     38141     38138     38141     38144     38145
     38138     38141     38144     38146     38138     38141     38144     38147
     38139     38138     38141     38142     38139     38138     38141     38143
     38139     38138     38141     38144     38140     38138     38141     38142
     38140     38138     38141     38143     38140     38138     38141     38144
     38141     38144     38147     38148     38141     38144     38147     38149
     38141     38144     38147     38150     38142     38141     38144     38145
     38142     38141     38144     38146     38142     38141     38144     38147
     38143     38141     38144     38145     38143     38141     38144     38146
     38143     38141     38144     38147     38144     38147     38150     38151
     38144     38147     38150     38152     38144     38147     38150     38153
     38145     38144     38147     38148     38145     38144     38147     38149
     38145     38144     38147     38150     38146     38144     38147     38148
     38146     38144     38147     38149     38146     38144     38147     38150
     38147     38150     38153     38154     38147     38150     38153     38155
     38147     38150     38153     38156     38148     38147     38150     38151
     38148     38147     38150     38152     38148     38147     38150     38153
     38149     38147     38150     38151     38149     38147     38150     38152
     38149     38147     38150     38153     38150     38153     38156     38157
     38150     38153     38156     38158     38150     38153     38156     38159
     38151     38150     38153     38154     38151     38150     38153     38155
     38151     38150     38153     38156     38152     38150     38153     38154
     38152     38150     38153     38155     38152     38150     38153     38156
     38154     38153     38156     38157     38154     38153     38156     38158
     38154     38153     38156     38159     38155     38153     38156     38157
     38155     38153     38156     38158     38155     38153     38156     38159
     38160     38163     38166     38167     38160     38163     38166     38168
     38160     38163     38166     38169     38161     38160     38163     38164
     38161     38160     38163     38165     38161     38160     38163     38166
     38162     38160     38163     38164     38162     38160     38163     38165
     38162     38160     38163     38166     38163     38166     38169     38170
     38163     38166     38169     38171     38163     38166     38169     38172
     38164     38163     38166     38167     38164     38163     38166     38168
     38164     38163     38166     38169     38165     38163     38166     38167
     38165     38163     38166     38168     38165     38163     38166     38169
     38166     38169     38172     38173     38166     38169     38172     38174
     38166     38169     38172     38175     38167     38166     38169     38170
     38167     38166     38169     38171     38167     38166     38169     38172
     38168     38166     38169     38170     38168     38166     38169     38171
     38168     38166     38169     38172     38169     38172     38175     38176
     38169     38172     38175     38177     38169     38172     38175     38178
     38170     38169     38172     38173     38170     38169     38172     38174
     38170     38169     38172     38175     38171     38169     38172     38173
     38171     38169     38172     38174     38171     38169     38172     38175
     38172     38175     38178     38179     38172     38175     38178     38180
     38172     38175     38178     38181     38173     38172     38175     38176
     38173     38172     38175     38177     38173     38172     38175     38178
     38174     38172     38175     38176     38174     38172     38175     38177
     38174     38172     38175     38178     38175     38178     38181     38182
     38175     38178     38181     38183     38175     38178     38181     38184
     38176     38175     38178     38179     38176     38175     38178     38180
     38176     38175     38178     38181     38177     38175     38178     38179
     38177     38175     38178     38180     38177     38175     38178     38181
     38178     38181     38184     38185     38178     38181     38184     38186
     38178     38181     38184     38187     38179     38178     38181     38182
     38179     38178     38181     38183     38179     38178     38181     38184
     38180     38178     38181     38182     38180     38178     38181     38183
     38180     38178     38181     38184     38181     38184     38187     38188
     38181     38184     38187     38189     38181     38184     38187     38190
     38182     38181     38184     38185     38182     38181     38184     38186
     38182     38181     38184     38187     38183     38181     38184     38185
     38183     38181     38184     38186     38183     38181     38184     38187
     38184     38187     38190     38191     38184     38187     38190     38192
     38184     38187     38190     38193     38185     38184     38187     38188
     38185     38184     38187     38189     38185     38184     38187     38190
     38186     38184     38187     38188     38186     38184     38187     38189
     38186     38184     38187     38190     38187     38190     38193     38194
     38187     38190     38193     38195     38187     38190     38193     38196
     38188     38187     38190     38191     38188     38187     38190     38192
     38188     38187     38190     38193     38189     38187     38190     38191
     38189     38187     38190     38192     38189     38187     38190     38193
     38190     38193     38196     38197     38190     38193     38196     38198
     38190     38193     38196     38199     38191     38190     38193     38194
     38191     38190     38193     38195     38191     38190     38193     38196
     38192     38190     38193     38194     38192     38190     38193     38195
     38192     38190     38193     38196     38193     38196     38199     38200
     38193     38196     38199     38201     38193     38196     38199     38202
     38194     38193     38196     38197     38194     38193     38196     38198
     38194     38193     38196     38199     38195     38193     38196     38197
     38195     38193     38196     38198     38195     38193     38196     38199
     38197     38196     38199     38200     38197     38196     38199     38201
     38197     38196     38199     38202     38198     38196     38199     38200
     38198     38196     38199     38201     38198     38196     38199     38202
     38203     38207     38210     38211     38203     38207     38210     38212
     38203     38207     38210     38217     38204     38203     38207     38208
     38204     38203     38207     38209     38204     38203     38207     38210
     38205     38203     38207     38208     38205     38203     38207     38209
     38205     38203     38207     38210     38206     38203     38207     38208
     38206     38203     38207     38209     38206     38203     38207     38210
     38207     38210     38217     38213     38208     38207     38210     38211
     38208     38207     38210     38212     38208     38207     38210     38217
     38209     38207     38210     38211     38209     38207     38210     38212
     38209     38207     38210     38217     38210     38217     38213     38214
     38210     38217     38213     38215     38210     38217     38213     38216
     38211     38210     38217     38213     38212     38210     38217     38213
     38213     38216     38218     38219     38213     38216     38218     38220
     38213     38216     38218     38221     38214     38213     38216     38218
     38215     38213     38216     38218     38216     38218     38221     38222
     38216     38218     38221     38223     38216     38218     38221     38229
     38217     38213     38216     38218     38218     38221     38223     38224
     38218     38221     38229     38230     38218     38221     38229     38231
     38218     38221     38229     38232     38219     38218     38221     38222
     38219     38218     38221     38223     38219     38218     38221     38229
     38220     38218     38221     38222     38220     38218     38221     38223
     38220     38218     38221     38229     38221     38223     38224     38225
     38221     38223     38224     38226     38221     38229     38232     38233
     38222     38221     38223     38224     38222     38221     38229     38230
     38222     38221     38229     38231     38222     38221     38229     38232
     38223     38221     38229     38230     38223     38221     38229     38231
     38223     38221     38229     38232     38223     38224     38226     38227
     38223     38224     38226     38228     38223     38224     38226     38238
     38224     38223     38221     38229     38224     38226     38238     38239
     38224     38226     38238     38240     38224     38226     38238     38241
     38225     38224     38226     38227     38225     38224     38226     38228
     38225     38224     38226     38238     38226     38238     38241     38242
     38226     38238     38241     38243     38226     38238     38241     38244
     38227     38226     38238     38239     38227     38226     38238     38240
     38227     38226     38238     38241     38228     38226     38238     38239
     38228     38226     38238     38240     38228     38226     38238     38241
     38229     38232     38233     38234     38229     38232     38233     38235
     38230     38229     38232     38233     38231     38229     38232     38233
     38232     38233     38235     38236     38232     38233     38235     38237
     38232     38233     38235     38285     38233     38235     38285     38286
     38233     38235     38285     38287     38233     38235     38285     38288
     38234     38233     38235     38236     38234     38233     38235     38237
     38234     38233     38235     38285     38235     38285     38288     38289
     38235     38285     38288     38290     38235     38285     38288     38291
     38236     38235     38285     38286     38236     38235     38285     38287
     38236     38235     38285     38288     38237     38235     38285     38286
     38237     38235     38285     38287     38237     38235     38285     38288
     38238     38241     38244     38245     38238     38241     38244     38246
     38238     38241     38244     38247     38239     38238     38241     38242
     38239     38238     38241     38243     38239     38238     38241     38244
     38240     38238     38241     38242     38240     38238     38241     38243
     38240     38238     38241     38244     38241     38244     38247     38248
     38241     38244     38247     38249     38241     38244     38247     38250
     38242     38241     38244     38245     38242     38241     38244     38246
     38242     38241     38244     38247     38243     38241     38244     38245
     38243     38241     38244     38246     38243     38241     38244     38247
     38244     38247     38250     38251     38244     38247     38250     38252
     38244     38247     38250     38253     38245     38244     38247     38248
     38245     38244     38247     38249     38245     38244     38247     38250
     38246     38244     38247     38248     38246     38244     38247     38249
     38246     38244     38247     38250     38247     38250     38253     38254
     38247     38250     38253     38255     38247     38250     38253     38256
     38248     38247     38250     38251     38248     38247     38250     38252
     38248     38247     38250     38253     38249     38247     38250     38251
     38249     38247     38250     38252     38249     38247     38250     38253
     38250     38253     38256     38257     38250     38253     38256     38258
     38251     38250     38253     38254     38251     38250     38253     38255
     38251     38250     38253     38256     38252     38250     38253     38254
     38252     38250     38253     38255     38252     38250     38253     38256
     38253     38256     38258     38259     38253     38256     38258     38260
     38254     38253     38256     38257     38254     38253     38256     38258
     38255     38253     38256     38257     38255     38253     38256     38258
     38256     38258     38260     38261     38256     38258     38260     38262
     38256     38258     38260     38263     38257     38256     38258     38259
     38257     38256     38258     38260     38258     38260     38263     38264
     38258     38260     38263     38265     38258     38260     38263     38266
     38259     38258     38260     38261     38259     38258     38260     38262
     38259     38258     38260     38263     38260     38263     38266     38267
     38260     38263     38266     38268     38260     38263     38266     38269
     38261     38260     38263     38264     38261     38260     38263     38265
     38261     38260     38263     38266     38262     38260     38263     38264
     38262     38260     38263     38265     38262     38260     38263     38266
     38263     38266     38269     38270     38263     38266     38269     38271
     38263     38266     38269     38272     38264     38263     38266     38267
     38264     38263     38266     38268     38264     38263     38266     38269
     38265     38263     38266     38267     38265     38263     38266     38268
     38265     38263     38266     38269     38266     38269     38272     38273
     38266     38269     38272     38274     38266     38269     38272     38275
     38267     38266     38269     38270     38267     38266     38269     38271
     38267     38266     38269     38272     38268     38266     38269     38270
     38268     38266     38269     38271     38268     38266     38269     38272
     38269     38272     38275     38276     38269     38272     38275     38277
     38269     38272     38275     38278     38270     38269     38272     38273
     38270     38269     38272     38274     38270     38269     38272     38275
     38271     38269     38272     38273     38271     38269     38272     38274
     38271     38269     38272     38275     38272     38275     38278     38279
     38272     38275     38278     38280     38272     38275     38278     38281
     38273     38272     38275     38276     38273     38272     38275     38277
     38273     38272     38275     38278     38274     38272     38275     38276
     38274     38272     38275     38277     38274     38272     38275     38278
     38275     38278     38281     38282     38275     38278     38281     38283
     38275     38278     38281     38284     38276     38275     38278     38279
     38276     38275     38278     38280     38276     38275     38278     38281
     38277     38275     38278     38279     38277     38275     38278     38280
     38277     38275     38278     38281     38279     38278     38281     38282
     38279     38278     38281     38283     38279     38278     38281     38284
     38280     38278     38281     38282     38280     38278     38281     38283
     38280     38278     38281     38284     38285     38288     38291     38292
     38285     38288     38291     38293     38285     38288     38291     38294
     38286     38285     38288     38289     38286     38285     38288     38290
     38286     38285     38288     38291     38287     38285     38288     38289
     38287     38285     38288     38290     38287     38285     38288     38291
     38288     38291     38294     38295     38288     38291     38294     38296
     38288     38291     38294     38297     38289     38288     38291     38292
     38289     38288     38291     38293     38289     38288     38291     38294
     38290     38288     38291     38292     38290     38288     38291     38293
     38290     38288     38291     38294     38291     38294     38297     38298
     38291     38294     38297     38299     38291     38294     38297     38300
     38292     38291     38294     38295     38292     38291     38294     38296
     38292     38291     38294     38297     38293     38291     38294     38295
     38293     38291     38294     38296     38293     38291     38294     38297
     38294     38297     38300     38301     38294     38297     38300     38302
     38294     38297     38300     38303     38295     38294     38297     38298
     38295     38294     38297     38299     38295     38294     38297     38300
     38296     38294     38297     38298     38296     38294     38297     38299
     38296     38294     38297     38300     38297     38300     38303     38304
     38297     38300     38303     38305     38297     38300     38303     38306
     38298     38297     38300     38301     38298     38297     38300     38302
     38298     38297     38300     38303     38299     38297     38300     38301
     38299     38297     38300     38302     38299     38297     38300     38303
     38300     38303     38306     38307     38300     38303     38306     38308
     38300     38303     38306     38309     38301     38300     38303     38304
     38301     38300     38303     38305     38301     38300     38303     38306
     38302     38300     38303     38304     38302     38300     38303     38305
     38302     38300     38303     38306     38303     38306     38309     38310
     38303     38306     38309     38311     38303     38306     38309     38312
     38304     38303     38306     38307     38304     38303     38306     38308
     38304     38303     38306     38309     38305     38303     38306     38307
     38305     38303     38306     38308     38305     38303     38306     38309
     38306     38309     38312     38313     38306     38309     38312     38314
     38306     38309     38312     38315     38307     38306     38309     38310
     38307     38306     38309     38311     38307     38306     38309     38312
     38308     38306     38309     38310     38308     38306     38309     38311
     38308     38306     38309     38312     38309     38312     38315     38316
     38309     38312     38315     38317     38309     38312     38315     38318
     38310     38309     38312     38313     38310     38309     38312     38314
     38310     38309     38312     38315     38311     38309     38312     38313
     38311     38309     38312     38314     38311     38309     38312     38315
     38312     38315     38318     38319     38312     38315     38318     38320
     38312     38315     38318     38321     38313     38312     38315     38316
     38313     38312     38315     38317     38313     38312     38315     38318
     38314     38312     38315     38316     38314     38312     38315     38317
     38314     38312     38315     38318     38315     38318     38321     38322
     38315     38318     38321     38323     38315     38318     38321     38324
     38316     38315     38318     38319     38316     38315     38318     38320
     38316     38315     38318     38321     38317     38315     38318     38319
     38317     38315     38318     38320     38317     38315     38318     38321
     38318     38321     38324     38325     38318     38321     38324     38326
     38318     38321     38324     38327     38319     38318     38321     38322
     38319     38318     38321     38323     38319     38318     38321     38324
     38320     38318     38321     38322     38320     38318     38321     38323
     38320     38318     38321     38324     38322     38321     38324     38325
     38322     38321     38324     38326     38322     38321     38324     38327
     38323     38321     38324     38325     38323     38321     38324     38326
     38323     38321     38324     38327     38328     38329     38344     38345
     38328     38329     38344     38346     38328     38329     38344     38350
     38329     38328     38332     38333     38329     38328     38332     38334
     38329     38328     38332     38335     38329     38328     38336     38337
     38329     38328     38336     38338     38329     38328     38336     38339
     38329     38328     38340     38341     38329     38328     38340     38342
     38329     38328     38340     38343     38329     38344     38350     38347
     38330     38329     38328     38332     38330     38329     38328     38336
     38330     38329     38328     38340     38330     38329     38344     38345
     38330     38329     38344     38346     38330     38329     38344     38350
     38331     38329     38328     38332     38331     38329     38328     38336
     38331     38329     38328     38340     38331     38329     38344     38345
     38331     38329     38344     38346     38331     38329     38344     38350
     38332     38328     38329     38344     38332     38328     38336     38337
     38332     38328     38336     38338     38332     38328     38336     38339
     38332     38328     38340     38341     38332     38328     38340     38342
     38332     38328     38340     38343     38333     38332     38328     38336
     38333     38332     38328     38340     38334     38332     38328     38336
     38334     38332     38328     38340     38335     38332     38328     38336
     38335     38332     38328     38340     38336     38328     38329     38344
     38336     38328     38340     38341     38336     38328     38340     38342
     38336     38328     38340     38343     38337     38336     38328     38340
     38338     38336     38328     38340     38339     38336     38328     38340
     38340     38328     38329     38344     38344     38350     38347     38348
     38344     38350     38347     38349     38344     38350     38347     38351
     38345     38344     38350     38347     38346     38344     38350     38347
     38347     38351     38352     38353     38347     38351     38352     38354
     38347     38351     38352     38355     38348     38347     38351     38352
     38349     38347     38351     38352     38350     38347     38351     38352
     38351     38352     38355     38356     38351     38352     38355     38357
     38351     38352     38355     38363     38352     38355     38357     38358
     38352     38355     38363     38364     38352     38355     38363     38365
     38352     38355     38363     38366     38353     38352     38355     38356
     38353     38352     38355     38357     38353     38352     38355     38363
     38354     38352     38355     38356     38354     38352     38355     38357
     38354     38352     38355     38363     38355     38357     38358     38359
     38355     38357     38358     38360     38355     38363     38366     38367
     38356     38355     38357     38358     38356     38355     38363     38364
     38356     38355     38363     38365     38356     38355     38363     38366
     38357     38355     38363     38364     38357     38355     38363     38365
     38357     38355     38363     38366     38357     38358     38360     38361
     38357     38358     38360     38362     38357     38358     38360     38372
     38358     38357     38355     38363     38358     38360     38372     38373
     38358     38360     38372     38374     38358     38360     38372     38375
     38359     38358     38360     38361     38359     38358     38360     38362
     38359     38358     38360     38372     38360     38372     38375     38376
     38360     38372     38375     38377     38360     38372     38375     38378
     38361     38360     38372     38373     38361     38360     38372     38374
     38361     38360     38372     38375     38362     38360     38372     38373
     38362     38360     38372     38374     38362     38360     38372     38375
     38363     38366     38367     38368     38363     38366     38367     38369
     38364     38363     38366     38367     38365     38363     38366     38367
     38366     38367     38369     38370     38366     38367     38369     38371
     38366     38367     38369     38419     38367     38369     38419     38420
     38367     38369     38419     38421     38367     38369     38419     38422
     38368     38367     38369     38370     38368     38367     38369     38371
     38368     38367     38369     38419     38369     38419     38422     38423
     38369     38419     38422     38424     38369     38419     38422     38425
     38370     38369     38419     38420     38370     38369     38419     38421
     38370     38369     38419     38422     38371     38369     38419     38420
     38371     38369     38419     38421     38371     38369     38419     38422
     38372     38375     38378     38379     38372     38375     38378     38380
     38372     38375     38378     38381     38373     38372     38375     38376
     38373     38372     38375     38377     38373     38372     38375     38378
     38374     38372     38375     38376     38374     38372     38375     38377
     38374     38372     38375     38378     38375     38378     38381     38382
     38375     38378     38381     38383     38375     38378     38381     38384
     38376     38375     38378     38379     38376     38375     38378     38380
     38376     38375     38378     38381     38377     38375     38378     38379
     38377     38375     38378     38380     38377     38375     38378     38381
     38378     38381     38384     38385     38378     38381     38384     38386
     38378     38381     38384     38387     38379     38378     38381     38382
     38379     38378     38381     38383     38379     38378     38381     38384
     38380     38378     38381     38382     38380     38378     38381     38383
     38380     38378     38381     38384     38381     38384     38387     38388
     38381     38384     38387     38389     38381     38384     38387     38390
     38382     38381     38384     38385     38382     38381     38384     38386
     38382     38381     38384     38387     38383     38381     38384     38385
     38383     38381     38384     38386     38383     38381     38384     38387
     38384     38387     38390     38391     38384     38387     38390     38392
     38385     38384     38387     38388     38385     38384     38387     38389
     38385     38384     38387     38390     38386     38384     38387     38388
     38386     38384     38387     38389     38386     38384     38387     38390
     38387     38390     38392     38393     38387     38390     38392     38394
     38388     38387     38390     38391     38388     38387     38390     38392
     38389     38387     38390     38391     38389     38387     38390     38392
     38390     38392     38394     38395     38390     38392     38394     38396
     38390     38392     38394     38397     38391     38390     38392     38393
     38391     38390     38392     38394     38392     38394     38397     38398
     38392     38394     38397     38399     38392     38394     38397     38400
     38393     38392     38394     38395     38393     38392     38394     38396
     38393     38392     38394     38397     38394     38397     38400     38401
     38394     38397     38400     38402     38394     38397     38400     38403
     38395     38394     38397     38398     38395     38394     38397     38399
     38395     38394     38397     38400     38396     38394     38397     38398
     38396     38394     38397     38399     38396     38394     38397     38400
     38397     38400     38403     38404     38397     38400     38403     38405
     38397     38400     38403     38406     38398     38397     38400     38401
     38398     38397     38400     38402     38398     38397     38400     38403
     38399     38397     38400     38401     38399     38397     38400     38402
     38399     38397     38400     38403     38400     38403     38406     38407
     38400     38403     38406     38408     38400     38403     38406     38409
     38401     38400     38403     38404     38401     38400     38403     38405
     38401     38400     38403     38406     38402     38400     38403     38404
     38402     38400     38403     38405     38402     38400     38403     38406
     38403     38406     38409     38410     38403     38406     38409     38411
     38403     38406     38409     38412     38404     38403     38406     38407
     38404     38403     38406     38408     38404     38403     38406     38409
     38405     38403     38406     38407     38405     38403     38406     38408
     38405     38403     38406     38409     38406     38409     38412     38413
     38406     38409     38412     38414     38406     38409     38412     38415
     38407     38406     38409     38410     38407     38406     38409     38411
     38407     38406     38409     38412     38408     38406     38409     38410
     38408     38406     38409     38411     38408     38406     38409     38412
     38409     38412     38415     38416     38409     38412     38415     38417
     38409     38412     38415     38418     38410     38409     38412     38413
     38410     38409     38412     38414     38410     38409     38412     38415
     38411     38409     38412     38413     38411     38409     38412     38414
     38411     38409     38412     38415     38413     38412     38415     38416
     38413     38412     38415     38417     38413     38412     38415     38418
     38414     38412     38415     38416     38414     38412     38415     38417
     38414     38412     38415     38418     38419     38422     38425     38426
     38419     38422     38425     38427     38419     38422     38425     38428
     38420     38419     38422     38423     38420     38419     38422     38424
     38420     38419     38422     38425     38421     38419     38422     38423
     38421     38419     38422     38424     38421     38419     38422     38425
     38422     38425     38428     38429     38422     38425     38428     38430
     38422     38425     38428     38431     38423     38422     38425     38426
     38423     38422     38425     38427     38423     38422     38425     38428
     38424     38422     38425     38426     38424     38422     38425     38427
     38424     38422     38425     38428     38425     38428     38431     38432
     38425     38428     38431     38433     38425     38428     38431     38434
     38426     38425     38428     38429     38426     38425     38428     38430
     38426     38425     38428     38431     38427     38425     38428     38429
     38427     38425     38428     38430     38427     38425     38428     38431
     38428     38431     38434     38435     38428     38431     38434     38436
     38428     38431     38434     38437     38429     38428     38431     38432
     38429     38428     38431     38433     38429     38428     38431     38434
     38430     38428     38431     38432     38430     38428     38431     38433
     38430     38428     38431     38434     38431     38434     38437     38438
     38431     38434     38437     38439     38431     38434     38437     38440
     38432     38431     38434     38435     38432     38431     38434     38436
     38432     38431     38434     38437     38433     38431     38434     38435
     38433     38431     38434     38436     38433     38431     38434     38437
     38434     38437     38440     38441     38434     38437     38440     38442
     38434     38437     38440     38443     38435     38434     38437     38438
     38435     38434     38437     38439     38435     38434     38437     38440
     38436     38434     38437     38438     38436     38434     38437     38439
     38436     38434     38437     38440     38437     38440     38443     38444
     38437     38440     38443     38445     38437     38440     38443     38446
     38438     38437     38440     38441     38438     38437     38440     38442
     38438     38437     38440     38443     38439     38437     38440     38441
     38439     38437     38440     38442     38439     38437     38440     38443
     38440     38443     38446     38447     38440     38443     38446     38448
     38440     38443     38446     38449     38441     38440     38443     38444
     38441     38440     38443     38445     38441     38440     38443     38446
     38442     38440     38443     38444     38442     38440     38443     38445
     38442     38440     38443     38446     38443     38446     38449     38450
     38443     38446     38449     38451     38443     38446     38449     38452
     38444     38443     38446     38447     38444     38443     38446     38448
     38444     38443     38446     38449     38445     38443     38446     38447
     38445     38443     38446     38448     38445     38443     38446     38449
     38446     38449     38452     38453     38446     38449     38452     38454
     38446     38449     38452     38455     38447     38446     38449     38450
     38447     38446     38449     38451     38447     38446     38449     38452
     38448     38446     38449     38450     38448     38446     38449     38451
     38448     38446     38449     38452     38449     38452     38455     38456
     38449     38452     38455     38457     38449     38452     38455     38458
     38450     38449     38452     38453     38450     38449     38452     38454
     38450     38449     38452     38455     38451     38449     38452     38453
     38451     38449     38452     38454     38451     38449     38452     38455
     38452     38455     38458     38459     38452     38455     38458     38460
     38452     38455     38458     38461     38453     38452     38455     38456
     38453     38452     38455     38457     38453     38452     38455     38458
     38454     38452     38455     38456     38454     38452     38455     38457
     38454     38452     38455     38458     38456     38455     38458     38459
     38456     38455     38458     38460     38456     38455     38458     38461
     38457     38455     38458     38459     38457     38455     38458     38460
     38457     38455     38458     38461     38462     38463     38478     38479
     38462     38463     38478     38480     38462     38463     38478     38484
     38463     38462     38466     38467     38463     38462     38466     38468
     38463     38462     38466     38469     38463     38462     38470     38471
     38463     38462     38470     38472     38463     38462     38470     38473
     38463     38462     38474     38475     38463     38462     38474     38476
     38463     38462     38474     38477     38463     38478     38484     38481
     38464     38463     38462     38466     38464     38463     38462     38470
     38464     38463     38462     38474     38464     38463     38478     38479
     38464     38463     38478     38480     38464     38463     38478     38484
     38465     38463     38462     38466     38465     38463     38462     38470
     38465     38463     38462     38474     38465     38463     38478     38479
     38465     38463     38478     38480     38465     38463     38478     38484
     38466     38462     38463     38478     38466     38462     38470     38471
     38466     38462     38470     38472     38466     38462     38470     38473
     38466     38462     38474     38475     38466     38462     38474     38476
     38466     38462     38474     38477     38467     38466     38462     38470
     38467     38466     38462     38474     38468     38466     38462     38470
     38468     38466     38462     38474     38469     38466     38462     38470
     38469     38466     38462     38474     38470     38462     38463     38478
     38470     38462     38474     38475     38470     38462     38474     38476
     38470     38462     38474     38477     38471     38470     38462     38474
     38472     38470     38462     38474     38473     38470     38462     38474
     38474     38462     38463     38478     38478     38484     38481     38482
     38478     38484     38481     38483     38478     38484     38481     38485
     38479     38478     38484     38481     38480     38478     38484     38481
     38481     38485     38486     38487     38481     38485     38486     38488
     38481     38485     38486     38489     38482     38481     38485     38486
     38483     38481     38485     38486     38484     38481     38485     38486
     38485     38486     38489     38490     38485     38486     38489     38491
     38485     38486     38489     38497     38486     38489     38491     38492
     38486     38489     38497     38498     38486     38489     38497     38499
     38486     38489     38497     38500     38487     38486     38489     38490
     38487     38486     38489     38491     38487     38486     38489     38497
     38488     38486     38489     38490     38488     38486     38489     38491
     38488     38486     38489     38497     38489     38491     38492     38493
     38489     38491     38492     38494     38489     38497     38500     38501
     38490     38489     38491     38492     38490     38489     38497     38498
     38490     38489     38497     38499     38490     38489     38497     38500
     38491     38489     38497     38498     38491     38489     38497     38499
     38491     38489     38497     38500     38491     38492     38494     38495
     38491     38492     38494     38496     38491     38492     38494     38506
     38492     38491     38489     38497     38492     38494     38506     38507
     38492     38494     38506     38508     38492     38494     38506     38509
     38493     38492     38494     38495     38493     38492     38494     38496
     38493     38492     38494     38506     38494     38506     38509     38510
     38494     38506     38509     38511     38494     38506     38509     38512
     38495     38494     38506     38507     38495     38494     38506     38508
     38495     38494     38506     38509     38496     38494     38506     38507
     38496     38494     38506     38508     38496     38494     38506     38509
     38497     38500     38501     38502     38497     38500     38501     38503
     38498     38497     38500     38501     38499     38497     38500     38501
     38500     38501     38503     38504     38500     38501     38503     38505
     38500     38501     38503     38553     38501     38503     38553     38554
     38501     38503     38553     38555     38501     38503     38553     38556
     38502     38501     38503     38504     38502     38501     38503     38505
     38502     38501     38503     38553     38503     38553     38556     38557
     38503     38553     38556     38558     38503     38553     38556     38559
     38504     38503     38553     38554     38504     38503     38553     38555
     38504     38503     38553     38556     38505     38503     38553     38554
     38505     38503     38553     38555     38505     38503     38553     38556
     38506     38509     38512     38513     38506     38509     38512     38514
     38506     38509     38512     38515     38507     38506     38509     38510
     38507     38506     38509     38511     38507     38506     38509     38512
     38508     38506     38509     38510     38508     38506     38509     38511
     38508     38506     38509     38512     38509     38512     38515     38516
     38509     38512     38515     38517     38509     38512     38515     38518
     38510     38509     38512     38513     38510     38509     38512     38514
     38510     38509     38512     38515     38511     38509     38512     38513
     38511     38509     38512     38514     38511     38509     38512     38515
     38512     38515     38518     38519     38512     38515     38518     38520
     38512     38515     38518     38521     38513     38512     38515     38516
     38513     38512     38515     38517     38513     38512     38515     38518
     38514     38512     38515     38516     38514     38512     38515     38517
     38514     38512     38515     38518     38515     38518     38521     38522
     38515     38518     38521     38523     38515     38518     38521     38524
     38516     38515     38518     38519     38516     38515     38518     38520
     38516     38515     38518     38521     38517     38515     38518     38519
     38517     38515     38518     38520     38517     38515     38518     38521
     38518     38521     38524     38525     38518     38521     38524     38526
     38519     38518     38521     38522     38519     38518     38521     38523
     38519     38518     38521     38524     38520     38518     38521     38522
     38520     38518     38521     38523     38520     38518     38521     38524
     38521     38524     38526     38527     38521     38524     38526     38528
     38522     38521     38524     38525     38522     38521     38524     38526
     38523     38521     38524     38525     38523     38521     38524     38526
     38524     38526     38528     38529     38524     38526     38528     38530
     38524     38526     38528     38531     38525     38524     38526     38527
     38525     38524     38526     38528     38526     38528     38531     38532
     38526     38528     38531     38533     38526     38528     38531     38534
     38527     38526     38528     38529     38527     38526     38528     38530
     38527     38526     38528     38531     38528     38531     38534     38535
     38528     38531     38534     38536     38528     38531     38534     38537
     38529     38528     38531     38532     38529     38528     38531     38533
     38529     38528     38531     38534     38530     38528     38531     38532
     38530     38528     38531     38533     38530     38528     38531     38534
     38531     38534     38537     38538     38531     38534     38537     38539
     38531     38534     38537     38540     38532     38531     38534     38535
     38532     38531     38534     38536     38532     38531     38534     38537
     38533     38531     38534     38535     38533     38531     38534     38536
     38533     38531     38534     38537     38534     38537     38540     38541
     38534     38537     38540     38542     38534     38537     38540     38543
     38535     38534     38537     38538     38535     38534     38537     38539
     38535     38534     38537     38540     38536     38534     38537     38538
     38536     38534     38537     38539     38536     38534     38537     38540
     38537     38540     38543     38544     38537     38540     38543     38545
     38537     38540     38543     38546     38538     38537     38540     38541
     38538     38537     38540     38542     38538     38537     38540     38543
     38539     38537     38540     38541     38539     38537     38540     38542
     38539     38537     38540     38543     38540     38543     38546     38547
     38540     38543     38546     38548     38540     38543     38546     38549
     38541     38540     38543     38544     38541     38540     38543     38545
     38541     38540     38543     38546     38542     38540     38543     38544
     38542     38540     38543     38545     38542     38540     38543     38546
     38543     38546     38549     38550     38543     38546     38549     38551
     38543     38546     38549     38552     38544     38543     38546     38547
     38544     38543     38546     38548     38544     38543     38546     38549
     38545     38543     38546     38547     38545     38543     38546     38548
     38545     38543     38546     38549     38547     38546     38549     38550
     38547     38546     38549     38551     38547     38546     38549     38552
     38548     38546     38549     38550     38548     38546     38549     38551
     38548     38546     38549     38552     38553     38556     38559     38560
     38553     38556     38559     38561     38553     38556     38559     38562
     38554     38553     38556     38557     38554     38553     38556     38558
     38554     38553     38556     38559     38555     38553     38556     38557
     38555     38553     38556     38558     38555     38553     38556     38559
     38556     38559     38562     38563     38556     38559     38562     38564
     38556     38559     38562     38565     38557     38556     38559     38560
     38557     38556     38559     38561     38557     38556     38559     38562
     38558     38556     38559     38560     38558     38556     38559     38561
     38558     38556     38559     38562     38559     38562     38565     38566
     38559     38562     38565     38567     38559     38562     38565     38568
     38560     38559     38562     38563     38560     38559     38562     38564
     38560     38559     38562     38565     38561     38559     38562     38563
     38561     38559     38562     38564     38561     38559     38562     38565
     38562     38565     38568     38569     38562     38565     38568     38570
     38562     38565     38568     38571     38563     38562     38565     38566
     38563     38562     38565     38567     38563     38562     38565     38568
     38564     38562     38565     38566     38564     38562     38565     38567
     38564     38562     38565     38568     38565     38568     38571     38572
     38565     38568     38571     38573     38565     38568     38571     38574
     38566     38565     38568     38569     38566     38565     38568     38570
     38566     38565     38568     38571     38567     38565     38568     38569
     38567     38565     38568     38570     38567     38565     38568     38571
     38568     38571     38574     38575     38568     38571     38574     38576
     38568     38571     38574     38577     38569     38568     38571     38572
     38569     38568     38571     38573     38569     38568     38571     38574
     38570     38568     38571     38572     38570     38568     38571     38573
     38570     38568     38571     38574     38571     38574     38577     38578
     38571     38574     38577     38579     38571     38574     38577     38580
     38572     38571     38574     38575     38572     38571     38574     38576
     38572     38571     38574     38577     38573     38571     38574     38575
     38573     38571     38574     38576     38573     38571     38574     38577
     38574     38577     38580     38581     38574     38577     38580     38582
     38574     38577     38580     38583     38575     38574     38577     38578
     38575     38574     38577     38579     38575     38574     38577     38580
     38576     38574     38577     38578     38576     38574     38577     38579
     38576     38574     38577     38580     38577     38580     38583     38584
     38577     38580     38583     38585     38577     38580     38583     38586
     38578     38577     38580     38581     38578     38577     38580     38582
     38578     38577     38580     38583     38579     38577     38580     38581
     38579     38577     38580     38582     38579     38577     38580     38583
     38580     38583     38586     38587     38580     38583     38586     38588
     38580     38583     38586     38589     38581     38580     38583     38584
     38581     38580     38583     38585     38581     38580     38583     38586
     38582     38580     38583     38584     38582     38580     38583     38585
     38582     38580     38583     38586     38583     38586     38589     38590
     38583     38586     38589     38591     38583     38586     38589     38592
     38584     38583     38586     38587     38584     38583     38586     38588
     38584     38583     38586     38589     38585     38583     38586     38587
     38585     38583     38586     38588     38585     38583     38586     38589
     38586     38589     38592     38593     38586     38589     38592     38594
     38586     38589     38592     38595     38587     38586     38589     38590
     38587     38586     38589     38591     38587     38586     38589     38592
     38588     38586     38589     38590     38588     38586     38589     38591
     38588     38586     38589     38592     38590     38589     38592     38593
     38590     38589     38592     38594     38590     38589     38592     38595
     38591     38589     38592     38593     38591     38589     38592     38594
     38591     38589     38592     38595     38596     38597     38612     38613
     38596     38597     38612     38614     38596     38597     38612     38618
     38597     38596     38600     38601     38597     38596     38600     38602
     38597     38596     38600     38603     38597     38596     38604     38605
     38597     38596     38604     38606     38597     38596     38604     38607
     38597     38596     38608     38609     38597     38596     38608     38610
     38597     38596     38608     38611     38597     38612     38618     38615
     38598     38597     38596     38600     38598     38597     38596     38604
     38598     38597     38596     38608     38598     38597     38612     38613
     38598     38597     38612     38614     38598     38597     38612     38618
     38599     38597     38596     38600     38599     38597     38596     38604
     38599     38597     38596     38608     38599     38597     38612     38613
     38599     38597     38612     38614     38599     38597     38612     38618
     38600     38596     38597     38612     38600     38596     38604     38605
     38600     38596     38604     38606     38600     38596     38604     38607
     38600     38596     38608     38609     38600     38596     38608     38610
     38600     38596     38608     38611     38601     38600     38596     38604
     38601     38600     38596     38608     38602     38600     38596     38604
     38602     38600     38596     38608     38603     38600     38596     38604
     38603     38600     38596     38608     38604     38596     38597     38612
     38604     38596     38608     38609     38604     38596     38608     38610
     38604     38596     38608     38611     38605     38604     38596     38608
     38606     38604     38596     38608     38607     38604     38596     38608
     38608     38596     38597     38612     38612     38618     38615     38616
     38612     38618     38615     38617     38612     38618     38615     38619
     38613     38612     38618     38615     38614     38612     38618     38615
     38615     38619     38620     38621     38615     38619     38620     38622
     38615     38619     38620     38623     38616     38615     38619     38620
     38617     38615     38619     38620     38618     38615     38619     38620
     38619     38620     38623     38624     38619     38620     38623     38625
     38619     38620     38623     38631     38620     38623     38625     38626
     38620     38623     38631     38632     38620     38623     38631     38633
     38620     38623     38631     38634     38621     38620     38623     38624
     38621     38620     38623     38625     38621     38620     38623     38631
     38622     38620     38623     38624     38622     38620     38623     38625
     38622     38620     38623     38631     38623     38625     38626     38627
     38623     38625     38626     38628     38623     38631     38634     38635
     38624     38623     38625     38626     38624     38623     38631     38632
     38624     38623     38631     38633     38624     38623     38631     38634
     38625     38623     38631     38632     38625     38623     38631     38633
     38625     38623     38631     38634     38625     38626     38628     38629
     38625     38626     38628     38630     38625     38626     38628     38640
     38626     38625     38623     38631     38626     38628     38640     38641
     38626     38628     38640     38642     38626     38628     38640     38643
     38627     38626     38628     38629     38627     38626     38628     38630
     38627     38626     38628     38640     38628     38640     38643     38644
     38628     38640     38643     38645     38628     38640     38643     38646
     38629     38628     38640     38641     38629     38628     38640     38642
     38629     38628     38640     38643     38630     38628     38640     38641
     38630     38628     38640     38642     38630     38628     38640     38643
     38631     38634     38635     38636     38631     38634     38635     38637
     38632     38631     38634     38635     38633     38631     38634     38635
     38634     38635     38637     38638     38634     38635     38637     38639
     38634     38635     38637     38687     38635     38637     38687     38688
     38635     38637     38687     38689     38635     38637     38687     38690
     38636     38635     38637     38638     38636     38635     38637     38639
     38636     38635     38637     38687     38637     38687     38690     38691
     38637     38687     38690     38692     38637     38687     38690     38693
     38638     38637     38687     38688     38638     38637     38687     38689
     38638     38637     38687     38690     38639     38637     38687     38688
     38639     38637     38687     38689     38639     38637     38687     38690
     38640     38643     38646     38647     38640     38643     38646     38648
     38640     38643     38646     38649     38641     38640     38643     38644
     38641     38640     38643     38645     38641     38640     38643     38646
     38642     38640     38643     38644     38642     38640     38643     38645
     38642     38640     38643     38646     38643     38646     38649     38650
     38643     38646     38649     38651     38643     38646     38649     38652
     38644     38643     38646     38647     38644     38643     38646     38648
     38644     38643     38646     38649     38645     38643     38646     38647
     38645     38643     38646     38648     38645     38643     38646     38649
     38646     38649     38652     38653     38646     38649     38652     38654
     38646     38649     38652     38655     38647     38646     38649     38650
     38647     38646     38649     38651     38647     38646     38649     38652
     38648     38646     38649     38650     38648     38646     38649     38651
     38648     38646     38649     38652     38649     38652     38655     38656
     38649     38652     38655     38657     38649     38652     38655     38658
     38650     38649     38652     38653     38650     38649     38652     38654
     38650     38649     38652     38655     38651     38649     38652     38653
     38651     38649     38652     38654     38651     38649     38652     38655
     38652     38655     38658     38659     38652     38655     38658     38660
     38653     38652     38655     38656     38653     38652     38655     38657
     38653     38652     38655     38658     38654     38652     38655     38656
     38654     38652     38655     38657     38654     38652     38655     38658
     38655     38658     38660     38661     38655     38658     38660     38662
     38656     38655     38658     38659     38656     38655     38658     38660
     38657     38655     38658     38659     38657     38655     38658     38660
     38658     38660     38662     38663     38658     38660     38662     38664
     38658     38660     38662     38665     38659     38658     38660     38661
     38659     38658     38660     38662     38660     38662     38665     38666
     38660     38662     38665     38667     38660     38662     38665     38668
     38661     38660     38662     38663     38661     38660     38662     38664
     38661     38660     38662     38665     38662     38665     38668     38669
     38662     38665     38668     38670     38662     38665     38668     38671
     38663     38662     38665     38666     38663     38662     38665     38667
     38663     38662     38665     38668     38664     38662     38665     38666
     38664     38662     38665     38667     38664     38662     38665     38668
     38665     38668     38671     38672     38665     38668     38671     38673
     38665     38668     38671     38674     38666     38665     38668     38669
     38666     38665     38668     38670     38666     38665     38668     38671
     38667     38665     38668     38669     38667     38665     38668     38670
     38667     38665     38668     38671     38668     38671     38674     38675
     38668     38671     38674     38676     38668     38671     38674     38677
     38669     38668     38671     38672     38669     38668     38671     38673
     38669     38668     38671     38674     38670     38668     38671     38672
     38670     38668     38671     38673     38670     38668     38671     38674
     38671     38674     38677     38678     38671     38674     38677     38679
     38671     38674     38677     38680     38672     38671     38674     38675
     38672     38671     38674     38676     38672     38671     38674     38677
     38673     38671     38674     38675     38673     38671     38674     38676
     38673     38671     38674     38677     38674     38677     38680     38681
     38674     38677     38680     38682     38674     38677     38680     38683
     38675     38674     38677     38678     38675     38674     38677     38679
     38675     38674     38677     38680     38676     38674     38677     38678
     38676     38674     38677     38679     38676     38674     38677     38680
     38677     38680     38683     38684     38677     38680     38683     38685
     38677     38680     38683     38686     38678     38677     38680     38681
     38678     38677     38680     38682     38678     38677     38680     38683
     38679     38677     38680     38681     38679     38677     38680     38682
     38679     38677     38680     38683     38681     38680     38683     38684
     38681     38680     38683     38685     38681     38680     38683     38686
     38682     38680     38683     38684     38682     38680     38683     38685
     38682     38680     38683     38686     38687     38690     38693     38694
     38687     38690     38693     38695     38687     38690     38693     38696
     38688     38687     38690     38691     38688     38687     38690     38692
     38688     38687     38690     38693     38689     38687     38690     38691
     38689     38687     38690     38692     38689     38687     38690     38693
     38690     38693     38696     38697     38690     38693     38696     38698
     38690     38693     38696     38699     38691     38690     38693     38694
     38691     38690     38693     38695     38691     38690     38693     38696
     38692     38690     38693     38694     38692     38690     38693     38695
     38692     38690     38693     38696     38693     38696     38699     38700
     38693     38696     38699     38701     38693     38696     38699     38702
     38694     38693     38696     38697     38694     38693     38696     38698
     38694     38693     38696     38699     38695     38693     38696     38697
     38695     38693     38696     38698     38695     38693     38696     38699
     38696     38699     38702     38703     38696     38699     38702     38704
     38696     38699     38702     38705     38697     38696     38699     38700
     38697     38696     38699     38701     38697     38696     38699     38702
     38698     38696     38699     38700     38698     38696     38699     38701
     38698     38696     38699     38702     38699     38702     38705     38706
     38699     38702     38705     38707     38699     38702     38705     38708
     38700     38699     38702     38703     38700     38699     38702     38704
     38700     38699     38702     38705     38701     38699     38702     38703
     38701     38699     38702     38704     38701     38699     38702     38705
     38702     38705     38708     38709     38702     38705     38708     38710
     38702     38705     38708     38711     38703     38702     38705     38706
     38703     38702     38705     38707     38703     38702     38705     38708
     38704     38702     38705     38706     38704     38702     38705     38707
     38704     38702     38705     38708     38705     38708     38711     38712
     38705     38708     38711     38713     38705     38708     38711     38714
     38706     38705     38708     38709     38706     38705     38708     38710
     38706     38705     38708     38711     38707     38705     38708     38709
     38707     38705     38708     38710     38707     38705     38708     38711
     38708     38711     38714     38715     38708     38711     38714     38716
     38708     38711     38714     38717     38709     38708     38711     38712
     38709     38708     38711     38713     38709     38708     38711     38714
     38710     38708     38711     38712     38710     38708     38711     38713
     38710     38708     38711     38714     38711     38714     38717     38718
     38711     38714     38717     38719     38711     38714     38717     38720
     38712     38711     38714     38715     38712     38711     38714     38716
     38712     38711     38714     38717     38713     38711     38714     38715
     38713     38711     38714     38716     38713     38711     38714     38717
     38714     38717     38720     38721     38714     38717     38720     38722
     38714     38717     38720     38723     38715     38714     38717     38718
     38715     38714     38717     38719     38715     38714     38717     38720
     38716     38714     38717     38718     38716     38714     38717     38719
     38716     38714     38717     38720     38717     38720     38723     38724
     38717     38720     38723     38725     38717     38720     38723     38726
     38718     38717     38720     38721     38718     38717     38720     38722
     38718     38717     38720     38723     38719     38717     38720     38721
     38719     38717     38720     38722     38719     38717     38720     38723
     38720     38723     38726     38727     38720     38723     38726     38728
     38720     38723     38726     38729     38721     38720     38723     38724
     38721     38720     38723     38725     38721     38720     38723     38726
     38722     38720     38723     38724     38722     38720     38723     38725
     38722     38720     38723     38726     38724     38723     38726     38727
     38724     38723     38726     38728     38724     38723     38726     38729
     38725     38723     38726     38727     38725     38723     38726     38728
     38725     38723     38726     38729     38730     38731     38746     38747
     38730     38731     38746     38748     38730     38731     38746     38752
     38731     38730     38734     38735     38731     38730     38734     38736
     38731     38730     38734     38737     38731     38730     38738     38739
     38731     38730     38738     38740     38731     38730     38738     38741
     38731     38730     38742     38743     38731     38730     38742     38744
     38731     38730     38742     38745     38731     38746     38752     38749
     38732     38731     38730     38734     38732     38731     38730     38738
     38732     38731     38730     38742     38732     38731     38746     38747
     38732     38731     38746     38748     38732     38731     38746     38752
     38733     38731     38730     38734     38733     38731     38730     38738
     38733     38731     38730     38742     38733     38731     38746     38747
     38733     38731     38746     38748     38733     38731     38746     38752
     38734     38730     38731     38746     38734     38730     38738     38739
     38734     38730     38738     38740     38734     38730     38738     38741
     38734     38730     38742     38743     38734     38730     38742     38744
     38734     38730     38742     38745     38735     38734     38730     38738
     38735     38734     38730     38742     38736     38734     38730     38738
     38736     38734     38730     38742     38737     38734     38730     38738
     38737     38734     38730     38742     38738     38730     38731     38746
     38738     38730     38742     38743     38738     38730     38742     38744
     38738     38730     38742     38745     38739     38738     38730     38742
     38740     38738     38730     38742     38741     38738     38730     38742
     38742     38730     38731     38746     38746     38752     38749     38750
     38746     38752     38749     38751     38746     38752     38749     38753
     38747     38746     38752     38749     38748     38746     38752     38749
     38749     38753     38754     38755     38749     38753     38754     38756
     38749     38753     38754     38757     38750     38749     38753     38754
     38751     38749     38753     38754     38752     38749     38753     38754
     38753     38754     38757     38758     38753     38754     38757     38759
     38753     38754     38757     38765     38754     38757     38759     38760
     38754     38757     38765     38766     38754     38757     38765     38767
     38754     38757     38765     38768     38755     38754     38757     38758
     38755     38754     38757     38759     38755     38754     38757     38765
     38756     38754     38757     38758     38756     38754     38757     38759
     38756     38754     38757     38765     38757     38759     38760     38761
     38757     38759     38760     38762     38757     38765     38768     38769
     38758     38757     38759     38760     38758     38757     38765     38766
     38758     38757     38765     38767     38758     38757     38765     38768
     38759     38757     38765     38766     38759     38757     38765     38767
     38759     38757     38765     38768     38759     38760     38762     38763
     38759     38760     38762     38764     38759     38760     38762     38774
     38760     38759     38757     38765     38760     38762     38774     38775
     38760     38762     38774     38776     38760     38762     38774     38777
     38761     38760     38762     38763     38761     38760     38762     38764
     38761     38760     38762     38774     38762     38774     38777     38778
     38762     38774     38777     38779     38762     38774     38777     38780
     38763     38762     38774     38775     38763     38762     38774     38776
     38763     38762     38774     38777     38764     38762     38774     38775
     38764     38762     38774     38776     38764     38762     38774     38777
     38765     38768     38769     38770     38765     38768     38769     38771
     38766     38765     38768     38769     38767     38765     38768     38769
     38768     38769     38771     38772     38768     38769     38771     38773
     38768     38769     38771     38821     38769     38771     38821     38822
     38769     38771     38821     38823     38769     38771     38821     38824
     38770     38769     38771     38772     38770     38769     38771     38773
     38770     38769     38771     38821     38771     38821     38824     38825
     38771     38821     38824     38826     38771     38821     38824     38827
     38772     38771     38821     38822     38772     38771     38821     38823
     38772     38771     38821     38824     38773     38771     38821     38822
     38773     38771     38821     38823     38773     38771     38821     38824
     38774     38777     38780     38781     38774     38777     38780     38782
     38774     38777     38780     38783     38775     38774     38777     38778
     38775     38774     38777     38779     38775     38774     38777     38780
     38776     38774     38777     38778     38776     38774     38777     38779
     38776     38774     38777     38780     38777     38780     38783     38784
     38777     38780     38783     38785     38777     38780     38783     38786
     38778     38777     38780     38781     38778     38777     38780     38782
     38778     38777     38780     38783     38779     38777     38780     38781
     38779     38777     38780     38782     38779     38777     38780     38783
     38780     38783     38786     38787     38780     38783     38786     38788
     38780     38783     38786     38789     38781     38780     38783     38784
     38781     38780     38783     38785     38781     38780     38783     38786
     38782     38780     38783     38784     38782     38780     38783     38785
     38782     38780     38783     38786     38783     38786     38789     38790
     38783     38786     38789     38791     38783     38786     38789     38792
     38784     38783     38786     38787     38784     38783     38786     38788
     38784     38783     38786     38789     38785     38783     38786     38787
     38785     38783     38786     38788     38785     38783     38786     38789
     38786     38789     38792     38793     38786     38789     38792     38794
     38787     38786     38789     38790     38787     38786     38789     38791
     38787     38786     38789     38792     38788     38786     38789     38790
     38788     38786     38789     38791     38788     38786     38789     38792
     38789     38792     38794     38795     38789     38792     38794     38796
     38790     38789     38792     38793     38790     38789     38792     38794
     38791     38789     38792     38793     38791     38789     38792     38794
     38792     38794     38796     38797     38792     38794     38796     38798
     38792     38794     38796     38799     38793     38792     38794     38795
     38793     38792     38794     38796     38794     38796     38799     38800
     38794     38796     38799     38801     38794     38796     38799     38802
     38795     38794     38796     38797     38795     38794     38796     38798
     38795     38794     38796     38799     38796     38799     38802     38803
     38796     38799     38802     38804     38796     38799     38802     38805
     38797     38796     38799     38800     38797     38796     38799     38801
     38797     38796     38799     38802     38798     38796     38799     38800
     38798     38796     38799     38801     38798     38796     38799     38802
     38799     38802     38805     38806     38799     38802     38805     38807
     38799     38802     38805     38808     38800     38799     38802     38803
     38800     38799     38802     38804     38800     38799     38802     38805
     38801     38799     38802     38803     38801     38799     38802     38804
     38801     38799     38802     38805     38802     38805     38808     38809
     38802     38805     38808     38810     38802     38805     38808     38811
     38803     38802     38805     38806     38803     38802     38805     38807
     38803     38802     38805     38808     38804     38802     38805     38806
     38804     38802     38805     38807     38804     38802     38805     38808
     38805     38808     38811     38812     38805     38808     38811     38813
     38805     38808     38811     38814     38806     38805     38808     38809
     38806     38805     38808     38810     38806     38805     38808     38811
     38807     38805     38808     38809     38807     38805     38808     38810
     38807     38805     38808     38811     38808     38811     38814     38815
     38808     38811     38814     38816     38808     38811     38814     38817
     38809     38808     38811     38812     38809     38808     38811     38813
     38809     38808     38811     38814     38810     38808     38811     38812
     38810     38808     38811     38813     38810     38808     38811     38814
     38811     38814     38817     38818     38811     38814     38817     38819
     38811     38814     38817     38820     38812     38811     38814     38815
     38812     38811     38814     38816     38812     38811     38814     38817
     38813     38811     38814     38815     38813     38811     38814     38816
     38813     38811     38814     38817     38815     38814     38817     38818
     38815     38814     38817     38819     38815     38814     38817     38820
     38816     38814     38817     38818     38816     38814     38817     38819
     38816     38814     38817     38820     38821     38824     38827     38828
     38821     38824     38827     38829     38821     38824     38827     38830
     38822     38821     38824     38825     38822     38821     38824     38826
     38822     38821     38824     38827     38823     38821     38824     38825
     38823     38821     38824     38826     38823     38821     38824     38827
     38824     38827     38830     38831     38824     38827     38830     38832
     38824     38827     38830     38833     38825     38824     38827     38828
     38825     38824     38827     38829     38825     38824     38827     38830
     38826     38824     38827     38828     38826     38824     38827     38829
     38826     38824     38827     38830     38827     38830     38833     38834
     38827     38830     38833     38835     38827     38830     38833     38836
     38828     38827     38830     38831     38828     38827     38830     38832
     38828     38827     38830     38833     38829     38827     38830     38831
     38829     38827     38830     38832     38829     38827     38830     38833
     38830     38833     38836     38837     38830     38833     38836     38838
     38830     38833     38836     38839     38831     38830     38833     38834
     38831     38830     38833     38835     38831     38830     38833     38836
     38832     38830     38833     38834     38832     38830     38833     38835
     38832     38830     38833     38836     38833     38836     38839     38840
     38833     38836     38839     38841     38833     38836     38839     38842
     38834     38833     38836     38837     38834     38833     38836     38838
     38834     38833     38836     38839     38835     38833     38836     38837
     38835     38833     38836     38838     38835     38833     38836     38839
     38836     38839     38842     38843     38836     38839     38842     38844
     38836     38839     38842     38845     38837     38836     38839     38840
     38837     38836     38839     38841     38837     38836     38839     38842
     38838     38836     38839     38840     38838     38836     38839     38841
     38838     38836     38839     38842     38839     38842     38845     38846
     38839     38842     38845     38847     38839     38842     38845     38848
     38840     38839     38842     38843     38840     38839     38842     38844
     38840     38839     38842     38845     38841     38839     38842     38843
     38841     38839     38842     38844     38841     38839     38842     38845
     38842     38845     38848     38849     38842     38845     38848     38850
     38842     38845     38848     38851     38843     38842     38845     38846
     38843     38842     38845     38847     38843     38842     38845     38848
     38844     38842     38845     38846     38844     38842     38845     38847
     38844     38842     38845     38848     38845     38848     38851     38852
     38845     38848     38851     38853     38845     38848     38851     38854
     38846     38845     38848     38849     38846     38845     38848     38850
     38846     38845     38848     38851     38847     38845     38848     38849
     38847     38845     38848     38850     38847     38845     38848     38851
     38848     38851     38854     38855     38848     38851     38854     38856
     38848     38851     38854     38857     38849     38848     38851     38852
     38849     38848     38851     38853     38849     38848     38851     38854
     38850     38848     38851     38852     38850     38848     38851     38853
     38850     38848     38851     38854     38851     38854     38857     38858
     38851     38854     38857     38859     38851     38854     38857     38860
     38852     38851     38854     38855     38852     38851     38854     38856
     38852     38851     38854     38857     38853     38851     38854     38855
     38853     38851     38854     38856     38853     38851     38854     38857
     38854     38857     38860     38861     38854     38857     38860     38862
     38854     38857     38860     38863     38855     38854     38857     38858
     38855     38854     38857     38859     38855     38854     38857     38860
     38856     38854     38857     38858     38856     38854     38857     38859
     38856     38854     38857     38860     38858     38857     38860     38861
     38858     38857     38860     38862     38858     38857     38860     38863
     38859     38857     38860     38861     38859     38857     38860     38862
     38859     38857     38860     38863     38864     38868     38871     38872
     38864     38868     38871     38873     38864     38868     38871     38878
     38865     38864     38868     38869     38865     38864     38868     38870
     38865     38864     38868     38871     38866     38864     38868     38869
     38866     38864     38868     38870     38866     38864     38868     38871
     38867     38864     38868     38869     38867     38864     38868     38870
     38867     38864     38868     38871     38868     38871     38878     38874
     38869     38868     38871     38872     38869     38868     38871     38873
     38869     38868     38871     38878     38870     38868     38871     38872
     38870     38868     38871     38873     38870     38868     38871     38878
     38871     38878     38874     38875     38871     38878     38874     38876
     38871     38878     38874     38877     38872     38871     38878     38874
     38873     38871     38878     38874     38874     38877     38879     38880
     38874     38877     38879     38881     38874     38877     38879     38882
     38875     38874     38877     38879     38876     38874     38877     38879
     38877     38879     38882     38883     38877     38879     38882     38884
     38877     38879     38882     38890     38878     38874     38877     38879
     38879     38882     38884     38885     38879     38882     38890     38891
     38879     38882     38890     38892     38879     38882     38890     38893
     38880     38879     38882     38883     38880     38879     38882     38884
     38880     38879     38882     38890     38881     38879     38882     38883
     38881     38879     38882     38884     38881     38879     38882     38890
     38882     38884     38885     38886     38882     38884     38885     38887
     38882     38890     38893     38894     38883     38882     38884     38885
     38883     38882     38890     38891     38883     38882     38890     38892
     38883     38882     38890     38893     38884     38882     38890     38891
     38884     38882     38890     38892     38884     38882     38890     38893
     38884     38885     38887     38888     38884     38885     38887     38889
     38884     38885     38887     38899     38885     38884     38882     38890
     38885     38887     38899     38900     38885     38887     38899     38901
     38885     38887     38899     38902     38886     38885     38887     38888
     38886     38885     38887     38889     38886     38885     38887     38899
     38887     38899     38902     38903     38887     38899     38902     38904
     38887     38899     38902     38905     38888     38887     38899     38900
     38888     38887     38899     38901     38888     38887     38899     38902
     38889     38887     38899     38900     38889     38887     38899     38901
     38889     38887     38899     38902     38890     38893     38894     38895
     38890     38893     38894     38896     38891     38890     38893     38894
     38892     38890     38893     38894     38893     38894     38896     38897
     38893     38894     38896     38898     38893     38894     38896     38946
     38894     38896     38946     38947     38894     38896     38946     38948
     38894     38896     38946     38949     38895     38894     38896     38897
     38895     38894     38896     38898     38895     38894     38896     38946
     38896     38946     38949     38950     38896     38946     38949     38951
     38896     38946     38949     38952     38897     38896     38946     38947
     38897     38896     38946     38948     38897     38896     38946     38949
     38898     38896     38946     38947     38898     38896     38946     38948
     38898     38896     38946     38949     38899     38902     38905     38906
     38899     38902     38905     38907     38899     38902     38905     38908
     38900     38899     38902     38903     38900     38899     38902     38904
     38900     38899     38902     38905     38901     38899     38902     38903
     38901     38899     38902     38904     38901     38899     38902     38905
     38902     38905     38908     38909     38902     38905     38908     38910
     38902     38905     38908     38911     38903     38902     38905     38906
     38903     38902     38905     38907     38903     38902     38905     38908
     38904     38902     38905     38906     38904     38902     38905     38907
     38904     38902     38905     38908     38905     38908     38911     38912
     38905     38908     38911     38913     38905     38908     38911     38914
     38906     38905     38908     38909     38906     38905     38908     38910
     38906     38905     38908     38911     38907     38905     38908     38909
     38907     38905     38908     38910     38907     38905     38908     38911
     38908     38911     38914     38915     38908     38911     38914     38916
     38908     38911     38914     38917     38909     38908     38911     38912
     38909     38908     38911     38913     38909     38908     38911     38914
     38910     38908     38911     38912     38910     38908     38911     38913
     38910     38908     38911     38914     38911     38914     38917     38918
     38911     38914     38917     38919     38912     38911     38914     38915
     38912     38911     38914     38916     38912     38911     38914     38917
     38913     38911     38914     38915     38913     38911     38914     38916
     38913     38911     38914     38917     38914     38917     38919     38920
     38914     38917     38919     38921     38915     38914     38917     38918
     38915     38914     38917     38919     38916     38914     38917     38918
     38916     38914     38917     38919     38917     38919     38921     38922
     38917     38919     38921     38923     38917     38919     38921     38924
     38918     38917     38919     38920     38918     38917     38919     38921
     38919     38921     38924     38925     38919     38921     38924     38926
     38919     38921     38924     38927     38920     38919     38921     38922
     38920     38919     38921     38923     38920     38919     38921     38924
     38921     38924     38927     38928     38921     38924     38927     38929
     38921     38924     38927     38930     38922     38921     38924     38925
     38922     38921     38924     38926     38922     38921     38924     38927
     38923     38921     38924     38925     38923     38921     38924     38926
     38923     38921     38924     38927     38924     38927     38930     38931
     38924     38927     38930     38932     38924     38927     38930     38933
     38925     38924     38927     38928     38925     38924     38927     38929
     38925     38924     38927     38930     38926     38924     38927     38928
     38926     38924     38927     38929     38926     38924     38927     38930
     38927     38930     38933     38934     38927     38930     38933     38935
     38927     38930     38933     38936     38928     38927     38930     38931
     38928     38927     38930     38932     38928     38927     38930     38933
     38929     38927     38930     38931     38929     38927     38930     38932
     38929     38927     38930     38933     38930     38933     38936     38937
     38930     38933     38936     38938     38930     38933     38936     38939
     38931     38930     38933     38934     38931     38930     38933     38935
     38931     38930     38933     38936     38932     38930     38933     38934
     38932     38930     38933     38935     38932     38930     38933     38936
     38933     38936     38939     38940     38933     38936     38939     38941
     38933     38936     38939     38942     38934     38933     38936     38937
     38934     38933     38936     38938     38934     38933     38936     38939
     38935     38933     38936     38937     38935     38933     38936     38938
     38935     38933     38936     38939     38936     38939     38942     38943
     38936     38939     38942     38944     38936     38939     38942     38945
     38937     38936     38939     38940     38937     38936     38939     38941
     38937     38936     38939     38942     38938     38936     38939     38940
     38938     38936     38939     38941     38938     38936     38939     38942
     38940     38939     38942     38943     38940     38939     38942     38944
     38940     38939     38942     38945     38941     38939     38942     38943
     38941     38939     38942     38944     38941     38939     38942     38945
     38946     38949     38952     38953     38946     38949     38952     38954
     38946     38949     38952     38955     38947     38946     38949     38950
     38947     38946     38949     38951     38947     38946     38949     38952
     38948     38946     38949     38950     38948     38946     38949     38951
     38948     38946     38949     38952     38949     38952     38955     38956
     38949     38952     38955     38957     38949     38952     38955     38958
     38950     38949     38952     38953     38950     38949     38952     38954
     38950     38949     38952     38955     38951     38949     38952     38953
     38951     38949     38952     38954     38951     38949     38952     38955
     38952     38955     38958     38959     38952     38955     38958     38960
     38952     38955     38958     38961     38953     38952     38955     38956
     38953     38952     38955     38957     38953     38952     38955     38958
     38954     38952     38955     38956     38954     38952     38955     38957
     38954     38952     38955     38958     38955     38958     38961     38962
     38955     38958     38961     38963     38955     38958     38961     38964
     38956     38955     38958     38959     38956     38955     38958     38960
     38956     38955     38958     38961     38957     38955     38958     38959
     38957     38955     38958     38960     38957     38955     38958     38961
     38958     38961     38964     38965     38958     38961     38964     38966
     38958     38961     38964     38967     38959     38958     38961     38962
     38959     38958     38961     38963     38959     38958     38961     38964
     38960     38958     38961     38962     38960     38958     38961     38963
     38960     38958     38961     38964     38961     38964     38967     38968
     38961     38964     38967     38969     38961     38964     38967     38970
     38962     38961     38964     38965     38962     38961     38964     38966
     38962     38961     38964     38967     38963     38961     38964     38965
     38963     38961     38964     38966     38963     38961     38964     38967
     38964     38967     38970     38971     38964     38967     38970     38972
     38964     38967     38970     38973     38965     38964     38967     38968
     38965     38964     38967     38969     38965     38964     38967     38970
     38966     38964     38967     38968     38966     38964     38967     38969
     38966     38964     38967     38970     38967     38970     38973     38974
     38967     38970     38973     38975     38967     38970     38973     38976
     38968     38967     38970     38971     38968     38967     38970     38972
     38968     38967     38970     38973     38969     38967     38970     38971
     38969     38967     38970     38972     38969     38967     38970     38973
     38970     38973     38976     38977     38970     38973     38976     38978
     38970     38973     38976     38979     38971     38970     38973     38974
     38971     38970     38973     38975     38971     38970     38973     38976
     38972     38970     38973     38974     38972     38970     38973     38975
     38972     38970     38973     38976     38973     38976     38979     38980
     38973     38976     38979     38981     38973     38976     38979     38982
     38974     38973     38976     38977     38974     38973     38976     38978
     38974     38973     38976     38979     38975     38973     38976     38977
     38975     38973     38976     38978     38975     38973     38976     38979
     38976     38979     38982     38983     38976     38979     38982     38984
     38976     38979     38982     38985     38977     38976     38979     38980
     38977     38976     38979     38981     38977     38976     38979     38982
     38978     38976     38979     38980     38978     38976     38979     38981
     38978     38976     38979     38982     38979     38982     38985     38986
     38979     38982     38985     38987     38979     38982     38985     38988
     38980     38979     38982     38983     38980     38979     38982     38984
     38980     38979     38982     38985     38981     38979     38982     38983
     38981     38979     38982     38984     38981     38979     38982     38985
     38983     38982     38985     38986     38983     38982     38985     38987
     38983     38982     38985     38988     38984     38982     38985     38986
     38984     38982     38985     38987     38984     38982     38985     38988
     38989     38990     39005     39006     38989     38990     39005     39007
     38989     38990     39005     39011     38990     38989     38993     38994
     38990     38989     38993     38995     38990     38989     38993     38996
     38990     38989     38997     38998     38990     38989     38997     38999
     38990     38989     38997     39000     38990     38989     39001     39002
     38990     38989     39001     39003     38990     38989     39001     39004
     38990     39005     39011     39008     38991     38990     38989     38993
     38991     38990     38989     38997     38991     38990     38989     39001
     38991     38990     39005     39006     38991     38990     39005     39007
     38991     38990     39005     39011     38992     38990     38989     38993
     38992     38990     38989     38997     38992     38990     38989     39001
     38992     38990     39005     39006     38992     38990     39005     39007
     38992     38990     39005     39011     38993     38989     38990     39005
     38993     38989     38997     38998     38993     38989     38997     38999
     38993     38989     38997     39000     38993     38989     39001     39002
     38993     38989     39001     39003     38993     38989     39001     39004
     38994     38993     38989     38997     38994     38993     38989     39001
     38995     38993     38989     38997     38995     38993     38989     39001
     38996     38993     38989     38997     38996     38993     38989     39001
     38997     38989     38990     39005     38997     38989     39001     39002
     38997     38989     39001     39003     38997     38989     39001     39004
     38998     38997     38989     39001     38999     38997     38989     39001
     39000     38997     38989     39001     39001     38989     38990     39005
     39005     39011     39008     39009     39005     39011     39008     39010
     39005     39011     39008     39012     39006     39005     39011     39008
     39007     39005     39011     39008     39008     39012     39013     39014
     39008     39012     39013     39015     39008     39012     39013     39016
     39009     39008     39012     39013     39010     39008     39012     39013
     39011     39008     39012     39013     39012     39013     39016     39017
     39012     39013     39016     39018     39012     39013     39016     39024
     39013     39016     39018     39019     39013     39016     39024     39025
     39013     39016     39024     39026     39013     39016     39024     39027
     39014     39013     39016     39017     39014     39013     39016     39018
     39014     39013     39016     39024     39015     39013     39016     39017
     39015     39013     39016     39018     39015     39013     39016     39024
     39016     39018     39019     39020     39016     39018     39019     39021
     39016     39024     39027     39028     39017     39016     39018     39019
     39017     39016     39024     39025     39017     39016     39024     39026
     39017     39016     39024     39027     39018     39016     39024     39025
     39018     39016     39024     39026     39018     39016     39024     39027
     39018     39019     39021     39022     39018     39019     39021     39023
     39018     39019     39021     39033     39019     39018     39016     39024
     39019     39021     39033     39034     39019     39021     39033     39035
     39019     39021     39033     39036     39020     39019     39021     39022
     39020     39019     39021     39023     39020     39019     39021     39033
     39021     39033     39036     39037     39021     39033     39036     39038
     39021     39033     39036     39039     39022     39021     39033     39034
     39022     39021     39033     39035     39022     39021     39033     39036
     39023     39021     39033     39034     39023     39021     39033     39035
     39023     39021     39033     39036     39024     39027     39028     39029
     39024     39027     39028     39030     39025     39024     39027     39028
     39026     39024     39027     39028     39027     39028     39030     39031
     39027     39028     39030     39032     39027     39028     39030     39080
     39028     39030     39080     39081     39028     39030     39080     39082
     39028     39030     39080     39083     39029     39028     39030     39031
     39029     39028     39030     39032     39029     39028     39030     39080
     39030     39080     39083     39084     39030     39080     39083     39085
     39030     39080     39083     39086     39031     39030     39080     39081
     39031     39030     39080     39082     39031     39030     39080     39083
     39032     39030     39080     39081     39032     39030     39080     39082
     39032     39030     39080     39083     39033     39036     39039     39040
     39033     39036     39039     39041     39033     39036     39039     39042
     39034     39033     39036     39037     39034     39033     39036     39038
     39034     39033     39036     39039     39035     39033     39036     39037
     39035     39033     39036     39038     39035     39033     39036     39039
     39036     39039     39042     39043     39036     39039     39042     39044
     39036     39039     39042     39045     39037     39036     39039     39040
     39037     39036     39039     39041     39037     39036     39039     39042
     39038     39036     39039     39040     39038     39036     39039     39041
     39038     39036     39039     39042     39039     39042     39045     39046
     39039     39042     39045     39047     39039     39042     39045     39048
     39040     39039     39042     39043     39040     39039     39042     39044
     39040     39039     39042     39045     39041     39039     39042     39043
     39041     39039     39042     39044     39041     39039     39042     39045
     39042     39045     39048     39049     39042     39045     39048     39050
     39042     39045     39048     39051     39043     39042     39045     39046
     39043     39042     39045     39047     39043     39042     39045     39048
     39044     39042     39045     39046     39044     39042     39045     39047
     39044     39042     39045     39048     39045     39048     39051     39052
     39045     39048     39051     39053     39046     39045     39048     39049
     39046     39045     39048     39050     39046     39045     39048     39051
     39047     39045     39048     39049     39047     39045     39048     39050
     39047     39045     39048     39051     39048     39051     39053     39054
     39048     39051     39053     39055     39049     39048     39051     39052
     39049     39048     39051     39053     39050     39048     39051     39052
     39050     39048     39051     39053     39051     39053     39055     39056
     39051     39053     39055     39057     39051     39053     39055     39058
     39052     39051     39053     39054     39052     39051     39053     39055
     39053     39055     39058     39059     39053     39055     39058     39060
     39053     39055     39058     39061     39054     39053     39055     39056
     39054     39053     39055     39057     39054     39053     39055     39058
     39055     39058     39061     39062     39055     39058     39061     39063
     39055     39058     39061     39064     39056     39055     39058     39059
     39056     39055     39058     39060     39056     39055     39058     39061
     39057     39055     39058     39059     39057     39055     39058     39060
     39057     39055     39058     39061     39058     39061     39064     39065
     39058     39061     39064     39066     39058     39061     39064     39067
     39059     39058     39061     39062     39059     39058     39061     39063
     39059     39058     39061     39064     39060     39058     39061     39062
     39060     39058     39061     39063     39060     39058     39061     39064
     39061     39064     39067     39068     39061     39064     39067     39069
     39061     39064     39067     39070     39062     39061     39064     39065
     39062     39061     39064     39066     39062     39061     39064     39067
     39063     39061     39064     39065     39063     39061     39064     39066
     39063     39061     39064     39067     39064     39067     39070     39071
     39064     39067     39070     39072     39064     39067     39070     39073
     39065     39064     39067     39068     39065     39064     39067     39069
     39065     39064     39067     39070     39066     39064     39067     39068
     39066     39064     39067     39069     39066     39064     39067     39070
     39067     39070     39073     39074     39067     39070     39073     39075
     39067     39070     39073     39076     39068     39067     39070     39071
     39068     39067     39070     39072     39068     39067     39070     39073
     39069     39067     39070     39071     39069     39067     39070     39072
     39069     39067     39070     39073     39070     39073     39076     39077
     39070     39073     39076     39078     39070     39073     39076     39079
     39071     39070     39073     39074     39071     39070     39073     39075
     39071     39070     39073     39076     39072     39070     39073     39074
     39072     39070     39073     39075     39072     39070     39073     39076
     39074     39073     39076     39077     39074     39073     39076     39078
     39074     39073     39076     39079     39075     39073     39076     39077
     39075     39073     39076     39078     39075     39073     39076     39079
     39080     39083     39086     39087     39080     39083     39086     39088
     39080     39083     39086     39089     39081     39080     39083     39084
     39081     39080     39083     39085     39081     39080     39083     39086
     39082     39080     39083     39084     39082     39080     39083     39085
     39082     39080     39083     39086     39083     39086     39089     39090
     39083     39086     39089     39091     39083     39086     39089     39092
     39084     39083     39086     39087     39084     39083     39086     39088
     39084     39083     39086     39089     39085     39083     39086     39087
     39085     39083     39086     39088     39085     39083     39086     39089
     39086     39089     39092     39093     39086     39089     39092     39094
     39086     39089     39092     39095     39087     39086     39089     39090
     39087     39086     39089     39091     39087     39086     39089     39092
     39088     39086     39089     39090     39088     39086     39089     39091
     39088     39086     39089     39092     39089     39092     39095     39096
     39089     39092     39095     39097     39089     39092     39095     39098
     39090     39089     39092     39093     39090     39089     39092     39094
     39090     39089     39092     39095     39091     39089     39092     39093
     39091     39089     39092     39094     39091     39089     39092     39095
     39092     39095     39098     39099     39092     39095     39098     39100
     39092     39095     39098     39101     39093     39092     39095     39096
     39093     39092     39095     39097     39093     39092     39095     39098
     39094     39092     39095     39096     39094     39092     39095     39097
     39094     39092     39095     39098     39095     39098     39101     39102
     39095     39098     39101     39103     39095     39098     39101     39104
     39096     39095     39098     39099     39096     39095     39098     39100
     39096     39095     39098     39101     39097     39095     39098     39099
     39097     39095     39098     39100     39097     39095     39098     39101
     39098     39101     39104     39105     39098     39101     39104     39106
     39098     39101     39104     39107     39099     39098     39101     39102
     39099     39098     39101     39103     39099     39098     39101     39104
     39100     39098     39101     39102     39100     39098     39101     39103
     39100     39098     39101     39104     39101     39104     39107     39108
     39101     39104     39107     39109     39101     39104     39107     39110
     39102     39101     39104     39105     39102     39101     39104     39106
     39102     39101     39104     39107     39103     39101     39104     39105
     39103     39101     39104     39106     39103     39101     39104     39107
     39104     39107     39110     39111     39104     39107     39110     39112
     39104     39107     39110     39113     39105     39104     39107     39108
     39105     39104     39107     39109     39105     39104     39107     39110
     39106     39104     39107     39108     39106     39104     39107     39109
     39106     39104     39107     39110     39107     39110     39113     39114
     39107     39110     39113     39115     39107     39110     39113     39116
     39108     39107     39110     39111     39108     39107     39110     39112
     39108     39107     39110     39113     39109     39107     39110     39111
     39109     39107     39110     39112     39109     39107     39110     39113
     39110     39113     39116     39117     39110     39113     39116     39118
     39110     39113     39116     39119     39111     39110     39113     39114
     39111     39110     39113     39115     39111     39110     39113     39116
     39112     39110     39113     39114     39112     39110     39113     39115
     39112     39110     39113     39116     39113     39116     39119     39120
     39113     39116     39119     39121     39113     39116     39119     39122
     39114     39113     39116     39117     39114     39113     39116     39118
     39114     39113     39116     39119     39115     39113     39116     39117
     39115     39113     39116     39118     39115     39113     39116     39119
     39117     39116     39119     39120     39117     39116     39119     39121
     39117     39116     39119     39122     39118     39116     39119     39120
     39118     39116     39119     39121     39118     39116     39119     39122
     39123     39127     39130     39131     39123     39127     39130     39132
     39123     39127     39130     39137     39124     39123     39127     39128
     39124     39123     39127     39129     39124     39123     39127     39130
     39125     39123     39127     39128     39125     39123     39127     39129
     39125     39123     39127     39130     39126     39123     39127     39128
     39126     39123     39127     39129     39126     39123     39127     39130
     39127     39130     39137     39133     39128     39127     39130     39131
     39128     39127     39130     39132     39128     39127     39130     39137
     39129     39127     39130     39131     39129     39127     39130     39132
     39129     39127     39130     39137     39130     39137     39133     39134
     39130     39137     39133     39135     39130     39137     39133     39136
     39131     39130     39137     39133     39132     39130     39137     39133
     39133     39136     39138     39139     39133     39136     39138     39140
     39133     39136     39138     39141     39134     39133     39136     39138
     39135     39133     39136     39138     39136     39138     39141     39142
     39136     39138     39141     39143     39136     39138     39141     39149
     39137     39133     39136     39138     39138     39141     39143     39144
     39138     39141     39149     39150     39138     39141     39149     39151
     39138     39141     39149     39152     39139     39138     39141     39142
     39139     39138     39141     39143     39139     39138     39141     39149
     39140     39138     39141     39142     39140     39138     39141     39143
     39140     39138     39141     39149     39141     39143     39144     39145
     39141     39143     39144     39146     39141     39149     39152     39153
     39142     39141     39143     39144     39142     39141     39149     39150
     39142     39141     39149     39151     39142     39141     39149     39152
     39143     39141     39149     39150     39143     39141     39149     39151
     39143     39141     39149     39152     39143     39144     39146     39147
     39143     39144     39146     39148     39143     39144     39146     39158
     39144     39143     39141     39149     39144     39146     39158     39159
     39144     39146     39158     39160     39144     39146     39158     39161
     39145     39144     39146     39147     39145     39144     39146     39148
     39145     39144     39146     39158     39146     39158     39161     39162
     39146     39158     39161     39163     39146     39158     39161     39164
     39147     39146     39158     39159     39147     39146     39158     39160
     39147     39146     39158     39161     39148     39146     39158     39159
     39148     39146     39158     39160     39148     39146     39158     39161
     39149     39152     39153     39154     39149     39152     39153     39155
     39150     39149     39152     39153     39151     39149     39152     39153
     39152     39153     39155     39156     39152     39153     39155     39157
     39152     39153     39155     39205     39153     39155     39205     39206
     39153     39155     39205     39207     39153     39155     39205     39208
     39154     39153     39155     39156     39154     39153     39155     39157
     39154     39153     39155     39205     39155     39205     39208     39209
     39155     39205     39208     39210     39155     39205     39208     39211
     39156     39155     39205     39206     39156     39155     39205     39207
     39156     39155     39205     39208     39157     39155     39205     39206
     39157     39155     39205     39207     39157     39155     39205     39208
     39158     39161     39164     39165     39158     39161     39164     39166
     39158     39161     39164     39167     39159     39158     39161     39162
     39159     39158     39161     39163     39159     39158     39161     39164
     39160     39158     39161     39162     39160     39158     39161     39163
     39160     39158     39161     39164     39161     39164     39167     39168
     39161     39164     39167     39169     39161     39164     39167     39170
     39162     39161     39164     39165     39162     39161     39164     39166
     39162     39161     39164     39167     39163     39161     39164     39165
     39163     39161     39164     39166     39163     39161     39164     39167
     39164     39167     39170     39171     39164     39167     39170     39172
     39164     39167     39170     39173     39165     39164     39167     39168
     39165     39164     39167     39169     39165     39164     39167     39170
     39166     39164     39167     39168     39166     39164     39167     39169
     39166     39164     39167     39170     39167     39170     39173     39174
     39167     39170     39173     39175     39167     39170     39173     39176
     39168     39167     39170     39171     39168     39167     39170     39172
     39168     39167     39170     39173     39169     39167     39170     39171
     39169     39167     39170     39172     39169     39167     39170     39173
     39170     39173     39176     39177     39170     39173     39176     39178
     39171     39170     39173     39174     39171     39170     39173     39175
     39171     39170     39173     39176     39172     39170     39173     39174
     39172     39170     39173     39175     39172     39170     39173     39176
     39173     39176     39178     39179     39173     39176     39178     39180
     39174     39173     39176     39177     39174     39173     39176     39178
     39175     39173     39176     39177     39175     39173     39176     39178
     39176     39178     39180     39181     39176     39178     39180     39182
     39176     39178     39180     39183     39177     39176     39178     39179
     39177     39176     39178     39180     39178     39180     39183     39184
     39178     39180     39183     39185     39178     39180     39183     39186
     39179     39178     39180     39181     39179     39178     39180     39182
     39179     39178     39180     39183     39180     39183     39186     39187
     39180     39183     39186     39188     39180     39183     39186     39189
     39181     39180     39183     39184     39181     39180     39183     39185
     39181     39180     39183     39186     39182     39180     39183     39184
     39182     39180     39183     39185     39182     39180     39183     39186
     39183     39186     39189     39190     39183     39186     39189     39191
     39183     39186     39189     39192     39184     39183     39186     39187
     39184     39183     39186     39188     39184     39183     39186     39189
     39185     39183     39186     39187     39185     39183     39186     39188
     39185     39183     39186     39189     39186     39189     39192     39193
     39186     39189     39192     39194     39186     39189     39192     39195
     39187     39186     39189     39190     39187     39186     39189     39191
     39187     39186     39189     39192     39188     39186     39189     39190
     39188     39186     39189     39191     39188     39186     39189     39192
     39189     39192     39195     39196     39189     39192     39195     39197
     39189     39192     39195     39198     39190     39189     39192     39193
     39190     39189     39192     39194     39190     39189     39192     39195
     39191     39189     39192     39193     39191     39189     39192     39194
     39191     39189     39192     39195     39192     39195     39198     39199
     39192     39195     39198     39200     39192     39195     39198     39201
     39193     39192     39195     39196     39193     39192     39195     39197
     39193     39192     39195     39198     39194     39192     39195     39196
     39194     39192     39195     39197     39194     39192     39195     39198
     39195     39198     39201     39202     39195     39198     39201     39203
     39195     39198     39201     39204     39196     39195     39198     39199
     39196     39195     39198     39200     39196     39195     39198     39201
     39197     39195     39198     39199     39197     39195     39198     39200
     39197     39195     39198     39201     39199     39198     39201     39202
     39199     39198     39201     39203     39199     39198     39201     39204
     39200     39198     39201     39202     39200     39198     39201     39203
     39200     39198     39201     39204     39205     39208     39211     39212
     39205     39208     39211     39213     39205     39208     39211     39214
     39206     39205     39208     39209     39206     39205     39208     39210
     39206     39205     39208     39211     39207     39205     39208     39209
     39207     39205     39208     39210     39207     39205     39208     39211
     39208     39211     39214     39215     39208     39211     39214     39216
     39208     39211     39214     39217     39209     39208     39211     39212
     39209     39208     39211     39213     39209     39208     39211     39214
     39210     39208     39211     39212     39210     39208     39211     39213
     39210     39208     39211     39214     39211     39214     39217     39218
     39211     39214     39217     39219     39211     39214     39217     39220
     39212     39211     39214     39215     39212     39211     39214     39216
     39212     39211     39214     39217     39213     39211     39214     39215
     39213     39211     39214     39216     39213     39211     39214     39217
     39214     39217     39220     39221     39214     39217     39220     39222
     39214     39217     39220     39223     39215     39214     39217     39218
     39215     39214     39217     39219     39215     39214     39217     39220
     39216     39214     39217     39218     39216     39214     39217     39219
     39216     39214     39217     39220     39217     39220     39223     39224
     39217     39220     39223     39225     39217     39220     39223     39226
     39218     39217     39220     39221     39218     39217     39220     39222
     39218     39217     39220     39223     39219     39217     39220     39221
     39219     39217     39220     39222     39219     39217     39220     39223
     39220     39223     39226     39227     39220     39223     39226     39228
     39220     39223     39226     39229     39221     39220     39223     39224
     39221     39220     39223     39225     39221     39220     39223     39226
     39222     39220     39223     39224     39222     39220     39223     39225
     39222     39220     39223     39226     39223     39226     39229     39230
     39223     39226     39229     39231     39223     39226     39229     39232
     39224     39223     39226     39227     39224     39223     39226     39228
     39224     39223     39226     39229     39225     39223     39226     39227
     39225     39223     39226     39228     39225     39223     39226     39229
     39226     39229     39232     39233     39226     39229     39232     39234
     39226     39229     39232     39235     39227     39226     39229     39230
     39227     39226     39229     39231     39227     39226     39229     39232
     39228     39226     39229     39230     39228     39226     39229     39231
     39228     39226     39229     39232     39229     39232     39235     39236
     39229     39232     39235     39237     39229     39232     39235     39238
     39230     39229     39232     39233     39230     39229     39232     39234
     39230     39229     39232     39235     39231     39229     39232     39233
     39231     39229     39232     39234     39231     39229     39232     39235
     39232     39235     39238     39239     39232     39235     39238     39240
     39232     39235     39238     39241     39233     39232     39235     39236
     39233     39232     39235     39237     39233     39232     39235     39238
     39234     39232     39235     39236     39234     39232     39235     39237
     39234     39232     39235     39238     39235     39238     39241     39242
     39235     39238     39241     39243     39235     39238     39241     39244
     39236     39235     39238     39239     39236     39235     39238     39240
     39236     39235     39238     39241     39237     39235     39238     39239
     39237     39235     39238     39240     39237     39235     39238     39241
     39238     39241     39244     39245     39238     39241     39244     39246
     39238     39241     39244     39247     39239     39238     39241     39242
     39239     39238     39241     39243     39239     39238     39241     39244
     39240     39238     39241     39242     39240     39238     39241     39243
     39240     39238     39241     39244     39242     39241     39244     39245
     39242     39241     39244     39246     39242     39241     39244     39247
     39243     39241     39244     39245     39243     39241     39244     39246
     39243     39241     39244     39247     39248     39252     39255     39256
     39248     39252     39255     39257     39248     39252     39255     39262
     39249     39248     39252     39253     39249     39248     39252     39254
     39249     39248     39252     39255     39250     39248     39252     39253
     39250     39248     39252     39254     39250     39248     39252     39255
     39251     39248     39252     39253     39251     39248     39252     39254
     39251     39248     39252     39255     39252     39255     39262     39258
     39253     39252     39255     39256     39253     39252     39255     39257
     39253     39252     39255     39262     39254     39252     39255     39256
     39254     39252     39255     39257     39254     39252     39255     39262
     39255     39262     39258     39259     39255     39262     39258     39260
     39255     39262     39258     39261     39256     39255     39262     39258
     39257     39255     39262     39258     39258     39261     39263     39264
     39258     39261     39263     39265     39258     39261     39263     39266
     39259     39258     39261     39263     39260     39258     39261     39263
     39261     39263     39266     39267     39261     39263     39266     39268
     39261     39263     39266     39274     39262     39258     39261     39263
     39263     39266     39268     39269     39263     39266     39274     39275
     39263     39266     39274     39276     39263     39266     39274     39277
     39264     39263     39266     39267     39264     39263     39266     39268
     39264     39263     39266     39274     39265     39263     39266     39267
     39265     39263     39266     39268     39265     39263     39266     39274
     39266     39268     39269     39270     39266     39268     39269     39271
     39266     39274     39277     39278     39267     39266     39268     39269
     39267     39266     39274     39275     39267     39266     39274     39276
     39267     39266     39274     39277     39268     39266     39274     39275
     39268     39266     39274     39276     39268     39266     39274     39277
     39268     39269     39271     39272     39268     39269     39271     39273
     39268     39269     39271     39283     39269     39268     39266     39274
     39269     39271     39283     39284     39269     39271     39283     39285
     39269     39271     39283     39286     39270     39269     39271     39272
     39270     39269     39271     39273     39270     39269     39271     39283
     39271     39283     39286     39287     39271     39283     39286     39288
     39271     39283     39286     39289     39272     39271     39283     39284
     39272     39271     39283     39285     39272     39271     39283     39286
     39273     39271     39283     39284     39273     39271     39283     39285
     39273     39271     39283     39286     39274     39277     39278     39279
     39274     39277     39278     39280     39275     39274     39277     39278
     39276     39274     39277     39278     39277     39278     39280     39281
     39277     39278     39280     39282     39277     39278     39280     39330
     39278     39280     39330     39331     39278     39280     39330     39332
     39278     39280     39330     39333     39279     39278     39280     39281
     39279     39278     39280     39282     39279     39278     39280     39330
     39280     39330     39333     39334     39280     39330     39333     39335
     39280     39330     39333     39336     39281     39280     39330     39331
     39281     39280     39330     39332     39281     39280     39330     39333
     39282     39280     39330     39331     39282     39280     39330     39332
     39282     39280     39330     39333     39283     39286     39289     39290
     39283     39286     39289     39291     39283     39286     39289     39292
     39284     39283     39286     39287     39284     39283     39286     39288
     39284     39283     39286     39289     39285     39283     39286     39287
     39285     39283     39286     39288     39285     39283     39286     39289
     39286     39289     39292     39293     39286     39289     39292     39294
     39286     39289     39292     39295     39287     39286     39289     39290
     39287     39286     39289     39291     39287     39286     39289     39292
     39288     39286     39289     39290     39288     39286     39289     39291
     39288     39286     39289     39292     39289     39292     39295     39296
     39289     39292     39295     39297     39289     39292     39295     39298
     39290     39289     39292     39293     39290     39289     39292     39294
     39290     39289     39292     39295     39291     39289     39292     39293
     39291     39289     39292     39294     39291     39289     39292     39295
     39292     39295     39298     39299     39292     39295     39298     39300
     39292     39295     39298     39301     39293     39292     39295     39296
     39293     39292     39295     39297     39293     39292     39295     39298
     39294     39292     39295     39296     39294     39292     39295     39297
     39294     39292     39295     39298     39295     39298     39301     39302
     39295     39298     39301     39303     39296     39295     39298     39299
     39296     39295     39298     39300     39296     39295     39298     39301
     39297     39295     39298     39299     39297     39295     39298     39300
     39297     39295     39298     39301     39298     39301     39303     39304
     39298     39301     39303     39305     39299     39298     39301     39302
     39299     39298     39301     39303     39300     39298     39301     39302
     39300     39298     39301     39303     39301     39303     39305     39306
     39301     39303     39305     39307     39301     39303     39305     39308
     39302     39301     39303     39304     39302     39301     39303     39305
     39303     39305     39308     39309     39303     39305     39308     39310
     39303     39305     39308     39311     39304     39303     39305     39306
     39304     39303     39305     39307     39304     39303     39305     39308
     39305     39308     39311     39312     39305     39308     39311     39313
     39305     39308     39311     39314     39306     39305     39308     39309
     39306     39305     39308     39310     39306     39305     39308     39311
     39307     39305     39308     39309     39307     39305     39308     39310
     39307     39305     39308     39311     39308     39311     39314     39315
     39308     39311     39314     39316     39308     39311     39314     39317
     39309     39308     39311     39312     39309     39308     39311     39313
     39309     39308     39311     39314     39310     39308     39311     39312
     39310     39308     39311     39313     39310     39308     39311     39314
     39311     39314     39317     39318     39311     39314     39317     39319
     39311     39314     39317     39320     39312     39311     39314     39315
     39312     39311     39314     39316     39312     39311     39314     39317
     39313     39311     39314     39315     39313     39311     39314     39316
     39313     39311     39314     39317     39314     39317     39320     39321
     39314     39317     39320     39322     39314     39317     39320     39323
     39315     39314     39317     39318     39315     39314     39317     39319
     39315     39314     39317     39320     39316     39314     39317     39318
     39316     39314     39317     39319     39316     39314     39317     39320
     39317     39320     39323     39324     39317     39320     39323     39325
     39317     39320     39323     39326     39318     39317     39320     39321
     39318     39317     39320     39322     39318     39317     39320     39323
     39319     39317     39320     39321     39319     39317     39320     39322
     39319     39317     39320     39323     39320     39323     39326     39327
     39320     39323     39326     39328     39320     39323     39326     39329
     39321     39320     39323     39324     39321     39320     39323     39325
     39321     39320     39323     39326     39322     39320     39323     39324
     39322     39320     39323     39325     39322     39320     39323     39326
     39324     39323     39326     39327     39324     39323     39326     39328
     39324     39323     39326     39329     39325     39323     39326     39327
     39325     39323     39326     39328     39325     39323     39326     39329
     39330     39333     39336     39337     39330     39333     39336     39338
     39330     39333     39336     39339     39331     39330     39333     39334
     39331     39330     39333     39335     39331     39330     39333     39336
     39332     39330     39333     39334     39332     39330     39333     39335
     39332     39330     39333     39336     39333     39336     39339     39340
     39333     39336     39339     39341     39333     39336     39339     39342
     39334     39333     39336     39337     39334     39333     39336     39338
     39334     39333     39336     39339     39335     39333     39336     39337
     39335     39333     39336     39338     39335     39333     39336     39339
     39336     39339     39342     39343     39336     39339     39342     39344
     39336     39339     39342     39345     39337     39336     39339     39340
     39337     39336     39339     39341     39337     39336     39339     39342
     39338     39336     39339     39340     39338     39336     39339     39341
     39338     39336     39339     39342     39339     39342     39345     39346
     39339     39342     39345     39347     39339     39342     39345     39348
     39340     39339     39342     39343     39340     39339     39342     39344
     39340     39339     39342     39345     39341     39339     39342     39343
     39341     39339     39342     39344     39341     39339     39342     39345
     39342     39345     39348     39349     39342     39345     39348     39350
     39342     39345     39348     39351     39343     39342     39345     39346
     39343     39342     39345     39347     39343     39342     39345     39348
     39344     39342     39345     39346     39344     39342     39345     39347
     39344     39342     39345     39348     39345     39348     39351     39352
     39345     39348     39351     39353     39345     39348     39351     39354
     39346     39345     39348     39349     39346     39345     39348     39350
     39346     39345     39348     39351     39347     39345     39348     39349
     39347     39345     39348     39350     39347     39345     39348     39351
     39348     39351     39354     39355     39348     39351     39354     39356
     39348     39351     39354     39357     39349     39348     39351     39352
     39349     39348     39351     39353     39349     39348     39351     39354
     39350     39348     39351     39352     39350     39348     39351     39353
     39350     39348     39351     39354     39351     39354     39357     39358
     39351     39354     39357     39359     39351     39354     39357     39360
     39352     39351     39354     39355     39352     39351     39354     39356
     39352     39351     39354     39357     39353     39351     39354     39355
     39353     39351     39354     39356     39353     39351     39354     39357
     39354     39357     39360     39361     39354     39357     39360     39362
     39354     39357     39360     39363     39355     39354     39357     39358
     39355     39354     39357     39359     39355     39354     39357     39360
     39356     39354     39357     39358     39356     39354     39357     39359
     39356     39354     39357     39360     39357     39360     39363     39364
     39357     39360     39363     39365     39357     39360     39363     39366
     39358     39357     39360     39361     39358     39357     39360     39362
     39358     39357     39360     39363     39359     39357     39360     39361
     39359     39357     39360     39362     39359     39357     39360     39363
     39360     39363     39366     39367     39360     39363     39366     39368
     39360     39363     39366     39369     39361     39360     39363     39364
     39361     39360     39363     39365     39361     39360     39363     39366
     39362     39360     39363     39364     39362     39360     39363     39365
     39362     39360     39363     39366     39363     39366     39369     39370
     39363     39366     39369     39371     39363     39366     39369     39372
     39364     39363     39366     39367     39364     39363     39366     39368
     39364     39363     39366     39369     39365     39363     39366     39367
     39365     39363     39366     39368     39365     39363     39366     39369
     39367     39366     39369     39370     39367     39366     39369     39371
     39367     39366     39369     39372     39368     39366     39369     39370
     39368     39366     39369     39371     39368     39366     39369     39372
     39373     39377     39380     39381     39373     39377     39380     39382
     39373     39377     39380     39387     39374     39373     39377     39378
     39374     39373     39377     39379     39374     39373     39377     39380
     39375     39373     39377     39378     39375     39373     39377     39379
     39375     39373     39377     39380     39376     39373     39377     39378
     39376     39373     39377     39379     39376     39373     39377     39380
     39377     39380     39387     39383     39378     39377     39380     39381
     39378     39377     39380     39382     39378     39377     39380     39387
     39379     39377     39380     39381     39379     39377     39380     39382
     39379     39377     39380     39387     39380     39387     39383     39384
     39380     39387     39383     39385     39380     39387     39383     39386
     39381     39380     39387     39383     39382     39380     39387     39383
     39383     39386     39388     39389     39383     39386     39388     39390
     39383     39386     39388     39391     39384     39383     39386     39388
     39385     39383     39386     39388     39386     39388     39391     39392
     39386     39388     39391     39393     39386     39388     39391     39399
     39387     39383     39386     39388     39388     39391     39393     39394
     39388     39391     39399     39400     39388     39391     39399     39401
     39388     39391     39399     39402     39389     39388     39391     39392
     39389     39388     39391     39393     39389     39388     39391     39399
     39390     39388     39391     39392     39390     39388     39391     39393
     39390     39388     39391     39399     39391     39393     39394     39395
     39391     39393     39394     39396     39391     39399     39402     39403
     39392     39391     39393     39394     39392     39391     39399     39400
     39392     39391     39399     39401     39392     39391     39399     39402
     39393     39391     39399     39400     39393     39391     39399     39401
     39393     39391     39399     39402     39393     39394     39396     39397
     39393     39394     39396     39398     39393     39394     39396     39408
     39394     39393     39391     39399     39394     39396     39408     39409
     39394     39396     39408     39410     39394     39396     39408     39411
     39395     39394     39396     39397     39395     39394     39396     39398
     39395     39394     39396     39408     39396     39408     39411     39412
     39396     39408     39411     39413     39396     39408     39411     39414
     39397     39396     39408     39409     39397     39396     39408     39410
     39397     39396     39408     39411     39398     39396     39408     39409
     39398     39396     39408     39410     39398     39396     39408     39411
     39399     39402     39403     39404     39399     39402     39403     39405
     39400     39399     39402     39403     39401     39399     39402     39403
     39402     39403     39405     39406     39402     39403     39405     39407
     39402     39403     39405     39455     39403     39405     39455     39456
     39403     39405     39455     39457     39403     39405     39455     39458
     39404     39403     39405     39406     39404     39403     39405     39407
     39404     39403     39405     39455     39405     39455     39458     39459
     39405     39455     39458     39460     39405     39455     39458     39461
     39406     39405     39455     39456     39406     39405     39455     39457
     39406     39405     39455     39458     39407     39405     39455     39456
     39407     39405     39455     39457     39407     39405     39455     39458
     39408     39411     39414     39415     39408     39411     39414     39416
     39408     39411     39414     39417     39409     39408     39411     39412
     39409     39408     39411     39413     39409     39408     39411     39414
     39410     39408     39411     39412     39410     39408     39411     39413
     39410     39408     39411     39414     39411     39414     39417     39418
     39411     39414     39417     39419     39411     39414     39417     39420
     39412     39411     39414     39415     39412     39411     39414     39416
     39412     39411     39414     39417     39413     39411     39414     39415
     39413     39411     39414     39416     39413     39411     39414     39417
     39414     39417     39420     39421     39414     39417     39420     39422
     39414     39417     39420     39423     39415     39414     39417     39418
     39415     39414     39417     39419     39415     39414     39417     39420
     39416     39414     39417     39418     39416     39414     39417     39419
     39416     39414     39417     39420     39417     39420     39423     39424
     39417     39420     39423     39425     39417     39420     39423     39426
     39418     39417     39420     39421     39418     39417     39420     39422
     39418     39417     39420     39423     39419     39417     39420     39421
     39419     39417     39420     39422     39419     39417     39420     39423
     39420     39423     39426     39427     39420     39423     39426     39428
     39421     39420     39423     39424     39421     39420     39423     39425
     39421     39420     39423     39426     39422     39420     39423     39424
     39422     39420     39423     39425     39422     39420     39423     39426
     39423     39426     39428     39429     39423     39426     39428     39430
     39424     39423     39426     39427     39424     39423     39426     39428
     39425     39423     39426     39427     39425     39423     39426     39428
     39426     39428     39430     39431     39426     39428     39430     39432
     39426     39428     39430     39433     39427     39426     39428     39429
     39427     39426     39428     39430     39428     39430     39433     39434
     39428     39430     39433     39435     39428     39430     39433     39436
     39429     39428     39430     39431     39429     39428     39430     39432
     39429     39428     39430     39433     39430     39433     39436     39437
     39430     39433     39436     39438     39430     39433     39436     39439
     39431     39430     39433     39434     39431     39430     39433     39435
     39431     39430     39433     39436     39432     39430     39433     39434
     39432     39430     39433     39435     39432     39430     39433     39436
     39433     39436     39439     39440     39433     39436     39439     39441
     39433     39436     39439     39442     39434     39433     39436     39437
     39434     39433     39436     39438     39434     39433     39436     39439
     39435     39433     39436     39437     39435     39433     39436     39438
     39435     39433     39436     39439     39436     39439     39442     39443
     39436     39439     39442     39444     39436     39439     39442     39445
     39437     39436     39439     39440     39437     39436     39439     39441
     39437     39436     39439     39442     39438     39436     39439     39440
     39438     39436     39439     39441     39438     39436     39439     39442
     39439     39442     39445     39446     39439     39442     39445     39447
     39439     39442     39445     39448     39440     39439     39442     39443
     39440     39439     39442     39444     39440     39439     39442     39445
     39441     39439     39442     39443     39441     39439     39442     39444
     39441     39439     39442     39445     39442     39445     39448     39449
     39442     39445     39448     39450     39442     39445     39448     39451
     39443     39442     39445     39446     39443     39442     39445     39447
     39443     39442     39445     39448     39444     39442     39445     39446
     39444     39442     39445     39447     39444     39442     39445     39448
     39445     39448     39451     39452     39445     39448     39451     39453
     39445     39448     39451     39454     39446     39445     39448     39449
     39446     39445     39448     39450     39446     39445     39448     39451
     39447     39445     39448     39449     39447     39445     39448     39450
     39447     39445     39448     39451     39449     39448     39451     39452
     39449     39448     39451     39453     39449     39448     39451     39454
     39450     39448     39451     39452     39450     39448     39451     39453
     39450     39448     39451     39454     39455     39458     39461     39462
     39455     39458     39461     39463     39455     39458     39461     39464
     39456     39455     39458     39459     39456     39455     39458     39460
     39456     39455     39458     39461     39457     39455     39458     39459
     39457     39455     39458     39460     39457     39455     39458     39461
     39458     39461     39464     39465     39458     39461     39464     39466
     39458     39461     39464     39467     39459     39458     39461     39462
     39459     39458     39461     39463     39459     39458     39461     39464
     39460     39458     39461     39462     39460     39458     39461     39463
     39460     39458     39461     39464     39461     39464     39467     39468
     39461     39464     39467     39469     39461     39464     39467     39470
     39462     39461     39464     39465     39462     39461     39464     39466
     39462     39461     39464     39467     39463     39461     39464     39465
     39463     39461     39464     39466     39463     39461     39464     39467
     39464     39467     39470     39471     39464     39467     39470     39472
     39464     39467     39470     39473     39465     39464     39467     39468
     39465     39464     39467     39469     39465     39464     39467     39470
     39466     39464     39467     39468     39466     39464     39467     39469
     39466     39464     39467     39470     39467     39470     39473     39474
     39467     39470     39473     39475     39467     39470     39473     39476
     39468     39467     39470     39471     39468     39467     39470     39472
     39468     39467     39470     39473     39469     39467     39470     39471
     39469     39467     39470     39472     39469     39467     39470     39473
     39470     39473     39476     39477     39470     39473     39476     39478
     39470     39473     39476     39479     39471     39470     39473     39474
     39471     39470     39473     39475     39471     39470     39473     39476
     39472     39470     39473     39474     39472     39470     39473     39475
     39472     39470     39473     39476     39473     39476     39479     39480
     39473     39476     39479     39481     39473     39476     39479     39482
     39474     39473     39476     39477     39474     39473     39476     39478
     39474     39473     39476     39479     39475     39473     39476     39477
     39475     39473     39476     39478     39475     39473     39476     39479
     39476     39479     39482     39483     39476     39479     39482     39484
     39476     39479     39482     39485     39477     39476     39479     39480
     39477     39476     39479     39481     39477     39476     39479     39482
     39478     39476     39479     39480     39478     39476     39479     39481
     39478     39476     39479     39482     39479     39482     39485     39486
     39479     39482     39485     39487     39479     39482     39485     39488
     39480     39479     39482     39483     39480     39479     39482     39484
     39480     39479     39482     39485     39481     39479     39482     39483
     39481     39479     39482     39484     39481     39479     39482     39485
     39482     39485     39488     39489     39482     39485     39488     39490
     39482     39485     39488     39491     39483     39482     39485     39486
     39483     39482     39485     39487     39483     39482     39485     39488
     39484     39482     39485     39486     39484     39482     39485     39487
     39484     39482     39485     39488     39485     39488     39491     39492
     39485     39488     39491     39493     39485     39488     39491     39494
     39486     39485     39488     39489     39486     39485     39488     39490
     39486     39485     39488     39491     39487     39485     39488     39489
     39487     39485     39488     39490     39487     39485     39488     39491
     39488     39491     39494     39495     39488     39491     39494     39496
     39488     39491     39494     39497     39489     39488     39491     39492
     39489     39488     39491     39493     39489     39488     39491     39494
     39490     39488     39491     39492     39490     39488     39491     39493
     39490     39488     39491     39494     39492     39491     39494     39495
     39492     39491     39494     39496     39492     39491     39494     39497
     39493     39491     39494     39495     39493     39491     39494     39496
     39493     39491     39494     39497     39498     39502     39505     39506
     39498     39502     39505     39507     39498     39502     39505     39512
     39499     39498     39502     39503     39499     39498     39502     39504
     39499     39498     39502     39505     39500     39498     39502     39503
     39500     39498     39502     39504     39500     39498     39502     39505
     39501     39498     39502     39503     39501     39498     39502     39504
     39501     39498     39502     39505     39502     39505     39512     39508
     39503     39502     39505     39506     39503     39502     39505     39507
     39503     39502     39505     39512     39504     39502     39505     39506
     39504     39502     39505     39507     39504     39502     39505     39512
     39505     39512     39508     39509     39505     39512     39508     39510
     39505     39512     39508     39511     39506     39505     39512     39508
     39507     39505     39512     39508     39508     39511     39513     39514
     39508     39511     39513     39515     39508     39511     39513     39516
     39509     39508     39511     39513     39510     39508     39511     39513
     39511     39513     39516     39517     39511     39513     39516     39518
     39511     39513     39516     39524     39512     39508     39511     39513
     39513     39516     39518     39519     39513     39516     39524     39525
     39513     39516     39524     39526     39513     39516     39524     39527
     39514     39513     39516     39517     39514     39513     39516     39518
     39514     39513     39516     39524     39515     39513     39516     39517
     39515     39513     39516     39518     39515     39513     39516     39524
     39516     39518     39519     39520     39516     39518     39519     39521
     39516     39524     39527     39528     39517     39516     39518     39519
     39517     39516     39524     39525     39517     39516     39524     39526
     39517     39516     39524     39527     39518     39516     39524     39525
     39518     39516     39524     39526     39518     39516     39524     39527
     39518     39519     39521     39522     39518     39519     39521     39523
     39518     39519     39521     39533     39519     39518     39516     39524
     39519     39521     39533     39534     39519     39521     39533     39535
     39519     39521     39533     39536     39520     39519     39521     39522
     39520     39519     39521     39523     39520     39519     39521     39533
     39521     39533     39536     39537     39521     39533     39536     39538
     39521     39533     39536     39539     39522     39521     39533     39534
     39522     39521     39533     39535     39522     39521     39533     39536
     39523     39521     39533     39534     39523     39521     39533     39535
     39523     39521     39533     39536     39524     39527     39528     39529
     39524     39527     39528     39530     39525     39524     39527     39528
     39526     39524     39527     39528     39527     39528     39530     39531
     39527     39528     39530     39532     39527     39528     39530     39580
     39528     39530     39580     39581     39528     39530     39580     39582
     39528     39530     39580     39583     39529     39528     39530     39531
     39529     39528     39530     39532     39529     39528     39530     39580
     39530     39580     39583     39584     39530     39580     39583     39585
     39530     39580     39583     39586     39531     39530     39580     39581
     39531     39530     39580     39582     39531     39530     39580     39583
     39532     39530     39580     39581     39532     39530     39580     39582
     39532     39530     39580     39583     39533     39536     39539     39540
     39533     39536     39539     39541     39533     39536     39539     39542
     39534     39533     39536     39537     39534     39533     39536     39538
     39534     39533     39536     39539     39535     39533     39536     39537
     39535     39533     39536     39538     39535     39533     39536     39539
     39536     39539     39542     39543     39536     39539     39542     39544
     39536     39539     39542     39545     39537     39536     39539     39540
     39537     39536     39539     39541     39537     39536     39539     39542
     39538     39536     39539     39540     39538     39536     39539     39541
     39538     39536     39539     39542     39539     39542     39545     39546
     39539     39542     39545     39547     39539     39542     39545     39548
     39540     39539     39542     39543     39540     39539     39542     39544
     39540     39539     39542     39545     39541     39539     39542     39543
     39541     39539     39542     39544     39541     39539     39542     39545
     39542     39545     39548     39549     39542     39545     39548     39550
     39542     39545     39548     39551     39543     39542     39545     39546
     39543     39542     39545     39547     39543     39542     39545     39548
     39544     39542     39545     39546     39544     39542     39545     39547
     39544     39542     39545     39548     39545     39548     39551     39552
     39545     39548     39551     39553     39546     39545     39548     39549
     39546     39545     39548     39550     39546     39545     39548     39551
     39547     39545     39548     39549     39547     39545     39548     39550
     39547     39545     39548     39551     39548     39551     39553     39554
     39548     39551     39553     39555     39549     39548     39551     39552
     39549     39548     39551     39553     39550     39548     39551     39552
     39550     39548     39551     39553     39551     39553     39555     39556
     39551     39553     39555     39557     39551     39553     39555     39558
     39552     39551     39553     39554     39552     39551     39553     39555
     39553     39555     39558     39559     39553     39555     39558     39560
     39553     39555     39558     39561     39554     39553     39555     39556
     39554     39553     39555     39557     39554     39553     39555     39558
     39555     39558     39561     39562     39555     39558     39561     39563
     39555     39558     39561     39564     39556     39555     39558     39559
     39556     39555     39558     39560     39556     39555     39558     39561
     39557     39555     39558     39559     39557     39555     39558     39560
     39557     39555     39558     39561     39558     39561     39564     39565
     39558     39561     39564     39566     39558     39561     39564     39567
     39559     39558     39561     39562     39559     39558     39561     39563
     39559     39558     39561     39564     39560     39558     39561     39562
     39560     39558     39561     39563     39560     39558     39561     39564
     39561     39564     39567     39568     39561     39564     39567     39569
     39561     39564     39567     39570     39562     39561     39564     39565
     39562     39561     39564     39566     39562     39561     39564     39567
     39563     39561     39564     39565     39563     39561     39564     39566
     39563     39561     39564     39567     39564     39567     39570     39571
     39564     39567     39570     39572     39564     39567     39570     39573
     39565     39564     39567     39568     39565     39564     39567     39569
     39565     39564     39567     39570     39566     39564     39567     39568
     39566     39564     39567     39569     39566     39564     39567     39570
     39567     39570     39573     39574     39567     39570     39573     39575
     39567     39570     39573     39576     39568     39567     39570     39571
     39568     39567     39570     39572     39568     39567     39570     39573
     39569     39567     39570     39571     39569     39567     39570     39572
     39569     39567     39570     39573     39570     39573     39576     39577
     39570     39573     39576     39578     39570     39573     39576     39579
     39571     39570     39573     39574     39571     39570     39573     39575
     39571     39570     39573     39576     39572     39570     39573     39574
     39572     39570     39573     39575     39572     39570     39573     39576
     39574     39573     39576     39577     39574     39573     39576     39578
     39574     39573     39576     39579     39575     39573     39576     39577
     39575     39573     39576     39578     39575     39573     39576     39579
     39580     39583     39586     39587     39580     39583     39586     39588
     39580     39583     39586     39589     39581     39580     39583     39584
     39581     39580     39583     39585     39581     39580     39583     39586
     39582     39580     39583     39584     39582     39580     39583     39585
     39582     39580     39583     39586     39583     39586     39589     39590
     39583     39586     39589     39591     39583     39586     39589     39592
     39584     39583     39586     39587     39584     39583     39586     39588
     39584     39583     39586     39589     39585     39583     39586     39587
     39585     39583     39586     39588     39585     39583     39586     39589
     39586     39589     39592     39593     39586     39589     39592     39594
     39586     39589     39592     39595     39587     39586     39589     39590
     39587     39586     39589     39591     39587     39586     39589     39592
     39588     39586     39589     39590     39588     39586     39589     39591
     39588     39586     39589     39592     39589     39592     39595     39596
     39589     39592     39595     39597     39589     39592     39595     39598
     39590     39589     39592     39593     39590     39589     39592     39594
     39590     39589     39592     39595     39591     39589     39592     39593
     39591     39589     39592     39594     39591     39589     39592     39595
     39592     39595     39598     39599     39592     39595     39598     39600
     39592     39595     39598     39601     39593     39592     39595     39596
     39593     39592     39595     39597     39593     39592     39595     39598
     39594     39592     39595     39596     39594     39592     39595     39597
     39594     39592     39595     39598     39595     39598     39601     39602
     39595     39598     39601     39603     39595     39598     39601     39604
     39596     39595     39598     39599     39596     39595     39598     39600
     39596     39595     39598     39601     39597     39595     39598     39599
     39597     39595     39598     39600     39597     39595     39598     39601
     39598     39601     39604     39605     39598     39601     39604     39606
     39598     39601     39604     39607     39599     39598     39601     39602
     39599     39598     39601     39603     39599     39598     39601     39604
     39600     39598     39601     39602     39600     39598     39601     39603
     39600     39598     39601     39604     39601     39604     39607     39608
     39601     39604     39607     39609     39601     39604     39607     39610
     39602     39601     39604     39605     39602     39601     39604     39606
     39602     39601     39604     39607     39603     39601     39604     39605
     39603     39601     39604     39606     39603     39601     39604     39607
     39604     39607     39610     39611     39604     39607     39610     39612
     39604     39607     39610     39613     39605     39604     39607     39608
     39605     39604     39607     39609     39605     39604     39607     39610
     39606     39604     39607     39608     39606     39604     39607     39609
     39606     39604     39607     39610     39607     39610     39613     39614
     39607     39610     39613     39615     39607     39610     39613     39616
     39608     39607     39610     39611     39608     39607     39610     39612
     39608     39607     39610     39613     39609     39607     39610     39611
     39609     39607     39610     39612     39609     39607     39610     39613
     39610     39613     39616     39617     39610     39613     39616     39618
     39610     39613     39616     39619     39611     39610     39613     39614
     39611     39610     39613     39615     39611     39610     39613     39616
     39612     39610     39613     39614     39612     39610     39613     39615
     39612     39610     39613     39616     39613     39616     39619     39620
     39613     39616     39619     39621     39613     39616     39619     39622
     39614     39613     39616     39617     39614     39613     39616     39618
     39614     39613     39616     39619     39615     39613     39616     39617
     39615     39613     39616     39618     39615     39613     39616     39619
     39617     39616     39619     39620     39617     39616     39619     39621
     39617     39616     39619     39622     39618     39616     39619     39620
     39618     39616     39619     39621     39618     39616     39619     39622
     39623     39624     39639     39640     39623     39624     39639     39641
     39623     39624     39639     39645     39624     39623     39627     39628
     39624     39623     39627     39629     39624     39623     39627     39630
     39624     39623     39631     39632     39624     39623     39631     39633
     39624     39623     39631     39634     39624     39623     39635     39636
     39624     39623     39635     39637     39624     39623     39635     39638
     39624     39639     39645     39642     39625     39624     39623     39627
     39625     39624     39623     39631     39625     39624     39623     39635
     39625     39624     39639     39640     39625     39624     39639     39641
     39625     39624     39639     39645     39626     39624     39623     39627
     39626     39624     39623     39631     39626     39624     39623     39635
     39626     39624     39639     39640     39626     39624     39639     39641
     39626     39624     39639     39645     39627     39623     39624     39639
     39627     39623     39631     39632     39627     39623     39631     39633
     39627     39623     39631     39634     39627     39623     39635     39636
     39627     39623     39635     39637     39627     39623     39635     39638
     39628     39627     39623     39631     39628     39627     39623     39635
     39629     39627     39623     39631     39629     39627     39623     39635
     39630     39627     39623     39631     39630     39627     39623     39635
     39631     39623     39624     39639     39631     39623     39635     39636
     39631     39623     39635     39637     39631     39623     39635     39638
     39632     39631     39623     39635     39633     39631     39623     39635
     39634     39631     39623     39635     39635     39623     39624     39639
     39639     39645     39642     39643     39639     39645     39642     39644
     39639     39645     39642     39646     39640     39639     39645     39642
     39641     39639     39645     39642     39642     39646     39647     39648
     39642     39646     39647     39649     39642     39646     39647     39650
     39643     39642     39646     39647     39644     39642     39646     39647
     39645     39642     39646     39647     39646     39647     39650     39651
     39646     39647     39650     39652     39646     39647     39650     39658
     39647     39650     39652     39653     39647     39650     39658     39659
     39647     39650     39658     39660     39647     39650     39658     39661
     39648     39647     39650     39651     39648     39647     39650     39652
     39648     39647     39650     39658     39649     39647     39650     39651
     39649     39647     39650     39652     39649     39647     39650     39658
     39650     39652     39653     39654     39650     39652     39653     39655
     39650     39658     39661     39662     39651     39650     39652     39653
     39651     39650     39658     39659     39651     39650     39658     39660
     39651     39650     39658     39661     39652     39650     39658     39659
     39652     39650     39658     39660     39652     39650     39658     39661
     39652     39653     39655     39656     39652     39653     39655     39657
     39652     39653     39655     39667     39653     39652     39650     39658
     39653     39655     39667     39668     39653     39655     39667     39669
     39653     39655     39667     39670     39654     39653     39655     39656
     39654     39653     39655     39657     39654     39653     39655     39667
     39655     39667     39670     39671     39655     39667     39670     39672
     39655     39667     39670     39673     39656     39655     39667     39668
     39656     39655     39667     39669     39656     39655     39667     39670
     39657     39655     39667     39668     39657     39655     39667     39669
     39657     39655     39667     39670     39658     39661     39662     39663
     39658     39661     39662     39664     39659     39658     39661     39662
     39660     39658     39661     39662     39661     39662     39664     39665
     39661     39662     39664     39666     39661     39662     39664     39714
     39662     39664     39714     39715     39662     39664     39714     39716
     39662     39664     39714     39717     39663     39662     39664     39665
     39663     39662     39664     39666     39663     39662     39664     39714
     39664     39714     39717     39718     39664     39714     39717     39719
     39664     39714     39717     39720     39665     39664     39714     39715
     39665     39664     39714     39716     39665     39664     39714     39717
     39666     39664     39714     39715     39666     39664     39714     39716
     39666     39664     39714     39717     39667     39670     39673     39674
     39667     39670     39673     39675     39667     39670     39673     39676
     39668     39667     39670     39671     39668     39667     39670     39672
     39668     39667     39670     39673     39669     39667     39670     39671
     39669     39667     39670     39672     39669     39667     39670     39673
     39670     39673     39676     39677     39670     39673     39676     39678
     39670     39673     39676     39679     39671     39670     39673     39674
     39671     39670     39673     39675     39671     39670     39673     39676
     39672     39670     39673     39674     39672     39670     39673     39675
     39672     39670     39673     39676     39673     39676     39679     39680
     39673     39676     39679     39681     39673     39676     39679     39682
     39674     39673     39676     39677     39674     39673     39676     39678
     39674     39673     39676     39679     39675     39673     39676     39677
     39675     39673     39676     39678     39675     39673     39676     39679
     39676     39679     39682     39683     39676     39679     39682     39684
     39676     39679     39682     39685     39677     39676     39679     39680
     39677     39676     39679     39681     39677     39676     39679     39682
     39678     39676     39679     39680     39678     39676     39679     39681
     39678     39676     39679     39682     39679     39682     39685     39686
     39679     39682     39685     39687     39680     39679     39682     39683
     39680     39679     39682     39684     39680     39679     39682     39685
     39681     39679     39682     39683     39681     39679     39682     39684
     39681     39679     39682     39685     39682     39685     39687     39688
     39682     39685     39687     39689     39683     39682     39685     39686
     39683     39682     39685     39687     39684     39682     39685     39686
     39684     39682     39685     39687     39685     39687     39689     39690
     39685     39687     39689     39691     39685     39687     39689     39692
     39686     39685     39687     39688     39686     39685     39687     39689
     39687     39689     39692     39693     39687     39689     39692     39694
     39687     39689     39692     39695     39688     39687     39689     39690
     39688     39687     39689     39691     39688     39687     39689     39692
     39689     39692     39695     39696     39689     39692     39695     39697
     39689     39692     39695     39698     39690     39689     39692     39693
     39690     39689     39692     39694     39690     39689     39692     39695
     39691     39689     39692     39693     39691     39689     39692     39694
     39691     39689     39692     39695     39692     39695     39698     39699
     39692     39695     39698     39700     39692     39695     39698     39701
     39693     39692     39695     39696     39693     39692     39695     39697
     39693     39692     39695     39698     39694     39692     39695     39696
     39694     39692     39695     39697     39694     39692     39695     39698
     39695     39698     39701     39702     39695     39698     39701     39703
     39695     39698     39701     39704     39696     39695     39698     39699
     39696     39695     39698     39700     39696     39695     39698     39701
     39697     39695     39698     39699     39697     39695     39698     39700
     39697     39695     39698     39701     39698     39701     39704     39705
     39698     39701     39704     39706     39698     39701     39704     39707
     39699     39698     39701     39702     39699     39698     39701     39703
     39699     39698     39701     39704     39700     39698     39701     39702
     39700     39698     39701     39703     39700     39698     39701     39704
     39701     39704     39707     39708     39701     39704     39707     39709
     39701     39704     39707     39710     39702     39701     39704     39705
     39702     39701     39704     39706     39702     39701     39704     39707
     39703     39701     39704     39705     39703     39701     39704     39706
     39703     39701     39704     39707     39704     39707     39710     39711
     39704     39707     39710     39712     39704     39707     39710     39713
     39705     39704     39707     39708     39705     39704     39707     39709
     39705     39704     39707     39710     39706     39704     39707     39708
     39706     39704     39707     39709     39706     39704     39707     39710
     39708     39707     39710     39711     39708     39707     39710     39712
     39708     39707     39710     39713     39709     39707     39710     39711
     39709     39707     39710     39712     39709     39707     39710     39713
     39714     39717     39720     39721     39714     39717     39720     39722
     39714     39717     39720     39723     39715     39714     39717     39718
     39715     39714     39717     39719     39715     39714     39717     39720
     39716     39714     39717     39718     39716     39714     39717     39719
     39716     39714     39717     39720     39717     39720     39723     39724
     39717     39720     39723     39725     39717     39720     39723     39726
     39718     39717     39720     39721     39718     39717     39720     39722
     39718     39717     39720     39723     39719     39717     39720     39721
     39719     39717     39720     39722     39719     39717     39720     39723
     39720     39723     39726     39727     39720     39723     39726     39728
     39720     39723     39726     39729     39721     39720     39723     39724
     39721     39720     39723     39725     39721     39720     39723     39726
     39722     39720     39723     39724     39722     39720     39723     39725
     39722     39720     39723     39726     39723     39726     39729     39730
     39723     39726     39729     39731     39723     39726     39729     39732
     39724     39723     39726     39727     39724     39723     39726     39728
     39724     39723     39726     39729     39725     39723     39726     39727
     39725     39723     39726     39728     39725     39723     39726     39729
     39726     39729     39732     39733     39726     39729     39732     39734
     39726     39729     39732     39735     39727     39726     39729     39730
     39727     39726     39729     39731     39727     39726     39729     39732
     39728     39726     39729     39730     39728     39726     39729     39731
     39728     39726     39729     39732     39729     39732     39735     39736
     39729     39732     39735     39737     39729     39732     39735     39738
     39730     39729     39732     39733     39730     39729     39732     39734
     39730     39729     39732     39735     39731     39729     39732     39733
     39731     39729     39732     39734     39731     39729     39732     39735
     39732     39735     39738     39739     39732     39735     39738     39740
     39732     39735     39738     39741     39733     39732     39735     39736
     39733     39732     39735     39737     39733     39732     39735     39738
     39734     39732     39735     39736     39734     39732     39735     39737
     39734     39732     39735     39738     39735     39738     39741     39742
     39735     39738     39741     39743     39735     39738     39741     39744
     39736     39735     39738     39739     39736     39735     39738     39740
     39736     39735     39738     39741     39737     39735     39738     39739
     39737     39735     39738     39740     39737     39735     39738     39741
     39738     39741     39744     39745     39738     39741     39744     39746
     39738     39741     39744     39747     39739     39738     39741     39742
     39739     39738     39741     39743     39739     39738     39741     39744
     39740     39738     39741     39742     39740     39738     39741     39743
     39740     39738     39741     39744     39741     39744     39747     39748
     39741     39744     39747     39749     39741     39744     39747     39750
     39742     39741     39744     39745     39742     39741     39744     39746
     39742     39741     39744     39747     39743     39741     39744     39745
     39743     39741     39744     39746     39743     39741     39744     39747
     39744     39747     39750     39751     39744     39747     39750     39752
     39744     39747     39750     39753     39745     39744     39747     39748
     39745     39744     39747     39749     39745     39744     39747     39750
     39746     39744     39747     39748     39746     39744     39747     39749
     39746     39744     39747     39750     39747     39750     39753     39754
     39747     39750     39753     39755     39747     39750     39753     39756
     39748     39747     39750     39751     39748     39747     39750     39752
     39748     39747     39750     39753     39749     39747     39750     39751
     39749     39747     39750     39752     39749     39747     39750     39753
     39751     39750     39753     39754     39751     39750     39753     39755
     39751     39750     39753     39756     39752     39750     39753     39754
     39752     39750     39753     39755     39752     39750     39753     39756
     39757     39758     39773     39774     39757     39758     39773     39775
     39757     39758     39773     39779     39758     39757     39761     39762
     39758     39757     39761     39763     39758     39757     39761     39764
     39758     39757     39765     39766     39758     39757     39765     39767
     39758     39757     39765     39768     39758     39757     39769     39770
     39758     39757     39769     39771     39758     39757     39769     39772
     39758     39773     39779     39776     39759     39758     39757     39761
     39759     39758     39757     39765     39759     39758     39757     39769
     39759     39758     39773     39774     39759     39758     39773     39775
     39759     39758     39773     39779     39760     39758     39757     39761
     39760     39758     39757     39765     39760     39758     39757     39769
     39760     39758     39773     39774     39760     39758     39773     39775
     39760     39758     39773     39779     39761     39757     39758     39773
     39761     39757     39765     39766     39761     39757     39765     39767
     39761     39757     39765     39768     39761     39757     39769     39770
     39761     39757     39769     39771     39761     39757     39769     39772
     39762     39761     39757     39765     39762     39761     39757     39769
     39763     39761     39757     39765     39763     39761     39757     39769
     39764     39761     39757     39765     39764     39761     39757     39769
     39765     39757     39758     39773     39765     39757     39769     39770
     39765     39757     39769     39771     39765     39757     39769     39772
     39766     39765     39757     39769     39767     39765     39757     39769
     39768     39765     39757     39769     39769     39757     39758     39773
     39773     39779     39776     39777     39773     39779     39776     39778
     39773     39779     39776     39780     39774     39773     39779     39776
     39775     39773     39779     39776     39776     39780     39781     39782
     39776     39780     39781     39783     39776     39780     39781     39784
     39777     39776     39780     39781     39778     39776     39780     39781
     39779     39776     39780     39781     39780     39781     39784     39785
     39780     39781     39784     39786     39780     39781     39784     39792
     39781     39784     39786     39787     39781     39784     39792     39793
     39781     39784     39792     39794     39781     39784     39792     39795
     39782     39781     39784     39785     39782     39781     39784     39786
     39782     39781     39784     39792     39783     39781     39784     39785
     39783     39781     39784     39786     39783     39781     39784     39792
     39784     39786     39787     39788     39784     39786     39787     39789
     39784     39792     39795     39796     39785     39784     39786     39787
     39785     39784     39792     39793     39785     39784     39792     39794
     39785     39784     39792     39795     39786     39784     39792     39793
     39786     39784     39792     39794     39786     39784     39792     39795
     39786     39787     39789     39790     39786     39787     39789     39791
     39786     39787     39789     39801     39787     39786     39784     39792
     39787     39789     39801     39802     39787     39789     39801     39803
     39787     39789     39801     39804     39788     39787     39789     39790
     39788     39787     39789     39791     39788     39787     39789     39801
     39789     39801     39804     39805     39789     39801     39804     39806
     39789     39801     39804     39807     39790     39789     39801     39802
     39790     39789     39801     39803     39790     39789     39801     39804
     39791     39789     39801     39802     39791     39789     39801     39803
     39791     39789     39801     39804     39792     39795     39796     39797
     39792     39795     39796     39798     39793     39792     39795     39796
     39794     39792     39795     39796     39795     39796     39798     39799
     39795     39796     39798     39800     39795     39796     39798     39848
     39796     39798     39848     39849     39796     39798     39848     39850
     39796     39798     39848     39851     39797     39796     39798     39799
     39797     39796     39798     39800     39797     39796     39798     39848
     39798     39848     39851     39852     39798     39848     39851     39853
     39798     39848     39851     39854     39799     39798     39848     39849
     39799     39798     39848     39850     39799     39798     39848     39851
     39800     39798     39848     39849     39800     39798     39848     39850
     39800     39798     39848     39851     39801     39804     39807     39808
     39801     39804     39807     39809     39801     39804     39807     39810
     39802     39801     39804     39805     39802     39801     39804     39806
     39802     39801     39804     39807     39803     39801     39804     39805
     39803     39801     39804     39806     39803     39801     39804     39807
     39804     39807     39810     39811     39804     39807     39810     39812
     39804     39807     39810     39813     39805     39804     39807     39808
     39805     39804     39807     39809     39805     39804     39807     39810
     39806     39804     39807     39808     39806     39804     39807     39809
     39806     39804     39807     39810     39807     39810     39813     39814
     39807     39810     39813     39815     39807     39810     39813     39816
     39808     39807     39810     39811     39808     39807     39810     39812
     39808     39807     39810     39813     39809     39807     39810     39811
     39809     39807     39810     39812     39809     39807     39810     39813
     39810     39813     39816     39817     39810     39813     39816     39818
     39810     39813     39816     39819     39811     39810     39813     39814
     39811     39810     39813     39815     39811     39810     39813     39816
     39812     39810     39813     39814     39812     39810     39813     39815
     39812     39810     39813     39816     39813     39816     39819     39820
     39813     39816     39819     39821     39814     39813     39816     39817
     39814     39813     39816     39818     39814     39813     39816     39819
     39815     39813     39816     39817     39815     39813     39816     39818
     39815     39813     39816     39819     39816     39819     39821     39822
     39816     39819     39821     39823     39817     39816     39819     39820
     39817     39816     39819     39821     39818     39816     39819     39820
     39818     39816     39819     39821     39819     39821     39823     39824
     39819     39821     39823     39825     39819     39821     39823     39826
     39820     39819     39821     39822     39820     39819     39821     39823
     39821     39823     39826     39827     39821     39823     39826     39828
     39821     39823     39826     39829     39822     39821     39823     39824
     39822     39821     39823     39825     39822     39821     39823     39826
     39823     39826     39829     39830     39823     39826     39829     39831
     39823     39826     39829     39832     39824     39823     39826     39827
     39824     39823     39826     39828     39824     39823     39826     39829
     39825     39823     39826     39827     39825     39823     39826     39828
     39825     39823     39826     39829     39826     39829     39832     39833
     39826     39829     39832     39834     39826     39829     39832     39835
     39827     39826     39829     39830     39827     39826     39829     39831
     39827     39826     39829     39832     39828     39826     39829     39830
     39828     39826     39829     39831     39828     39826     39829     39832
     39829     39832     39835     39836     39829     39832     39835     39837
     39829     39832     39835     39838     39830     39829     39832     39833
     39830     39829     39832     39834     39830     39829     39832     39835
     39831     39829     39832     39833     39831     39829     39832     39834
     39831     39829     39832     39835     39832     39835     39838     39839
     39832     39835     39838     39840     39832     39835     39838     39841
     39833     39832     39835     39836     39833     39832     39835     39837
     39833     39832     39835     39838     39834     39832     39835     39836
     39834     39832     39835     39837     39834     39832     39835     39838
     39835     39838     39841     39842     39835     39838     39841     39843
     39835     39838     39841     39844     39836     39835     39838     39839
     39836     39835     39838     39840     39836     39835     39838     39841
     39837     39835     39838     39839     39837     39835     39838     39840
     39837     39835     39838     39841     39838     39841     39844     39845
     39838     39841     39844     39846     39838     39841     39844     39847
     39839     39838     39841     39842     39839     39838     39841     39843
     39839     39838     39841     39844     39840     39838     39841     39842
     39840     39838     39841     39843     39840     39838     39841     39844
     39842     39841     39844     39845     39842     39841     39844     39846
     39842     39841     39844     39847     39843     39841     39844     39845
     39843     39841     39844     39846     39843     39841     39844     39847
     39848     39851     39854     39855     39848     39851     39854     39856
     39848     39851     39854     39857     39849     39848     39851     39852
     39849     39848     39851     39853     39849     39848     39851     39854
     39850     39848     39851     39852     39850     39848     39851     39853
     39850     39848     39851     39854     39851     39854     39857     39858
     39851     39854     39857     39859     39851     39854     39857     39860
     39852     39851     39854     39855     39852     39851     39854     39856
     39852     39851     39854     39857     39853     39851     39854     39855
     39853     39851     39854     39856     39853     39851     39854     39857
     39854     39857     39860     39861     39854     39857     39860     39862
     39854     39857     39860     39863     39855     39854     39857     39858
     39855     39854     39857     39859     39855     39854     39857     39860
     39856     39854     39857     39858     39856     39854     39857     39859
     39856     39854     39857     39860     39857     39860     39863     39864
     39857     39860     39863     39865     39857     39860     39863     39866
     39858     39857     39860     39861     39858     39857     39860     39862
     39858     39857     39860     39863     39859     39857     39860     39861
     39859     39857     39860     39862     39859     39857     39860     39863
     39860     39863     39866     39867     39860     39863     39866     39868
     39860     39863     39866     39869     39861     39860     39863     39864
     39861     39860     39863     39865     39861     39860     39863     39866
     39862     39860     39863     39864     39862     39860     39863     39865
     39862     39860     39863     39866     39863     39866     39869     39870
     39863     39866     39869     39871     39863     39866     39869     39872
     39864     39863     39866     39867     39864     39863     39866     39868
     39864     39863     39866     39869     39865     39863     39866     39867
     39865     39863     39866     39868     39865     39863     39866     39869
     39866     39869     39872     39873     39866     39869     39872     39874
     39866     39869     39872     39875     39867     39866     39869     39870
     39867     39866     39869     39871     39867     39866     39869     39872
     39868     39866     39869     39870     39868     39866     39869     39871
     39868     39866     39869     39872     39869     39872     39875     39876
     39869     39872     39875     39877     39869     39872     39875     39878
     39870     39869     39872     39873     39870     39869     39872     39874
     39870     39869     39872     39875     39871     39869     39872     39873
     39871     39869     39872     39874     39871     39869     39872     39875
     39872     39875     39878     39879     39872     39875     39878     39880
     39872     39875     39878     39881     39873     39872     39875     39876
     39873     39872     39875     39877     39873     39872     39875     39878
     39874     39872     39875     39876     39874     39872     39875     39877
     39874     39872     39875     39878     39875     39878     39881     39882
     39875     39878     39881     39883     39875     39878     39881     39884
     39876     39875     39878     39879     39876     39875     39878     39880
     39876     39875     39878     39881     39877     39875     39878     39879
     39877     39875     39878     39880     39877     39875     39878     39881
     39878     39881     39884     39885     39878     39881     39884     39886
     39878     39881     39884     39887     39879     39878     39881     39882
     39879     39878     39881     39883     39879     39878     39881     39884
     39880     39878     39881     39882     39880     39878     39881     39883
     39880     39878     39881     39884     39881     39884     39887     39888
     39881     39884     39887     39889     39881     39884     39887     39890
     39882     39881     39884     39885     39882     39881     39884     39886
     39882     39881     39884     39887     39883     39881     39884     39885
     39883     39881     39884     39886     39883     39881     39884     39887
     39885     39884     39887     39888     39885     39884     39887     39889
     39885     39884     39887     39890     39886     39884     39887     39888
     39886     39884     39887     39889     39886     39884     39887     39890
     39891     39892     39907     39908     39891     39892     39907     39909
     39891     39892     39907     39913     39892     39891     39895     39896
     39892     39891     39895     39897     39892     39891     39895     39898
     39892     39891     39899     39900     39892     39891     39899     39901
     39892     39891     39899     39902     39892     39891     39903     39904
     39892     39891     39903     39905     39892     39891     39903     39906
     39892     39907     39913     39910     39893     39892     39891     39895
     39893     39892     39891     39899     39893     39892     39891     39903
     39893     39892     39907     39908     39893     39892     39907     39909
     39893     39892     39907     39913     39894     39892     39891     39895
     39894     39892     39891     39899     39894     39892     39891     39903
     39894     39892     39907     39908     39894     39892     39907     39909
     39894     39892     39907     39913     39895     39891     39892     39907
     39895     39891     39899     39900     39895     39891     39899     39901
     39895     39891     39899     39902     39895     39891     39903     39904
     39895     39891     39903     39905     39895     39891     39903     39906
     39896     39895     39891     39899     39896     39895     39891     39903
     39897     39895     39891     39899     39897     39895     39891     39903
     39898     39895     39891     39899     39898     39895     39891     39903
     39899     39891     39892     39907     39899     39891     39903     39904
     39899     39891     39903     39905     39899     39891     39903     39906
     39900     39899     39891     39903     39901     39899     39891     39903
     39902     39899     39891     39903     39903     39891     39892     39907
     39907     39913     39910     39911     39907     39913     39910     39912
     39907     39913     39910     39914     39908     39907     39913     39910
     39909     39907     39913     39910     39910     39914     39915     39916
     39910     39914     39915     39917     39910     39914     39915     39918
     39911     39910     39914     39915     39912     39910     39914     39915
     39913     39910     39914     39915     39914     39915     39918     39919
     39914     39915     39918     39920     39914     39915     39918     39926
     39915     39918     39920     39921     39915     39918     39926     39927
     39915     39918     39926     39928     39915     39918     39926     39929
     39916     39915     39918     39919     39916     39915     39918     39920
     39916     39915     39918     39926     39917     39915     39918     39919
     39917     39915     39918     39920     39917     39915     39918     39926
     39918     39920     39921     39922     39918     39920     39921     39923
     39918     39926     39929     39930     39919     39918     39920     39921
     39919     39918     39926     39927     39919     39918     39926     39928
     39919     39918     39926     39929     39920     39918     39926     39927
     39920     39918     39926     39928     39920     39918     39926     39929
     39920     39921     39923     39924     39920     39921     39923     39925
     39920     39921     39923     39935     39921     39920     39918     39926
     39921     39923     39935     39936     39921     39923     39935     39937
     39921     39923     39935     39938     39922     39921     39923     39924
     39922     39921     39923     39925     39922     39921     39923     39935
     39923     39935     39938     39939     39923     39935     39938     39940
     39923     39935     39938     39941     39924     39923     39935     39936
     39924     39923     39935     39937     39924     39923     39935     39938
     39925     39923     39935     39936     39925     39923     39935     39937
     39925     39923     39935     39938     39926     39929     39930     39931
     39926     39929     39930     39932     39927     39926     39929     39930
     39928     39926     39929     39930     39929     39930     39932     39933
     39929     39930     39932     39934     39929     39930     39932     39982
     39930     39932     39982     39983     39930     39932     39982     39984
     39930     39932     39982     39985     39931     39930     39932     39933
     39931     39930     39932     39934     39931     39930     39932     39982
     39932     39982     39985     39986     39932     39982     39985     39987
     39932     39982     39985     39988     39933     39932     39982     39983
     39933     39932     39982     39984     39933     39932     39982     39985
     39934     39932     39982     39983     39934     39932     39982     39984
     39934     39932     39982     39985     39935     39938     39941     39942
     39935     39938     39941     39943     39935     39938     39941     39944
     39936     39935     39938     39939     39936     39935     39938     39940
     39936     39935     39938     39941     39937     39935     39938     39939
     39937     39935     39938     39940     39937     39935     39938     39941
     39938     39941     39944     39945     39938     39941     39944     39946
     39938     39941     39944     39947     39939     39938     39941     39942
     39939     39938     39941     39943     39939     39938     39941     39944
     39940     39938     39941     39942     39940     39938     39941     39943
     39940     39938     39941     39944     39941     39944     39947     39948
     39941     39944     39947     39949     39941     39944     39947     39950
     39942     39941     39944     39945     39942     39941     39944     39946
     39942     39941     39944     39947     39943     39941     39944     39945
     39943     39941     39944     39946     39943     39941     39944     39947
     39944     39947     39950     39951     39944     39947     39950     39952
     39944     39947     39950     39953     39945     39944     39947     39948
     39945     39944     39947     39949     39945     39944     39947     39950
     39946     39944     39947     39948     39946     39944     39947     39949
     39946     39944     39947     39950     39947     39950     39953     39954
     39947     39950     39953     39955     39948     39947     39950     39951
     39948     39947     39950     39952     39948     39947     39950     39953
     39949     39947     39950     39951     39949     39947     39950     39952
     39949     39947     39950     39953     39950     39953     39955     39956
     39950     39953     39955     39957     39951     39950     39953     39954
     39951     39950     39953     39955     39952     39950     39953     39954
     39952     39950     39953     39955     39953     39955     39957     39958
     39953     39955     39957     39959     39953     39955     39957     39960
     39954     39953     39955     39956     39954     39953     39955     39957
     39955     39957     39960     39961     39955     39957     39960     39962
     39955     39957     39960     39963     39956     39955     39957     39958
     39956     39955     39957     39959     39956     39955     39957     39960
     39957     39960     39963     39964     39957     39960     39963     39965
     39957     39960     39963     39966     39958     39957     39960     39961
     39958     39957     39960     39962     39958     39957     39960     39963
     39959     39957     39960     39961     39959     39957     39960     39962
     39959     39957     39960     39963     39960     39963     39966     39967
     39960     39963     39966     39968     39960     39963     39966     39969
     39961     39960     39963     39964     39961     39960     39963     39965
     39961     39960     39963     39966     39962     39960     39963     39964
     39962     39960     39963     39965     39962     39960     39963     39966
     39963     39966     39969     39970     39963     39966     39969     39971
     39963     39966     39969     39972     39964     39963     39966     39967
     39964     39963     39966     39968     39964     39963     39966     39969
     39965     39963     39966     39967     39965     39963     39966     39968
     39965     39963     39966     39969     39966     39969     39972     39973
     39966     39969     39972     39974     39966     39969     39972     39975
     39967     39966     39969     39970     39967     39966     39969     39971
     39967     39966     39969     39972     39968     39966     39969     39970
     39968     39966     39969     39971     39968     39966     39969     39972
     39969     39972     39975     39976     39969     39972     39975     39977
     39969     39972     39975     39978     39970     39969     39972     39973
     39970     39969     39972     39974     39970     39969     39972     39975
     39971     39969     39972     39973     39971     39969     39972     39974
     39971     39969     39972     39975     39972     39975     39978     39979
     39972     39975     39978     39980     39972     39975     39978     39981
     39973     39972     39975     39976     39973     39972     39975     39977
     39973     39972     39975     39978     39974     39972     39975     39976
     39974     39972     39975     39977     39974     39972     39975     39978
     39976     39975     39978     39979     39976     39975     39978     39980
     39976     39975     39978     39981     39977     39975     39978     39979
     39977     39975     39978     39980     39977     39975     39978     39981
     39982     39985     39988     39989     39982     39985     39988     39990
     39982     39985     39988     39991     39983     39982     39985     39986
     39983     39982     39985     39987     39983     39982     39985     39988
     39984     39982     39985     39986     39984     39982     39985     39987
     39984     39982     39985     39988     39985     39988     39991     39992
     39985     39988     39991     39993     39985     39988     39991     39994
     39986     39985     39988     39989     39986     39985     39988     39990
     39986     39985     39988     39991     39987     39985     39988     39989
     39987     39985     39988     39990     39987     39985     39988     39991
     39988     39991     39994     39995     39988     39991     39994     39996
     39988     39991     39994     39997     39989     39988     39991     39992
     39989     39988     39991     39993     39989     39988     39991     39994
     39990     39988     39991     39992     39990     39988     39991     39993
     39990     39988     39991     39994     39991     39994     39997     39998
     39991     39994     39997     39999     39991     39994     39997     40000
     39992     39991     39994     39995     39992     39991     39994     39996
     39992     39991     39994     39997     39993     39991     39994     39995
     39993     39991     39994     39996     39993     39991     39994     39997
     39994     39997     40000     40001     39994     39997     40000     40002
     39994     39997     40000     40003     39995     39994     39997     39998
     39995     39994     39997     39999     39995     39994     39997     40000
     39996     39994     39997     39998     39996     39994     39997     39999
     39996     39994     39997     40000     39997     40000     40003     40004
     39997     40000     40003     40005     39997     40000     40003     40006
     39998     39997     40000     40001     39998     39997     40000     40002
     39998     39997     40000     40003     39999     39997     40000     40001
     39999     39997     40000     40002     39999     39997     40000     40003
     40000     40003     40006     40007     40000     40003     40006     40008
     40000     40003     40006     40009     40001     40000     40003     40004
     40001     40000     40003     40005     40001     40000     40003     40006
     40002     40000     40003     40004     40002     40000     40003     40005
     40002     40000     40003     40006     40003     40006     40009     40010
     40003     40006     40009     40011     40003     40006     40009     40012
     40004     40003     40006     40007     40004     40003     40006     40008
     40004     40003     40006     40009     40005     40003     40006     40007
     40005     40003     40006     40008     40005     40003     40006     40009
     40006     40009     40012     40013     40006     40009     40012     40014
     40006     40009     40012     40015     40007     40006     40009     40010
     40007     40006     40009     40011     40007     40006     40009     40012
     40008     40006     40009     40010     40008     40006     40009     40011
     40008     40006     40009     40012     40009     40012     40015     40016
     40009     40012     40015     40017     40009     40012     40015     40018
     40010     40009     40012     40013     40010     40009     40012     40014
     40010     40009     40012     40015     40011     40009     40012     40013
     40011     40009     40012     40014     40011     40009     40012     40015
     40012     40015     40018     40019     40012     40015     40018     40020
     40012     40015     40018     40021     40013     40012     40015     40016
     40013     40012     40015     40017     40013     40012     40015     40018
     40014     40012     40015     40016     40014     40012     40015     40017
     40014     40012     40015     40018     40015     40018     40021     40022
     40015     40018     40021     40023     40015     40018     40021     40024
     40016     40015     40018     40019     40016     40015     40018     40020
     40016     40015     40018     40021     40017     40015     40018     40019
     40017     40015     40018     40020     40017     40015     40018     40021
     40019     40018     40021     40022     40019     40018     40021     40023
     40019     40018     40021     40024     40020     40018     40021     40022
     40020     40018     40021     40023     40020     40018     40021     40024
     40025     40026     40041     40042     40025     40026     40041     40043
     40025     40026     40041     40047     40026     40025     40029     40030
     40026     40025     40029     40031     40026     40025     40029     40032
     40026     40025     40033     40034     40026     40025     40033     40035
     40026     40025     40033     40036     40026     40025     40037     40038
     40026     40025     40037     40039     40026     40025     40037     40040
     40026     40041     40047     40044     40027     40026     40025     40029
     40027     40026     40025     40033     40027     40026     40025     40037
     40027     40026     40041     40042     40027     40026     40041     40043
     40027     40026     40041     40047     40028     40026     40025     40029
     40028     40026     40025     40033     40028     40026     40025     40037
     40028     40026     40041     40042     40028     40026     40041     40043
     40028     40026     40041     40047     40029     40025     40026     40041
     40029     40025     40033     40034     40029     40025     40033     40035
     40029     40025     40033     40036     40029     40025     40037     40038
     40029     40025     40037     40039     40029     40025     40037     40040
     40030     40029     40025     40033     40030     40029     40025     40037
     40031     40029     40025     40033     40031     40029     40025     40037
     40032     40029     40025     40033     40032     40029     40025     40037
     40033     40025     40026     40041     40033     40025     40037     40038
     40033     40025     40037     40039     40033     40025     40037     40040
     40034     40033     40025     40037     40035     40033     40025     40037
     40036     40033     40025     40037     40037     40025     40026     40041
     40041     40047     40044     40045     40041     40047     40044     40046
     40041     40047     40044     40048     40042     40041     40047     40044
     40043     40041     40047     40044     40044     40048     40049     40050
     40044     40048     40049     40051     40044     40048     40049     40052
     40045     40044     40048     40049     40046     40044     40048     40049
     40047     40044     40048     40049     40048     40049     40052     40053
     40048     40049     40052     40054     40048     40049     40052     40060
     40049     40052     40054     40055     40049     40052     40060     40061
     40049     40052     40060     40062     40049     40052     40060     40063
     40050     40049     40052     40053     40050     40049     40052     40054
     40050     40049     40052     40060     40051     40049     40052     40053
     40051     40049     40052     40054     40051     40049     40052     40060
     40052     40054     40055     40056     40052     40054     40055     40057
     40052     40060     40063     40064     40053     40052     40054     40055
     40053     40052     40060     40061     40053     40052     40060     40062
     40053     40052     40060     40063     40054     40052     40060     40061
     40054     40052     40060     40062     40054     40052     40060     40063
     40054     40055     40057     40058     40054     40055     40057     40059
     40054     40055     40057     40069     40055     40054     40052     40060
     40055     40057     40069     40070     40055     40057     40069     40071
     40055     40057     40069     40072     40056     40055     40057     40058
     40056     40055     40057     40059     40056     40055     40057     40069
     40057     40069     40072     40073     40057     40069     40072     40074
     40057     40069     40072     40075     40058     40057     40069     40070
     40058     40057     40069     40071     40058     40057     40069     40072
     40059     40057     40069     40070     40059     40057     40069     40071
     40059     40057     40069     40072     40060     40063     40064     40065
     40060     40063     40064     40066     40061     40060     40063     40064
     40062     40060     40063     40064     40063     40064     40066     40067
     40063     40064     40066     40068     40063     40064     40066     40116
     40064     40066     40116     40117     40064     40066     40116     40118
     40064     40066     40116     40119     40065     40064     40066     40067
     40065     40064     40066     40068     40065     40064     40066     40116
     40066     40116     40119     40120     40066     40116     40119     40121
     40066     40116     40119     40122     40067     40066     40116     40117
     40067     40066     40116     40118     40067     40066     40116     40119
     40068     40066     40116     40117     40068     40066     40116     40118
     40068     40066     40116     40119     40069     40072     40075     40076
     40069     40072     40075     40077     40069     40072     40075     40078
     40070     40069     40072     40073     40070     40069     40072     40074
     40070     40069     40072     40075     40071     40069     40072     40073
     40071     40069     40072     40074     40071     40069     40072     40075
     40072     40075     40078     40079     40072     40075     40078     40080
     40072     40075     40078     40081     40073     40072     40075     40076
     40073     40072     40075     40077     40073     40072     40075     40078
     40074     40072     40075     40076     40074     40072     40075     40077
     40074     40072     40075     40078     40075     40078     40081     40082
     40075     40078     40081     40083     40075     40078     40081     40084
     40076     40075     40078     40079     40076     40075     40078     40080
     40076     40075     40078     40081     40077     40075     40078     40079
     40077     40075     40078     40080     40077     40075     40078     40081
     40078     40081     40084     40085     40078     40081     40084     40086
     40078     40081     40084     40087     40079     40078     40081     40082
     40079     40078     40081     40083     40079     40078     40081     40084
     40080     40078     40081     40082     40080     40078     40081     40083
     40080     40078     40081     40084     40081     40084     40087     40088
     40081     40084     40087     40089     40082     40081     40084     40085
     40082     40081     40084     40086     40082     40081     40084     40087
     40083     40081     40084     40085     40083     40081     40084     40086
     40083     40081     40084     40087     40084     40087     40089     40090
     40084     40087     40089     40091     40085     40084     40087     40088
     40085     40084     40087     40089     40086     40084     40087     40088
     40086     40084     40087     40089     40087     40089     40091     40092
     40087     40089     40091     40093     40087     40089     40091     40094
     40088     40087     40089     40090     40088     40087     40089     40091
     40089     40091     40094     40095     40089     40091     40094     40096
     40089     40091     40094     40097     40090     40089     40091     40092
     40090     40089     40091     40093     40090     40089     40091     40094
     40091     40094     40097     40098     40091     40094     40097     40099
     40091     40094     40097     40100     40092     40091     40094     40095
     40092     40091     40094     40096     40092     40091     40094     40097
     40093     40091     40094     40095     40093     40091     40094     40096
     40093     40091     40094     40097     40094     40097     40100     40101
     40094     40097     40100     40102     40094     40097     40100     40103
     40095     40094     40097     40098     40095     40094     40097     40099
     40095     40094     40097     40100     40096     40094     40097     40098
     40096     40094     40097     40099     40096     40094     40097     40100
     40097     40100     40103     40104     40097     40100     40103     40105
     40097     40100     40103     40106     40098     40097     40100     40101
     40098     40097     40100     40102     40098     40097     40100     40103
     40099     40097     40100     40101     40099     40097     40100     40102
     40099     40097     40100     40103     40100     40103     40106     40107
     40100     40103     40106     40108     40100     40103     40106     40109
     40101     40100     40103     40104     40101     40100     40103     40105
     40101     40100     40103     40106     40102     40100     40103     40104
     40102     40100     40103     40105     40102     40100     40103     40106
     40103     40106     40109     40110     40103     40106     40109     40111
     40103     40106     40109     40112     40104     40103     40106     40107
     40104     40103     40106     40108     40104     40103     40106     40109
     40105     40103     40106     40107     40105     40103     40106     40108
     40105     40103     40106     40109     40106     40109     40112     40113
     40106     40109     40112     40114     40106     40109     40112     40115
     40107     40106     40109     40110     40107     40106     40109     40111
     40107     40106     40109     40112     40108     40106     40109     40110
     40108     40106     40109     40111     40108     40106     40109     40112
     40110     40109     40112     40113     40110     40109     40112     40114
     40110     40109     40112     40115     40111     40109     40112     40113
     40111     40109     40112     40114     40111     40109     40112     40115
     40116     40119     40122     40123     40116     40119     40122     40124
     40116     40119     40122     40125     40117     40116     40119     40120
     40117     40116     40119     40121     40117     40116     40119     40122
     40118     40116     40119     40120     40118     40116     40119     40121
     40118     40116     40119     40122     40119     40122     40125     40126
     40119     40122     40125     40127     40119     40122     40125     40128
     40120     40119     40122     40123     40120     40119     40122     40124
     40120     40119     40122     40125     40121     40119     40122     40123
     40121     40119     40122     40124     40121     40119     40122     40125
     40122     40125     40128     40129     40122     40125     40128     40130
     40122     40125     40128     40131     40123     40122     40125     40126
     40123     40122     40125     40127     40123     40122     40125     40128
     40124     40122     40125     40126     40124     40122     40125     40127
     40124     40122     40125     40128     40125     40128     40131     40132
     40125     40128     40131     40133     40125     40128     40131     40134
     40126     40125     40128     40129     40126     40125     40128     40130
     40126     40125     40128     40131     40127     40125     40128     40129
     40127     40125     40128     40130     40127     40125     40128     40131
     40128     40131     40134     40135     40128     40131     40134     40136
     40128     40131     40134     40137     40129     40128     40131     40132
     40129     40128     40131     40133     40129     40128     40131     40134
     40130     40128     40131     40132     40130     40128     40131     40133
     40130     40128     40131     40134     40131     40134     40137     40138
     40131     40134     40137     40139     40131     40134     40137     40140
     40132     40131     40134     40135     40132     40131     40134     40136
     40132     40131     40134     40137     40133     40131     40134     40135
     40133     40131     40134     40136     40133     40131     40134     40137
     40134     40137     40140     40141     40134     40137     40140     40142
     40134     40137     40140     40143     40135     40134     40137     40138
     40135     40134     40137     40139     40135     40134     40137     40140
     40136     40134     40137     40138     40136     40134     40137     40139
     40136     40134     40137     40140     40137     40140     40143     40144
     40137     40140     40143     40145     40137     40140     40143     40146
     40138     40137     40140     40141     40138     40137     40140     40142
     40138     40137     40140     40143     40139     40137     40140     40141
     40139     40137     40140     40142     40139     40137     40140     40143
     40140     40143     40146     40147     40140     40143     40146     40148
     40140     40143     40146     40149     40141     40140     40143     40144
     40141     40140     40143     40145     40141     40140     40143     40146
     40142     40140     40143     40144     40142     40140     40143     40145
     40142     40140     40143     40146     40143     40146     40149     40150
     40143     40146     40149     40151     40143     40146     40149     40152
     40144     40143     40146     40147     40144     40143     40146     40148
     40144     40143     40146     40149     40145     40143     40146     40147
     40145     40143     40146     40148     40145     40143     40146     40149
     40146     40149     40152     40153     40146     40149     40152     40154
     40146     40149     40152     40155     40147     40146     40149     40150
     40147     40146     40149     40151     40147     40146     40149     40152
     40148     40146     40149     40150     40148     40146     40149     40151
     40148     40146     40149     40152     40149     40152     40155     40156
     40149     40152     40155     40157     40149     40152     40155     40158
     40150     40149     40152     40153     40150     40149     40152     40154
     40150     40149     40152     40155     40151     40149     40152     40153
     40151     40149     40152     40154     40151     40149     40152     40155
     40153     40152     40155     40156     40153     40152     40155     40157
     40153     40152     40155     40158     40154     40152     40155     40156
     40154     40152     40155     40157     40154     40152     40155     40158
     40159     40163     40166     40167     40159     40163     40166     40168
     40159     40163     40166     40173     40160     40159     40163     40164
     40160     40159     40163     40165     40160     40159     40163     40166
     40161     40159     40163     40164     40161     40159     40163     40165
     40161     40159     40163     40166     40162     40159     40163     40164
     40162     40159     40163     40165     40162     40159     40163     40166
     40163     40166     40173     40169     40164     40163     40166     40167
     40164     40163     40166     40168     40164     40163     40166     40173
     40165     40163     40166     40167     40165     40163     40166     40168
     40165     40163     40166     40173     40166     40173     40169     40170
     40166     40173     40169     40171     40166     40173     40169     40172
     40167     40166     40173     40169     40168     40166     40173     40169
     40169     40172     40174     40175     40169     40172     40174     40176
     40169     40172     40174     40177     40170     40169     40172     40174
     40171     40169     40172     40174     40172     40174     40177     40178
     40172     40174     40177     40179     40172     40174     40177     40185
     40173     40169     40172     40174     40174     40177     40179     40180
     40174     40177     40185     40186     40174     40177     40185     40187
     40174     40177     40185     40188     40175     40174     40177     40178
     40175     40174     40177     40179     40175     40174     40177     40185
     40176     40174     40177     40178     40176     40174     40177     40179
     40176     40174     40177     40185     40177     40179     40180     40181
     40177     40179     40180     40182     40177     40185     40188     40189
     40178     40177     40179     40180     40178     40177     40185     40186
     40178     40177     40185     40187     40178     40177     40185     40188
     40179     40177     40185     40186     40179     40177     40185     40187
     40179     40177     40185     40188     40179     40180     40182     40183
     40179     40180     40182     40184     40179     40180     40182     40194
     40180     40179     40177     40185     40180     40182     40194     40195
     40180     40182     40194     40196     40180     40182     40194     40197
     40181     40180     40182     40183     40181     40180     40182     40184
     40181     40180     40182     40194     40182     40194     40197     40198
     40182     40194     40197     40199     40182     40194     40197     40200
     40183     40182     40194     40195     40183     40182     40194     40196
     40183     40182     40194     40197     40184     40182     40194     40195
     40184     40182     40194     40196     40184     40182     40194     40197
     40185     40188     40189     40190     40185     40188     40189     40191
     40186     40185     40188     40189     40187     40185     40188     40189
     40188     40189     40191     40192     40188     40189     40191     40193
     40188     40189     40191     40241     40189     40191     40241     40242
     40189     40191     40241     40243     40189     40191     40241     40244
     40190     40189     40191     40192     40190     40189     40191     40193
     40190     40189     40191     40241     40191     40241     40244     40245
     40191     40241     40244     40246     40191     40241     40244     40247
     40192     40191     40241     40242     40192     40191     40241     40243
     40192     40191     40241     40244     40193     40191     40241     40242
     40193     40191     40241     40243     40193     40191     40241     40244
     40194     40197     40200     40201     40194     40197     40200     40202
     40194     40197     40200     40203     40195     40194     40197     40198
     40195     40194     40197     40199     40195     40194     40197     40200
     40196     40194     40197     40198     40196     40194     40197     40199
     40196     40194     40197     40200     40197     40200     40203     40204
     40197     40200     40203     40205     40197     40200     40203     40206
     40198     40197     40200     40201     40198     40197     40200     40202
     40198     40197     40200     40203     40199     40197     40200     40201
     40199     40197     40200     40202     40199     40197     40200     40203
     40200     40203     40206     40207     40200     40203     40206     40208
     40200     40203     40206     40209     40201     40200     40203     40204
     40201     40200     40203     40205     40201     40200     40203     40206
     40202     40200     40203     40204     40202     40200     40203     40205
     40202     40200     40203     40206     40203     40206     40209     40210
     40203     40206     40209     40211     40203     40206     40209     40212
     40204     40203     40206     40207     40204     40203     40206     40208
     40204     40203     40206     40209     40205     40203     40206     40207
     40205     40203     40206     40208     40205     40203     40206     40209
     40206     40209     40212     40213     40206     40209     40212     40214
     40207     40206     40209     40210     40207     40206     40209     40211
     40207     40206     40209     40212     40208     40206     40209     40210
     40208     40206     40209     40211     40208     40206     40209     40212
     40209     40212     40214     40215     40209     40212     40214     40216
     40210     40209     40212     40213     40210     40209     40212     40214
     40211     40209     40212     40213     40211     40209     40212     40214
     40212     40214     40216     40217     40212     40214     40216     40218
     40212     40214     40216     40219     40213     40212     40214     40215
     40213     40212     40214     40216     40214     40216     40219     40220
     40214     40216     40219     40221     40214     40216     40219     40222
     40215     40214     40216     40217     40215     40214     40216     40218
     40215     40214     40216     40219     40216     40219     40222     40223
     40216     40219     40222     40224     40216     40219     40222     40225
     40217     40216     40219     40220     40217     40216     40219     40221
     40217     40216     40219     40222     40218     40216     40219     40220
     40218     40216     40219     40221     40218     40216     40219     40222
     40219     40222     40225     40226     40219     40222     40225     40227
     40219     40222     40225     40228     40220     40219     40222     40223
     40220     40219     40222     40224     40220     40219     40222     40225
     40221     40219     40222     40223     40221     40219     40222     40224
     40221     40219     40222     40225     40222     40225     40228     40229
     40222     40225     40228     40230     40222     40225     40228     40231
     40223     40222     40225     40226     40223     40222     40225     40227
     40223     40222     40225     40228     40224     40222     40225     40226
     40224     40222     40225     40227     40224     40222     40225     40228
     40225     40228     40231     40232     40225     40228     40231     40233
     40225     40228     40231     40234     40226     40225     40228     40229
     40226     40225     40228     40230     40226     40225     40228     40231
     40227     40225     40228     40229     40227     40225     40228     40230
     40227     40225     40228     40231     40228     40231     40234     40235
     40228     40231     40234     40236     40228     40231     40234     40237
     40229     40228     40231     40232     40229     40228     40231     40233
     40229     40228     40231     40234     40230     40228     40231     40232
     40230     40228     40231     40233     40230     40228     40231     40234
     40231     40234     40237     40238     40231     40234     40237     40239
     40231     40234     40237     40240     40232     40231     40234     40235
     40232     40231     40234     40236     40232     40231     40234     40237
     40233     40231     40234     40235     40233     40231     40234     40236
     40233     40231     40234     40237     40235     40234     40237     40238
     40235     40234     40237     40239     40235     40234     40237     40240
     40236     40234     40237     40238     40236     40234     40237     40239
     40236     40234     40237     40240     40241     40244     40247     40248
     40241     40244     40247     40249     40241     40244     40247     40250
     40242     40241     40244     40245     40242     40241     40244     40246
     40242     40241     40244     40247     40243     40241     40244     40245
     40243     40241     40244     40246     40243     40241     40244     40247
     40244     40247     40250     40251     40244     40247     40250     40252
     40244     40247     40250     40253     40245     40244     40247     40248
     40245     40244     40247     40249     40245     40244     40247     40250
     40246     40244     40247     40248     40246     40244     40247     40249
     40246     40244     40247     40250     40247     40250     40253     40254
     40247     40250     40253     40255     40247     40250     40253     40256
     40248     40247     40250     40251     40248     40247     40250     40252
     40248     40247     40250     40253     40249     40247     40250     40251
     40249     40247     40250     40252     40249     40247     40250     40253
     40250     40253     40256     40257     40250     40253     40256     40258
     40250     40253     40256     40259     40251     40250     40253     40254
     40251     40250     40253     40255     40251     40250     40253     40256
     40252     40250     40253     40254     40252     40250     40253     40255
     40252     40250     40253     40256     40253     40256     40259     40260
     40253     40256     40259     40261     40253     40256     40259     40262
     40254     40253     40256     40257     40254     40253     40256     40258
     40254     40253     40256     40259     40255     40253     40256     40257
     40255     40253     40256     40258     40255     40253     40256     40259
     40256     40259     40262     40263     40256     40259     40262     40264
     40256     40259     40262     40265     40257     40256     40259     40260
     40257     40256     40259     40261     40257     40256     40259     40262
     40258     40256     40259     40260     40258     40256     40259     40261
     40258     40256     40259     40262     40259     40262     40265     40266
     40259     40262     40265     40267     40259     40262     40265     40268
     40260     40259     40262     40263     40260     40259     40262     40264
     40260     40259     40262     40265     40261     40259     40262     40263
     40261     40259     40262     40264     40261     40259     40262     40265
     40262     40265     40268     40269     40262     40265     40268     40270
     40262     40265     40268     40271     40263     40262     40265     40266
     40263     40262     40265     40267     40263     40262     40265     40268
     40264     40262     40265     40266     40264     40262     40265     40267
     40264     40262     40265     40268     40265     40268     40271     40272
     40265     40268     40271     40273     40265     40268     40271     40274
     40266     40265     40268     40269     40266     40265     40268     40270
     40266     40265     40268     40271     40267     40265     40268     40269
     40267     40265     40268     40270     40267     40265     40268     40271
     40268     40271     40274     40275     40268     40271     40274     40276
     40268     40271     40274     40277     40269     40268     40271     40272
     40269     40268     40271     40273     40269     40268     40271     40274
     40270     40268     40271     40272     40270     40268     40271     40273
     40270     40268     40271     40274     40271     40274     40277     40278
     40271     40274     40277     40279     40271     40274     40277     40280
     40272     40271     40274     40275     40272     40271     40274     40276
     40272     40271     40274     40277     40273     40271     40274     40275
     40273     40271     40274     40276     40273     40271     40274     40277
     40274     40277     40280     40281     40274     40277     40280     40282
     40274     40277     40280     40283     40275     40274     40277     40278
     40275     40274     40277     40279     40275     40274     40277     40280
     40276     40274     40277     40278     40276     40274     40277     40279
     40276     40274     40277     40280     40278     40277     40280     40281
     40278     40277     40280     40282     40278     40277     40280     40283
     40279     40277     40280     40281     40279     40277     40280     40282
     40279     40277     40280     40283     40284     40288     40291     40292
     40284     40288     40291     40293     40284     40288     40291     40298
     40285     40284     40288     40289     40285     40284     40288     40290
     40285     40284     40288     40291     40286     40284     40288     40289
     40286     40284     40288     40290     40286     40284     40288     40291
     40287     40284     40288     40289     40287     40284     40288     40290
     40287     40284     40288     40291     40288     40291     40298     40294
     40289     40288     40291     40292     40289     40288     40291     40293
     40289     40288     40291     40298     40290     40288     40291     40292
     40290     40288     40291     40293     40290     40288     40291     40298
     40291     40298     40294     40295     40291     40298     40294     40296
     40291     40298     40294     40297     40292     40291     40298     40294
     40293     40291     40298     40294     40294     40297     40299     40300
     40294     40297     40299     40301     40294     40297     40299     40302
     40295     40294     40297     40299     40296     40294     40297     40299
     40297     40299     40302     40303     40297     40299     40302     40304
     40297     40299     40302     40310     40298     40294     40297     40299
     40299     40302     40304     40305     40299     40302     40310     40311
     40299     40302     40310     40312     40299     40302     40310     40313
     40300     40299     40302     40303     40300     40299     40302     40304
     40300     40299     40302     40310     40301     40299     40302     40303
     40301     40299     40302     40304     40301     40299     40302     40310
     40302     40304     40305     40306     40302     40304     40305     40307
     40302     40310     40313     40314     40303     40302     40304     40305
     40303     40302     40310     40311     40303     40302     40310     40312
     40303     40302     40310     40313     40304     40302     40310     40311
     40304     40302     40310     40312     40304     40302     40310     40313
     40304     40305     40307     40308     40304     40305     40307     40309
     40304     40305     40307     40319     40305     40304     40302     40310
     40305     40307     40319     40320     40305     40307     40319     40321
     40305     40307     40319     40322     40306     40305     40307     40308
     40306     40305     40307     40309     40306     40305     40307     40319
     40307     40319     40322     40323     40307     40319     40322     40324
     40307     40319     40322     40325     40308     40307     40319     40320
     40308     40307     40319     40321     40308     40307     40319     40322
     40309     40307     40319     40320     40309     40307     40319     40321
     40309     40307     40319     40322     40310     40313     40314     40315
     40310     40313     40314     40316     40311     40310     40313     40314
     40312     40310     40313     40314     40313     40314     40316     40317
     40313     40314     40316     40318     40313     40314     40316     40366
     40314     40316     40366     40367     40314     40316     40366     40368
     40314     40316     40366     40369     40315     40314     40316     40317
     40315     40314     40316     40318     40315     40314     40316     40366
     40316     40366     40369     40370     40316     40366     40369     40371
     40316     40366     40369     40372     40317     40316     40366     40367
     40317     40316     40366     40368     40317     40316     40366     40369
     40318     40316     40366     40367     40318     40316     40366     40368
     40318     40316     40366     40369     40319     40322     40325     40326
     40319     40322     40325     40327     40319     40322     40325     40328
     40320     40319     40322     40323     40320     40319     40322     40324
     40320     40319     40322     40325     40321     40319     40322     40323
     40321     40319     40322     40324     40321     40319     40322     40325
     40322     40325     40328     40329     40322     40325     40328     40330
     40322     40325     40328     40331     40323     40322     40325     40326
     40323     40322     40325     40327     40323     40322     40325     40328
     40324     40322     40325     40326     40324     40322     40325     40327
     40324     40322     40325     40328     40325     40328     40331     40332
     40325     40328     40331     40333     40325     40328     40331     40334
     40326     40325     40328     40329     40326     40325     40328     40330
     40326     40325     40328     40331     40327     40325     40328     40329
     40327     40325     40328     40330     40327     40325     40328     40331
     40328     40331     40334     40335     40328     40331     40334     40336
     40328     40331     40334     40337     40329     40328     40331     40332
     40329     40328     40331     40333     40329     40328     40331     40334
     40330     40328     40331     40332     40330     40328     40331     40333
     40330     40328     40331     40334     40331     40334     40337     40338
     40331     40334     40337     40339     40332     40331     40334     40335
     40332     40331     40334     40336     40332     40331     40334     40337
     40333     40331     40334     40335     40333     40331     40334     40336
     40333     40331     40334     40337     40334     40337     40339     40340
     40334     40337     40339     40341     40335     40334     40337     40338
     40335     40334     40337     40339     40336     40334     40337     40338
     40336     40334     40337     40339     40337     40339     40341     40342
     40337     40339     40341     40343     40337     40339     40341     40344
     40338     40337     40339     40340     40338     40337     40339     40341
     40339     40341     40344     40345     40339     40341     40344     40346
     40339     40341     40344     40347     40340     40339     40341     40342
     40340     40339     40341     40343     40340     40339     40341     40344
     40341     40344     40347     40348     40341     40344     40347     40349
     40341     40344     40347     40350     40342     40341     40344     40345
     40342     40341     40344     40346     40342     40341     40344     40347
     40343     40341     40344     40345     40343     40341     40344     40346
     40343     40341     40344     40347     40344     40347     40350     40351
     40344     40347     40350     40352     40344     40347     40350     40353
     40345     40344     40347     40348     40345     40344     40347     40349
     40345     40344     40347     40350     40346     40344     40347     40348
     40346     40344     40347     40349     40346     40344     40347     40350
     40347     40350     40353     40354     40347     40350     40353     40355
     40347     40350     40353     40356     40348     40347     40350     40351
     40348     40347     40350     40352     40348     40347     40350     40353
     40349     40347     40350     40351     40349     40347     40350     40352
     40349     40347     40350     40353     40350     40353     40356     40357
     40350     40353     40356     40358     40350     40353     40356     40359
     40351     40350     40353     40354     40351     40350     40353     40355
     40351     40350     40353     40356     40352     40350     40353     40354
     40352     40350     40353     40355     40352     40350     40353     40356
     40353     40356     40359     40360     40353     40356     40359     40361
     40353     40356     40359     40362     40354     40353     40356     40357
     40354     40353     40356     40358     40354     40353     40356     40359
     40355     40353     40356     40357     40355     40353     40356     40358
     40355     40353     40356     40359     40356     40359     40362     40363
     40356     40359     40362     40364     40356     40359     40362     40365
     40357     40356     40359     40360     40357     40356     40359     40361
     40357     40356     40359     40362     40358     40356     40359     40360
     40358     40356     40359     40361     40358     40356     40359     40362
     40360     40359     40362     40363     40360     40359     40362     40364
     40360     40359     40362     40365     40361     40359     40362     40363
     40361     40359     40362     40364     40361     40359     40362     40365
     40366     40369     40372     40373     40366     40369     40372     40374
     40366     40369     40372     40375     40367     40366     40369     40370
     40367     40366     40369     40371     40367     40366     40369     40372
     40368     40366     40369     40370     40368     40366     40369     40371
     40368     40366     40369     40372     40369     40372     40375     40376
     40369     40372     40375     40377     40369     40372     40375     40378
     40370     40369     40372     40373     40370     40369     40372     40374
     40370     40369     40372     40375     40371     40369     40372     40373
     40371     40369     40372     40374     40371     40369     40372     40375
     40372     40375     40378     40379     40372     40375     40378     40380
     40372     40375     40378     40381     40373     40372     40375     40376
     40373     40372     40375     40377     40373     40372     40375     40378
     40374     40372     40375     40376     40374     40372     40375     40377
     40374     40372     40375     40378     40375     40378     40381     40382
     40375     40378     40381     40383     40375     40378     40381     40384
     40376     40375     40378     40379     40376     40375     40378     40380
     40376     40375     40378     40381     40377     40375     40378     40379
     40377     40375     40378     40380     40377     40375     40378     40381
     40378     40381     40384     40385     40378     40381     40384     40386
     40378     40381     40384     40387     40379     40378     40381     40382
     40379     40378     40381     40383     40379     40378     40381     40384
     40380     40378     40381     40382     40380     40378     40381     40383
     40380     40378     40381     40384     40381     40384     40387     40388
     40381     40384     40387     40389     40381     40384     40387     40390
     40382     40381     40384     40385     40382     40381     40384     40386
     40382     40381     40384     40387     40383     40381     40384     40385
     40383     40381     40384     40386     40383     40381     40384     40387
     40384     40387     40390     40391     40384     40387     40390     40392
     40384     40387     40390     40393     40385     40384     40387     40388
     40385     40384     40387     40389     40385     40384     40387     40390
     40386     40384     40387     40388     40386     40384     40387     40389
     40386     40384     40387     40390     40387     40390     40393     40394
     40387     40390     40393     40395     40387     40390     40393     40396
     40388     40387     40390     40391     40388     40387     40390     40392
     40388     40387     40390     40393     40389     40387     40390     40391
     40389     40387     40390     40392     40389     40387     40390     40393
     40390     40393     40396     40397     40390     40393     40396     40398
     40390     40393     40396     40399     40391     40390     40393     40394
     40391     40390     40393     40395     40391     40390     40393     40396
     40392     40390     40393     40394     40392     40390     40393     40395
     40392     40390     40393     40396     40393     40396     40399     40400
     40393     40396     40399     40401     40393     40396     40399     40402
     40394     40393     40396     40397     40394     40393     40396     40398
     40394     40393     40396     40399     40395     40393     40396     40397
     40395     40393     40396     40398     40395     40393     40396     40399
     40396     40399     40402     40403     40396     40399     40402     40404
     40396     40399     40402     40405     40397     40396     40399     40400
     40397     40396     40399     40401     40397     40396     40399     40402
     40398     40396     40399     40400     40398     40396     40399     40401
     40398     40396     40399     40402     40399     40402     40405     40406
     40399     40402     40405     40407     40399     40402     40405     40408
     40400     40399     40402     40403     40400     40399     40402     40404
     40400     40399     40402     40405     40401     40399     40402     40403
     40401     40399     40402     40404     40401     40399     40402     40405
     40403     40402     40405     40406     40403     40402     40405     40407
     40403     40402     40405     40408     40404     40402     40405     40406
     40404     40402     40405     40407     40404     40402     40405     40408
     40409     40410     40425     40426     40409     40410     40425     40427
     40409     40410     40425     40431     40410     40409     40413     40414
     40410     40409     40413     40415     40410     40409     40413     40416
     40410     40409     40417     40418     40410     40409     40417     40419
     40410     40409     40417     40420     40410     40409     40421     40422
     40410     40409     40421     40423     40410     40409     40421     40424
     40410     40425     40431     40428     40411     40410     40409     40413
     40411     40410     40409     40417     40411     40410     40409     40421
     40411     40410     40425     40426     40411     40410     40425     40427
     40411     40410     40425     40431     40412     40410     40409     40413
     40412     40410     40409     40417     40412     40410     40409     40421
     40412     40410     40425     40426     40412     40410     40425     40427
     40412     40410     40425     40431     40413     40409     40410     40425
     40413     40409     40417     40418     40413     40409     40417     40419
     40413     40409     40417     40420     40413     40409     40421     40422
     40413     40409     40421     40423     40413     40409     40421     40424
     40414     40413     40409     40417     40414     40413     40409     40421
     40415     40413     40409     40417     40415     40413     40409     40421
     40416     40413     40409     40417     40416     40413     40409     40421
     40417     40409     40410     40425     40417     40409     40421     40422
     40417     40409     40421     40423     40417     40409     40421     40424
     40418     40417     40409     40421     40419     40417     40409     40421
     40420     40417     40409     40421     40421     40409     40410     40425
     40425     40431     40428     40429     40425     40431     40428     40430
     40425     40431     40428     40432     40426     40425     40431     40428
     40427     40425     40431     40428     40428     40432     40433     40434
     40428     40432     40433     40435     40428     40432     40433     40436
     40429     40428     40432     40433     40430     40428     40432     40433
     40431     40428     40432     40433     40432     40433     40436     40437
     40432     40433     40436     40438     40432     40433     40436     40444
     40433     40436     40438     40439     40433     40436     40444     40445
     40433     40436     40444     40446     40433     40436     40444     40447
     40434     40433     40436     40437     40434     40433     40436     40438
     40434     40433     40436     40444     40435     40433     40436     40437
     40435     40433     40436     40438     40435     40433     40436     40444
     40436     40438     40439     40440     40436     40438     40439     40441
     40436     40444     40447     40448     40437     40436     40438     40439
     40437     40436     40444     40445     40437     40436     40444     40446
     40437     40436     40444     40447     40438     40436     40444     40445
     40438     40436     40444     40446     40438     40436     40444     40447
     40438     40439     40441     40442     40438     40439     40441     40443
     40438     40439     40441     40453     40439     40438     40436     40444
     40439     40441     40453     40454     40439     40441     40453     40455
     40439     40441     40453     40456     40440     40439     40441     40442
     40440     40439     40441     40443     40440     40439     40441     40453
     40441     40453     40456     40457     40441     40453     40456     40458
     40441     40453     40456     40459     40442     40441     40453     40454
     40442     40441     40453     40455     40442     40441     40453     40456
     40443     40441     40453     40454     40443     40441     40453     40455
     40443     40441     40453     40456     40444     40447     40448     40449
     40444     40447     40448     40450     40445     40444     40447     40448
     40446     40444     40447     40448     40447     40448     40450     40451
     40447     40448     40450     40452     40447     40448     40450     40500
     40448     40450     40500     40501     40448     40450     40500     40502
     40448     40450     40500     40503     40449     40448     40450     40451
     40449     40448     40450     40452     40449     40448     40450     40500
     40450     40500     40503     40504     40450     40500     40503     40505
     40450     40500     40503     40506     40451     40450     40500     40501
     40451     40450     40500     40502     40451     40450     40500     40503
     40452     40450     40500     40501     40452     40450     40500     40502
     40452     40450     40500     40503     40453     40456     40459     40460
     40453     40456     40459     40461     40453     40456     40459     40462
     40454     40453     40456     40457     40454     40453     40456     40458
     40454     40453     40456     40459     40455     40453     40456     40457
     40455     40453     40456     40458     40455     40453     40456     40459
     40456     40459     40462     40463     40456     40459     40462     40464
     40456     40459     40462     40465     40457     40456     40459     40460
     40457     40456     40459     40461     40457     40456     40459     40462
     40458     40456     40459     40460     40458     40456     40459     40461
     40458     40456     40459     40462     40459     40462     40465     40466
     40459     40462     40465     40467     40459     40462     40465     40468
     40460     40459     40462     40463     40460     40459     40462     40464
     40460     40459     40462     40465     40461     40459     40462     40463
     40461     40459     40462     40464     40461     40459     40462     40465
     40462     40465     40468     40469     40462     40465     40468     40470
     40462     40465     40468     40471     40463     40462     40465     40466
     40463     40462     40465     40467     40463     40462     40465     40468
     40464     40462     40465     40466     40464     40462     40465     40467
     40464     40462     40465     40468     40465     40468     40471     40472
     40465     40468     40471     40473     40466     40465     40468     40469
     40466     40465     40468     40470     40466     40465     40468     40471
     40467     40465     40468     40469     40467     40465     40468     40470
     40467     40465     40468     40471     40468     40471     40473     40474
     40468     40471     40473     40475     40469     40468     40471     40472
     40469     40468     40471     40473     40470     40468     40471     40472
     40470     40468     40471     40473     40471     40473     40475     40476
     40471     40473     40475     40477     40471     40473     40475     40478
     40472     40471     40473     40474     40472     40471     40473     40475
     40473     40475     40478     40479     40473     40475     40478     40480
     40473     40475     40478     40481     40474     40473     40475     40476
     40474     40473     40475     40477     40474     40473     40475     40478
     40475     40478     40481     40482     40475     40478     40481     40483
     40475     40478     40481     40484     40476     40475     40478     40479
     40476     40475     40478     40480     40476     40475     40478     40481
     40477     40475     40478     40479     40477     40475     40478     40480
     40477     40475     40478     40481     40478     40481     40484     40485
     40478     40481     40484     40486     40478     40481     40484     40487
     40479     40478     40481     40482     40479     40478     40481     40483
     40479     40478     40481     40484     40480     40478     40481     40482
     40480     40478     40481     40483     40480     40478     40481     40484
     40481     40484     40487     40488     40481     40484     40487     40489
     40481     40484     40487     40490     40482     40481     40484     40485
     40482     40481     40484     40486     40482     40481     40484     40487
     40483     40481     40484     40485     40483     40481     40484     40486
     40483     40481     40484     40487     40484     40487     40490     40491
     40484     40487     40490     40492     40484     40487     40490     40493
     40485     40484     40487     40488     40485     40484     40487     40489
     40485     40484     40487     40490     40486     40484     40487     40488
     40486     40484     40487     40489     40486     40484     40487     40490
     40487     40490     40493     40494     40487     40490     40493     40495
     40487     40490     40493     40496     40488     40487     40490     40491
     40488     40487     40490     40492     40488     40487     40490     40493
     40489     40487     40490     40491     40489     40487     40490     40492
     40489     40487     40490     40493     40490     40493     40496     40497
     40490     40493     40496     40498     40490     40493     40496     40499
     40491     40490     40493     40494     40491     40490     40493     40495
     40491     40490     40493     40496     40492     40490     40493     40494
     40492     40490     40493     40495     40492     40490     40493     40496
     40494     40493     40496     40497     40494     40493     40496     40498
     40494     40493     40496     40499     40495     40493     40496     40497
     40495     40493     40496     40498     40495     40493     40496     40499
     40500     40503     40506     40507     40500     40503     40506     40508
     40500     40503     40506     40509     40501     40500     40503     40504
     40501     40500     40503     40505     40501     40500     40503     40506
     40502     40500     40503     40504     40502     40500     40503     40505
     40502     40500     40503     40506     40503     40506     40509     40510
     40503     40506     40509     40511     40503     40506     40509     40512
     40504     40503     40506     40507     40504     40503     40506     40508
     40504     40503     40506     40509     40505     40503     40506     40507
     40505     40503     40506     40508     40505     40503     40506     40509
     40506     40509     40512     40513     40506     40509     40512     40514
     40506     40509     40512     40515     40507     40506     40509     40510
     40507     40506     40509     40511     40507     40506     40509     40512
     40508     40506     40509     40510     40508     40506     40509     40511
     40508     40506     40509     40512     40509     40512     40515     40516
     40509     40512     40515     40517     40509     40512     40515     40518
     40510     40509     40512     40513     40510     40509     40512     40514
     40510     40509     40512     40515     40511     40509     40512     40513
     40511     40509     40512     40514     40511     40509     40512     40515
     40512     40515     40518     40519     40512     40515     40518     40520
     40512     40515     40518     40521     40513     40512     40515     40516
     40513     40512     40515     40517     40513     40512     40515     40518
     40514     40512     40515     40516     40514     40512     40515     40517
     40514     40512     40515     40518     40515     40518     40521     40522
     40515     40518     40521     40523     40515     40518     40521     40524
     40516     40515     40518     40519     40516     40515     40518     40520
     40516     40515     40518     40521     40517     40515     40518     40519
     40517     40515     40518     40520     40517     40515     40518     40521
     40518     40521     40524     40525     40518     40521     40524     40526
     40518     40521     40524     40527     40519     40518     40521     40522
     40519     40518     40521     40523     40519     40518     40521     40524
     40520     40518     40521     40522     40520     40518     40521     40523
     40520     40518     40521     40524     40521     40524     40527     40528
     40521     40524     40527     40529     40521     40524     40527     40530
     40522     40521     40524     40525     40522     40521     40524     40526
     40522     40521     40524     40527     40523     40521     40524     40525
     40523     40521     40524     40526     40523     40521     40524     40527
     40524     40527     40530     40531     40524     40527     40530     40532
     40524     40527     40530     40533     40525     40524     40527     40528
     40525     40524     40527     40529     40525     40524     40527     40530
     40526     40524     40527     40528     40526     40524     40527     40529
     40526     40524     40527     40530     40527     40530     40533     40534
     40527     40530     40533     40535     40527     40530     40533     40536
     40528     40527     40530     40531     40528     40527     40530     40532
     40528     40527     40530     40533     40529     40527     40530     40531
     40529     40527     40530     40532     40529     40527     40530     40533
     40530     40533     40536     40537     40530     40533     40536     40538
     40530     40533     40536     40539     40531     40530     40533     40534
     40531     40530     40533     40535     40531     40530     40533     40536
     40532     40530     40533     40534     40532     40530     40533     40535
     40532     40530     40533     40536     40533     40536     40539     40540
     40533     40536     40539     40541     40533     40536     40539     40542
     40534     40533     40536     40537     40534     40533     40536     40538
     40534     40533     40536     40539     40535     40533     40536     40537
     40535     40533     40536     40538     40535     40533     40536     40539
     40537     40536     40539     40540     40537     40536     40539     40541
     40537     40536     40539     40542     40538     40536     40539     40540
     40538     40536     40539     40541     40538     40536     40539     40542
     40543     40547     40550     40551     40543     40547     40550     40552
     40543     40547     40550     40557     40544     40543     40547     40548
     40544     40543     40547     40549     40544     40543     40547     40550
     40545     40543     40547     40548     40545     40543     40547     40549
     40545     40543     40547     40550     40546     40543     40547     40548
     40546     40543     40547     40549     40546     40543     40547     40550
     40547     40550     40557     40553     40548     40547     40550     40551
     40548     40547     40550     40552     40548     40547     40550     40557
     40549     40547     40550     40551     40549     40547     40550     40552
     40549     40547     40550     40557     40550     40557     40553     40554
     40550     40557     40553     40555     40550     40557     40553     40556
     40551     40550     40557     40553     40552     40550     40557     40553
     40553     40556     40558     40559     40553     40556     40558     40560
     40553     40556     40558     40561     40554     40553     40556     40558
     40555     40553     40556     40558     40556     40558     40561     40562
     40556     40558     40561     40563     40556     40558     40561     40569
     40557     40553     40556     40558     40558     40561     40563     40564
     40558     40561     40569     40570     40558     40561     40569     40571
     40558     40561     40569     40572     40559     40558     40561     40562
     40559     40558     40561     40563     40559     40558     40561     40569
     40560     40558     40561     40562     40560     40558     40561     40563
     40560     40558     40561     40569     40561     40563     40564     40565
     40561     40563     40564     40566     40561     40569     40572     40573
     40562     40561     40563     40564     40562     40561     40569     40570
     40562     40561     40569     40571     40562     40561     40569     40572
     40563     40561     40569     40570     40563     40561     40569     40571
     40563     40561     40569     40572     40563     40564     40566     40567
     40563     40564     40566     40568     40563     40564     40566     40578
     40564     40563     40561     40569     40564     40566     40578     40579
     40564     40566     40578     40580     40564     40566     40578     40581
     40565     40564     40566     40567     40565     40564     40566     40568
     40565     40564     40566     40578     40566     40578     40581     40582
     40566     40578     40581     40583     40566     40578     40581     40584
     40567     40566     40578     40579     40567     40566     40578     40580
     40567     40566     40578     40581     40568     40566     40578     40579
     40568     40566     40578     40580     40568     40566     40578     40581
     40569     40572     40573     40574     40569     40572     40573     40575
     40570     40569     40572     40573     40571     40569     40572     40573
     40572     40573     40575     40576     40572     40573     40575     40577
     40572     40573     40575     40625     40573     40575     40625     40626
     40573     40575     40625     40627     40573     40575     40625     40628
     40574     40573     40575     40576     40574     40573     40575     40577
     40574     40573     40575     40625     40575     40625     40628     40629
     40575     40625     40628     40630     40575     40625     40628     40631
     40576     40575     40625     40626     40576     40575     40625     40627
     40576     40575     40625     40628     40577     40575     40625     40626
     40577     40575     40625     40627     40577     40575     40625     40628
     40578     40581     40584     40585     40578     40581     40584     40586
     40578     40581     40584     40587     40579     40578     40581     40582
     40579     40578     40581     40583     40579     40578     40581     40584
     40580     40578     40581     40582     40580     40578     40581     40583
     40580     40578     40581     40584     40581     40584     40587     40588
     40581     40584     40587     40589     40581     40584     40587     40590
     40582     40581     40584     40585     40582     40581     40584     40586
     40582     40581     40584     40587     40583     40581     40584     40585
     40583     40581     40584     40586     40583     40581     40584     40587
     40584     40587     40590     40591     40584     40587     40590     40592
     40584     40587     40590     40593     40585     40584     40587     40588
     40585     40584     40587     40589     40585     40584     40587     40590
     40586     40584     40587     40588     40586     40584     40587     40589
     40586     40584     40587     40590     40587     40590     40593     40594
     40587     40590     40593     40595     40587     40590     40593     40596
     40588     40587     40590     40591     40588     40587     40590     40592
     40588     40587     40590     40593     40589     40587     40590     40591
     40589     40587     40590     40592     40589     40587     40590     40593
     40590     40593     40596     40597     40590     40593     40596     40598
     40591     40590     40593     40594     40591     40590     40593     40595
     40591     40590     40593     40596     40592     40590     40593     40594
     40592     40590     40593     40595     40592     40590     40593     40596
     40593     40596     40598     40599     40593     40596     40598     40600
     40594     40593     40596     40597     40594     40593     40596     40598
     40595     40593     40596     40597     40595     40593     40596     40598
     40596     40598     40600     40601     40596     40598     40600     40602
     40596     40598     40600     40603     40597     40596     40598     40599
     40597     40596     40598     40600     40598     40600     40603     40604
     40598     40600     40603     40605     40598     40600     40603     40606
     40599     40598     40600     40601     40599     40598     40600     40602
     40599     40598     40600     40603     40600     40603     40606     40607
     40600     40603     40606     40608     40600     40603     40606     40609
     40601     40600     40603     40604     40601     40600     40603     40605
     40601     40600     40603     40606     40602     40600     40603     40604
     40602     40600     40603     40605     40602     40600     40603     40606
     40603     40606     40609     40610     40603     40606     40609     40611
     40603     40606     40609     40612     40604     40603     40606     40607
     40604     40603     40606     40608     40604     40603     40606     40609
     40605     40603     40606     40607     40605     40603     40606     40608
     40605     40603     40606     40609     40606     40609     40612     40613
     40606     40609     40612     40614     40606     40609     40612     40615
     40607     40606     40609     40610     40607     40606     40609     40611
     40607     40606     40609     40612     40608     40606     40609     40610
     40608     40606     40609     40611     40608     40606     40609     40612
     40609     40612     40615     40616     40609     40612     40615     40617
     40609     40612     40615     40618     40610     40609     40612     40613
     40610     40609     40612     40614     40610     40609     40612     40615
     40611     40609     40612     40613     40611     40609     40612     40614
     40611     40609     40612     40615     40612     40615     40618     40619
     40612     40615     40618     40620     40612     40615     40618     40621
     40613     40612     40615     40616     40613     40612     40615     40617
     40613     40612     40615     40618     40614     40612     40615     40616
     40614     40612     40615     40617     40614     40612     40615     40618
     40615     40618     40621     40622     40615     40618     40621     40623
     40615     40618     40621     40624     40616     40615     40618     40619
     40616     40615     40618     40620     40616     40615     40618     40621
     40617     40615     40618     40619     40617     40615     40618     40620
     40617     40615     40618     40621     40619     40618     40621     40622
     40619     40618     40621     40623     40619     40618     40621     40624
     40620     40618     40621     40622     40620     40618     40621     40623
     40620     40618     40621     40624     40625     40628     40631     40632
     40625     40628     40631     40633     40625     40628     40631     40634
     40626     40625     40628     40629     40626     40625     40628     40630
     40626     40625     40628     40631     40627     40625     40628     40629
     40627     40625     40628     40630     40627     40625     40628     40631
     40628     40631     40634     40635     40628     40631     40634     40636
     40628     40631     40634     40637     40629     40628     40631     40632
     40629     40628     40631     40633     40629     40628     40631     40634
     40630     40628     40631     40632     40630     40628     40631     40633
     40630     40628     40631     40634     40631     40634     40637     40638
     40631     40634     40637     40639     40631     40634     40637     40640
     40632     40631     40634     40635     40632     40631     40634     40636
     40632     40631     40634     40637     40633     40631     40634     40635
     40633     40631     40634     40636     40633     40631     40634     40637
     40634     40637     40640     40641     40634     40637     40640     40642
     40634     40637     40640     40643     40635     40634     40637     40638
     40635     40634     40637     40639     40635     40634     40637     40640
     40636     40634     40637     40638     40636     40634     40637     40639
     40636     40634     40637     40640     40637     40640     40643     40644
     40637     40640     40643     40645     40637     40640     40643     40646
     40638     40637     40640     40641     40638     40637     40640     40642
     40638     40637     40640     40643     40639     40637     40640     40641
     40639     40637     40640     40642     40639     40637     40640     40643
     40640     40643     40646     40647     40640     40643     40646     40648
     40640     40643     40646     40649     40641     40640     40643     40644
     40641     40640     40643     40645     40641     40640     40643     40646
     40642     40640     40643     40644     40642     40640     40643     40645
     40642     40640     40643     40646     40643     40646     40649     40650
     40643     40646     40649     40651     40643     40646     40649     40652
     40644     40643     40646     40647     40644     40643     40646     40648
     40644     40643     40646     40649     40645     40643     40646     40647
     40645     40643     40646     40648     40645     40643     40646     40649
     40646     40649     40652     40653     40646     40649     40652     40654
     40646     40649     40652     40655     40647     40646     40649     40650
     40647     40646     40649     40651     40647     40646     40649     40652
     40648     40646     40649     40650     40648     40646     40649     40651
     40648     40646     40649     40652     40649     40652     40655     40656
     40649     40652     40655     40657     40649     40652     40655     40658
     40650     40649     40652     40653     40650     40649     40652     40654
     40650     40649     40652     40655     40651     40649     40652     40653
     40651     40649     40652     40654     40651     40649     40652     40655
     40652     40655     40658     40659     40652     40655     40658     40660
     40652     40655     40658     40661     40653     40652     40655     40656
     40653     40652     40655     40657     40653     40652     40655     40658
     40654     40652     40655     40656     40654     40652     40655     40657
     40654     40652     40655     40658     40655     40658     40661     40662
     40655     40658     40661     40663     40655     40658     40661     40664
     40656     40655     40658     40659     40656     40655     40658     40660
     40656     40655     40658     40661     40657     40655     40658     40659
     40657     40655     40658     40660     40657     40655     40658     40661
     40658     40661     40664     40665     40658     40661     40664     40666
     40658     40661     40664     40667     40659     40658     40661     40662
     40659     40658     40661     40663     40659     40658     40661     40664
     40660     40658     40661     40662     40660     40658     40661     40663
     40660     40658     40661     40664     40662     40661     40664     40665
     40662     40661     40664     40666     40662     40661     40664     40667
     40663     40661     40664     40665     40663     40661     40664     40666
     40663     40661     40664     40667     40668     40672     40675     40676
     40668     40672     40675     40677     40668     40672     40675     40682
     40669     40668     40672     40673     40669     40668     40672     40674
     40669     40668     40672     40675     40670     40668     40672     40673
     40670     40668     40672     40674     40670     40668     40672     40675
     40671     40668     40672     40673     40671     40668     40672     40674
     40671     40668     40672     40675     40672     40675     40682     40678
     40673     40672     40675     40676     40673     40672     40675     40677
     40673     40672     40675     40682     40674     40672     40675     40676
     40674     40672     40675     40677     40674     40672     40675     40682
     40675     40682     40678     40679     40675     40682     40678     40680
     40675     40682     40678     40681     40676     40675     40682     40678
     40677     40675     40682     40678     40678     40681     40683     40684
     40678     40681     40683     40685     40678     40681     40683     40686
     40679     40678     40681     40683     40680     40678     40681     40683
     40681     40683     40686     40687     40681     40683     40686     40688
     40681     40683     40686     40694     40682     40678     40681     40683
     40683     40686     40688     40689     40683     40686     40694     40695
     40683     40686     40694     40696     40683     40686     40694     40697
     40684     40683     40686     40687     40684     40683     40686     40688
     40684     40683     40686     40694     40685     40683     40686     40687
     40685     40683     40686     40688     40685     40683     40686     40694
     40686     40688     40689     40690     40686     40688     40689     40691
     40686     40694     40697     40698     40687     40686     40688     40689
     40687     40686     40694     40695     40687     40686     40694     40696
     40687     40686     40694     40697     40688     40686     40694     40695
     40688     40686     40694     40696     40688     40686     40694     40697
     40688     40689     40691     40692     40688     40689     40691     40693
     40688     40689     40691     40703     40689     40688     40686     40694
     40689     40691     40703     40704     40689     40691     40703     40705
     40689     40691     40703     40706     40690     40689     40691     40692
     40690     40689     40691     40693     40690     40689     40691     40703
     40691     40703     40706     40707     40691     40703     40706     40708
     40691     40703     40706     40709     40692     40691     40703     40704
     40692     40691     40703     40705     40692     40691     40703     40706
     40693     40691     40703     40704     40693     40691     40703     40705
     40693     40691     40703     40706     40694     40697     40698     40699
     40694     40697     40698     40700     40695     40694     40697     40698
     40696     40694     40697     40698     40697     40698     40700     40701
     40697     40698     40700     40702     40697     40698     40700     40750
     40698     40700     40750     40751     40698     40700     40750     40752
     40698     40700     40750     40753     40699     40698     40700     40701
     40699     40698     40700     40702     40699     40698     40700     40750
     40700     40750     40753     40754     40700     40750     40753     40755
     40700     40750     40753     40756     40701     40700     40750     40751
     40701     40700     40750     40752     40701     40700     40750     40753
     40702     40700     40750     40751     40702     40700     40750     40752
     40702     40700     40750     40753     40703     40706     40709     40710
     40703     40706     40709     40711     40703     40706     40709     40712
     40704     40703     40706     40707     40704     40703     40706     40708
     40704     40703     40706     40709     40705     40703     40706     40707
     40705     40703     40706     40708     40705     40703     40706     40709
     40706     40709     40712     40713     40706     40709     40712     40714
     40706     40709     40712     40715     40707     40706     40709     40710
     40707     40706     40709     40711     40707     40706     40709     40712
     40708     40706     40709     40710     40708     40706     40709     40711
     40708     40706     40709     40712     40709     40712     40715     40716
     40709     40712     40715     40717     40709     40712     40715     40718
     40710     40709     40712     40713     40710     40709     40712     40714
     40710     40709     40712     40715     40711     40709     40712     40713
     40711     40709     40712     40714     40711     40709     40712     40715
     40712     40715     40718     40719     40712     40715     40718     40720
     40712     40715     40718     40721     40713     40712     40715     40716
     40713     40712     40715     40717     40713     40712     40715     40718
     40714     40712     40715     40716     40714     40712     40715     40717
     40714     40712     40715     40718     40715     40718     40721     40722
     40715     40718     40721     40723     40716     40715     40718     40719
     40716     40715     40718     40720     40716     40715     40718     40721
     40717     40715     40718     40719     40717     40715     40718     40720
     40717     40715     40718     40721     40718     40721     40723     40724
     40718     40721     40723     40725     40719     40718     40721     40722
     40719     40718     40721     40723     40720     40718     40721     40722
     40720     40718     40721     40723     40721     40723     40725     40726
     40721     40723     40725     40727     40721     40723     40725     40728
     40722     40721     40723     40724     40722     40721     40723     40725
     40723     40725     40728     40729     40723     40725     40728     40730
     40723     40725     40728     40731     40724     40723     40725     40726
     40724     40723     40725     40727     40724     40723     40725     40728
     40725     40728     40731     40732     40725     40728     40731     40733
     40725     40728     40731     40734     40726     40725     40728     40729
     40726     40725     40728     40730     40726     40725     40728     40731
     40727     40725     40728     40729     40727     40725     40728     40730
     40727     40725     40728     40731     40728     40731     40734     40735
     40728     40731     40734     40736     40728     40731     40734     40737
     40729     40728     40731     40732     40729     40728     40731     40733
     40729     40728     40731     40734     40730     40728     40731     40732
     40730     40728     40731     40733     40730     40728     40731     40734
     40731     40734     40737     40738     40731     40734     40737     40739
     40731     40734     40737     40740     40732     40731     40734     40735
     40732     40731     40734     40736     40732     40731     40734     40737
     40733     40731     40734     40735     40733     40731     40734     40736
     40733     40731     40734     40737     40734     40737     40740     40741
     40734     40737     40740     40742     40734     40737     40740     40743
     40735     40734     40737     40738     40735     40734     40737     40739
     40735     40734     40737     40740     40736     40734     40737     40738
     40736     40734     40737     40739     40736     40734     40737     40740
     40737     40740     40743     40744     40737     40740     40743     40745
     40737     40740     40743     40746     40738     40737     40740     40741
     40738     40737     40740     40742     40738     40737     40740     40743
     40739     40737     40740     40741     40739     40737     40740     40742
     40739     40737     40740     40743     40740     40743     40746     40747
     40740     40743     40746     40748     40740     40743     40746     40749
     40741     40740     40743     40744     40741     40740     40743     40745
     40741     40740     40743     40746     40742     40740     40743     40744
     40742     40740     40743     40745     40742     40740     40743     40746
     40744     40743     40746     40747     40744     40743     40746     40748
     40744     40743     40746     40749     40745     40743     40746     40747
     40745     40743     40746     40748     40745     40743     40746     40749
     40750     40753     40756     40757     40750     40753     40756     40758
     40750     40753     40756     40759     40751     40750     40753     40754
     40751     40750     40753     40755     40751     40750     40753     40756
     40752     40750     40753     40754     40752     40750     40753     40755
     40752     40750     40753     40756     40753     40756     40759     40760
     40753     40756     40759     40761     40753     40756     40759     40762
     40754     40753     40756     40757     40754     40753     40756     40758
     40754     40753     40756     40759     40755     40753     40756     40757
     40755     40753     40756     40758     40755     40753     40756     40759
     40756     40759     40762     40763     40756     40759     40762     40764
     40756     40759     40762     40765     40757     40756     40759     40760
     40757     40756     40759     40761     40757     40756     40759     40762
     40758     40756     40759     40760     40758     40756     40759     40761
     40758     40756     40759     40762     40759     40762     40765     40766
     40759     40762     40765     40767     40759     40762     40765     40768
     40760     40759     40762     40763     40760     40759     40762     40764
     40760     40759     40762     40765     40761     40759     40762     40763
     40761     40759     40762     40764     40761     40759     40762     40765
     40762     40765     40768     40769     40762     40765     40768     40770
     40762     40765     40768     40771     40763     40762     40765     40766
     40763     40762     40765     40767     40763     40762     40765     40768
     40764     40762     40765     40766     40764     40762     40765     40767
     40764     40762     40765     40768     40765     40768     40771     40772
     40765     40768     40771     40773     40765     40768     40771     40774
     40766     40765     40768     40769     40766     40765     40768     40770
     40766     40765     40768     40771     40767     40765     40768     40769
     40767     40765     40768     40770     40767     40765     40768     40771
     40768     40771     40774     40775     40768     40771     40774     40776
     40768     40771     40774     40777     40769     40768     40771     40772
     40769     40768     40771     40773     40769     40768     40771     40774
     40770     40768     40771     40772     40770     40768     40771     40773
     40770     40768     40771     40774     40771     40774     40777     40778
     40771     40774     40777     40779     40771     40774     40777     40780
     40772     40771     40774     40775     40772     40771     40774     40776
     40772     40771     40774     40777     40773     40771     40774     40775
     40773     40771     40774     40776     40773     40771     40774     40777
     40774     40777     40780     40781     40774     40777     40780     40782
     40774     40777     40780     40783     40775     40774     40777     40778
     40775     40774     40777     40779     40775     40774     40777     40780
     40776     40774     40777     40778     40776     40774     40777     40779
     40776     40774     40777     40780     40777     40780     40783     40784
     40777     40780     40783     40785     40777     40780     40783     40786
     40778     40777     40780     40781     40778     40777     40780     40782
     40778     40777     40780     40783     40779     40777     40780     40781
     40779     40777     40780     40782     40779     40777     40780     40783
     40780     40783     40786     40787     40780     40783     40786     40788
     40780     40783     40786     40789     40781     40780     40783     40784
     40781     40780     40783     40785     40781     40780     40783     40786
     40782     40780     40783     40784     40782     40780     40783     40785
     40782     40780     40783     40786     40783     40786     40789     40790
     40783     40786     40789     40791     40783     40786     40789     40792
     40784     40783     40786     40787     40784     40783     40786     40788
     40784     40783     40786     40789     40785     40783     40786     40787
     40785     40783     40786     40788     40785     40783     40786     40789
     40787     40786     40789     40790     40787     40786     40789     40791
     40787     40786     40789     40792     40788     40786     40789     40790
     40788     40786     40789     40791     40788     40786     40789     40792
     40793     40794     40809     40810     40793     40794     40809     40811
     40793     40794     40809     40815     40794     40793     40797     40798
     40794     40793     40797     40799     40794     40793     40797     40800
     40794     40793     40801     40802     40794     40793     40801     40803
     40794     40793     40801     40804     40794     40793     40805     40806
     40794     40793     40805     40807     40794     40793     40805     40808
     40794     40809     40815     40812     40795     40794     40793     40797
     40795     40794     40793     40801     40795     40794     40793     40805
     40795     40794     40809     40810     40795     40794     40809     40811
     40795     40794     40809     40815     40796     40794     40793     40797
     40796     40794     40793     40801     40796     40794     40793     40805
     40796     40794     40809     40810     40796     40794     40809     40811
     40796     40794     40809     40815     40797     40793     40794     40809
     40797     40793     40801     40802     40797     40793     40801     40803
     40797     40793     40801     40804     40797     40793     40805     40806
     40797     40793     40805     40807     40797     40793     40805     40808
     40798     40797     40793     40801     40798     40797     40793     40805
     40799     40797     40793     40801     40799     40797     40793     40805
     40800     40797     40793     40801     40800     40797     40793     40805
     40801     40793     40794     40809     40801     40793     40805     40806
     40801     40793     40805     40807     40801     40793     40805     40808
     40802     40801     40793     40805     40803     40801     40793     40805
     40804     40801     40793     40805     40805     40793     40794     40809
     40809     40815     40812     40813     40809     40815     40812     40814
     40809     40815     40812     40816     40810     40809     40815     40812
     40811     40809     40815     40812     40812     40816     40817     40818
     40812     40816     40817     40819     40812     40816     40817     40820
     40813     40812     40816     40817     40814     40812     40816     40817
     40815     40812     40816     40817     40816     40817     40820     40821
     40816     40817     40820     40822     40816     40817     40820     40828
     40817     40820     40822     40823     40817     40820     40828     40829
     40817     40820     40828     40830     40817     40820     40828     40831
     40818     40817     40820     40821     40818     40817     40820     40822
     40818     40817     40820     40828     40819     40817     40820     40821
     40819     40817     40820     40822     40819     40817     40820     40828
     40820     40822     40823     40824     40820     40822     40823     40825
     40820     40828     40831     40832     40821     40820     40822     40823
     40821     40820     40828     40829     40821     40820     40828     40830
     40821     40820     40828     40831     40822     40820     40828     40829
     40822     40820     40828     40830     40822     40820     40828     40831
     40822     40823     40825     40826     40822     40823     40825     40827
     40822     40823     40825     40837     40823     40822     40820     40828
     40823     40825     40837     40838     40823     40825     40837     40839
     40823     40825     40837     40840     40824     40823     40825     40826
     40824     40823     40825     40827     40824     40823     40825     40837
     40825     40837     40840     40841     40825     40837     40840     40842
     40825     40837     40840     40843     40826     40825     40837     40838
     40826     40825     40837     40839     40826     40825     40837     40840
     40827     40825     40837     40838     40827     40825     40837     40839
     40827     40825     40837     40840     40828     40831     40832     40833
     40828     40831     40832     40834     40829     40828     40831     40832
     40830     40828     40831     40832     40831     40832     40834     40835
     40831     40832     40834     40836     40831     40832     40834     40884
     40832     40834     40884     40885     40832     40834     40884     40886
     40832     40834     40884     40887     40833     40832     40834     40835
     40833     40832     40834     40836     40833     40832     40834     40884
     40834     40884     40887     40888     40834     40884     40887     40889
     40834     40884     40887     40890     40835     40834     40884     40885
     40835     40834     40884     40886     40835     40834     40884     40887
     40836     40834     40884     40885     40836     40834     40884     40886
     40836     40834     40884     40887     40837     40840     40843     40844
     40837     40840     40843     40845     40837     40840     40843     40846
     40838     40837     40840     40841     40838     40837     40840     40842
     40838     40837     40840     40843     40839     40837     40840     40841
     40839     40837     40840     40842     40839     40837     40840     40843
     40840     40843     40846     40847     40840     40843     40846     40848
     40840     40843     40846     40849     40841     40840     40843     40844
     40841     40840     40843     40845     40841     40840     40843     40846
     40842     40840     40843     40844     40842     40840     40843     40845
     40842     40840     40843     40846     40843     40846     40849     40850
     40843     40846     40849     40851     40843     40846     40849     40852
     40844     40843     40846     40847     40844     40843     40846     40848
     40844     40843     40846     40849     40845     40843     40846     40847
     40845     40843     40846     40848     40845     40843     40846     40849
     40846     40849     40852     40853     40846     40849     40852     40854
     40846     40849     40852     40855     40847     40846     40849     40850
     40847     40846     40849     40851     40847     40846     40849     40852
     40848     40846     40849     40850     40848     40846     40849     40851
     40848     40846     40849     40852     40849     40852     40855     40856
     40849     40852     40855     40857     40850     40849     40852     40853
     40850     40849     40852     40854     40850     40849     40852     40855
     40851     40849     40852     40853     40851     40849     40852     40854
     40851     40849     40852     40855     40852     40855     40857     40858
     40852     40855     40857     40859     40853     40852     40855     40856
     40853     40852     40855     40857     40854     40852     40855     40856
     40854     40852     40855     40857     40855     40857     40859     40860
     40855     40857     40859     40861     40855     40857     40859     40862
     40856     40855     40857     40858     40856     40855     40857     40859
     40857     40859     40862     40863     40857     40859     40862     40864
     40857     40859     40862     40865     40858     40857     40859     40860
     40858     40857     40859     40861     40858     40857     40859     40862
     40859     40862     40865     40866     40859     40862     40865     40867
     40859     40862     40865     40868     40860     40859     40862     40863
     40860     40859     40862     40864     40860     40859     40862     40865
     40861     40859     40862     40863     40861     40859     40862     40864
     40861     40859     40862     40865     40862     40865     40868     40869
     40862     40865     40868     40870     40862     40865     40868     40871
     40863     40862     40865     40866     40863     40862     40865     40867
     40863     40862     40865     40868     40864     40862     40865     40866
     40864     40862     40865     40867     40864     40862     40865     40868
     40865     40868     40871     40872     40865     40868     40871     40873
     40865     40868     40871     40874     40866     40865     40868     40869
     40866     40865     40868     40870     40866     40865     40868     40871
     40867     40865     40868     40869     40867     40865     40868     40870
     40867     40865     40868     40871     40868     40871     40874     40875
     40868     40871     40874     40876     40868     40871     40874     40877
     40869     40868     40871     40872     40869     40868     40871     40873
     40869     40868     40871     40874     40870     40868     40871     40872
     40870     40868     40871     40873     40870     40868     40871     40874
     40871     40874     40877     40878     40871     40874     40877     40879
     40871     40874     40877     40880     40872     40871     40874     40875
     40872     40871     40874     40876     40872     40871     40874     40877
     40873     40871     40874     40875     40873     40871     40874     40876
     40873     40871     40874     40877     40874     40877     40880     40881
     40874     40877     40880     40882     40874     40877     40880     40883
     40875     40874     40877     40878     40875     40874     40877     40879
     40875     40874     40877     40880     40876     40874     40877     40878
     40876     40874     40877     40879     40876     40874     40877     40880
     40878     40877     40880     40881     40878     40877     40880     40882
     40878     40877     40880     40883     40879     40877     40880     40881
     40879     40877     40880     40882     40879     40877     40880     40883
     40884     40887     40890     40891     40884     40887     40890     40892
     40884     40887     40890     40893     40885     40884     40887     40888
     40885     40884     40887     40889     40885     40884     40887     40890
     40886     40884     40887     40888     40886     40884     40887     40889
     40886     40884     40887     40890     40887     40890     40893     40894
     40887     40890     40893     40895     40887     40890     40893     40896
     40888     40887     40890     40891     40888     40887     40890     40892
     40888     40887     40890     40893     40889     40887     40890     40891
     40889     40887     40890     40892     40889     40887     40890     40893
     40890     40893     40896     40897     40890     40893     40896     40898
     40890     40893     40896     40899     40891     40890     40893     40894
     40891     40890     40893     40895     40891     40890     40893     40896
     40892     40890     40893     40894     40892     40890     40893     40895
     40892     40890     40893     40896     40893     40896     40899     40900
     40893     40896     40899     40901     40893     40896     40899     40902
     40894     40893     40896     40897     40894     40893     40896     40898
     40894     40893     40896     40899     40895     40893     40896     40897
     40895     40893     40896     40898     40895     40893     40896     40899
     40896     40899     40902     40903     40896     40899     40902     40904
     40896     40899     40902     40905     40897     40896     40899     40900
     40897     40896     40899     40901     40897     40896     40899     40902
     40898     40896     40899     40900     40898     40896     40899     40901
     40898     40896     40899     40902     40899     40902     40905     40906
     40899     40902     40905     40907     40899     40902     40905     40908
     40900     40899     40902     40903     40900     40899     40902     40904
     40900     40899     40902     40905     40901     40899     40902     40903
     40901     40899     40902     40904     40901     40899     40902     40905
     40902     40905     40908     40909     40902     40905     40908     40910
     40902     40905     40908     40911     40903     40902     40905     40906
     40903     40902     40905     40907     40903     40902     40905     40908
     40904     40902     40905     40906     40904     40902     40905     40907
     40904     40902     40905     40908     40905     40908     40911     40912
     40905     40908     40911     40913     40905     40908     40911     40914
     40906     40905     40908     40909     40906     40905     40908     40910
     40906     40905     40908     40911     40907     40905     40908     40909
     40907     40905     40908     40910     40907     40905     40908     40911
     40908     40911     40914     40915     40908     40911     40914     40916
     40908     40911     40914     40917     40909     40908     40911     40912
     40909     40908     40911     40913     40909     40908     40911     40914
     40910     40908     40911     40912     40910     40908     40911     40913
     40910     40908     40911     40914     40911     40914     40917     40918
     40911     40914     40917     40919     40911     40914     40917     40920
     40912     40911     40914     40915     40912     40911     40914     40916
     40912     40911     40914     40917     40913     40911     40914     40915
     40913     40911     40914     40916     40913     40911     40914     40917
     40914     40917     40920     40921     40914     40917     40920     40922
     40914     40917     40920     40923     40915     40914     40917     40918
     40915     40914     40917     40919     40915     40914     40917     40920
     40916     40914     40917     40918     40916     40914     40917     40919
     40916     40914     40917     40920     40917     40920     40923     40924
     40917     40920     40923     40925     40917     40920     40923     40926
     40918     40917     40920     40921     40918     40917     40920     40922
     40918     40917     40920     40923     40919     40917     40920     40921
     40919     40917     40920     40922     40919     40917     40920     40923
     40921     40920     40923     40924     40921     40920     40923     40925
     40921     40920     40923     40926     40922     40920     40923     40924
     40922     40920     40923     40925     40922     40920     40923     40926
     40927     40928     40943     40944     40927     40928     40943     40945
     40927     40928     40943     40949     40928     40927     40931     40932
     40928     40927     40931     40933     40928     40927     40931     40934
     40928     40927     40935     40936     40928     40927     40935     40937
     40928     40927     40935     40938     40928     40927     40939     40940
     40928     40927     40939     40941     40928     40927     40939     40942
     40928     40943     40949     40946     40929     40928     40927     40931
     40929     40928     40927     40935     40929     40928     40927     40939
     40929     40928     40943     40944     40929     40928     40943     40945
     40929     40928     40943     40949     40930     40928     40927     40931
     40930     40928     40927     40935     40930     40928     40927     40939
     40930     40928     40943     40944     40930     40928     40943     40945
     40930     40928     40943     40949     40931     40927     40928     40943
     40931     40927     40935     40936     40931     40927     40935     40937
     40931     40927     40935     40938     40931     40927     40939     40940
     40931     40927     40939     40941     40931     40927     40939     40942
     40932     40931     40927     40935     40932     40931     40927     40939
     40933     40931     40927     40935     40933     40931     40927     40939
     40934     40931     40927     40935     40934     40931     40927     40939
     40935     40927     40928     40943     40935     40927     40939     40940
     40935     40927     40939     40941     40935     40927     40939     40942
     40936     40935     40927     40939     40937     40935     40927     40939
     40938     40935     40927     40939     40939     40927     40928     40943
     40943     40949     40946     40947     40943     40949     40946     40948
     40943     40949     40946     40950     40944     40943     40949     40946
     40945     40943     40949     40946     40946     40950     40951     40952
     40946     40950     40951     40953     40946     40950     40951     40954
     40947     40946     40950     40951     40948     40946     40950     40951
     40949     40946     40950     40951     40950     40951     40954     40955
     40950     40951     40954     40956     40950     40951     40954     40962
     40951     40954     40956     40957     40951     40954     40962     40963
     40951     40954     40962     40964     40951     40954     40962     40965
     40952     40951     40954     40955     40952     40951     40954     40956
     40952     40951     40954     40962     40953     40951     40954     40955
     40953     40951     40954     40956     40953     40951     40954     40962
     40954     40956     40957     40958     40954     40956     40957     40959
     40954     40962     40965     40966     40955     40954     40956     40957
     40955     40954     40962     40963     40955     40954     40962     40964
     40955     40954     40962     40965     40956     40954     40962     40963
     40956     40954     40962     40964     40956     40954     40962     40965
     40956     40957     40959     40960     40956     40957     40959     40961
     40956     40957     40959     40971     40957     40956     40954     40962
     40957     40959     40971     40972     40957     40959     40971     40973
     40957     40959     40971     40974     40958     40957     40959     40960
     40958     40957     40959     40961     40958     40957     40959     40971
     40959     40971     40974     40975     40959     40971     40974     40976
     40959     40971     40974     40977     40960     40959     40971     40972
     40960     40959     40971     40973     40960     40959     40971     40974
     40961     40959     40971     40972     40961     40959     40971     40973
     40961     40959     40971     40974     40962     40965     40966     40967
     40962     40965     40966     40968     40963     40962     40965     40966
     40964     40962     40965     40966     40965     40966     40968     40969
     40965     40966     40968     40970     40965     40966     40968     41018
     40966     40968     41018     41019     40966     40968     41018     41020
     40966     40968     41018     41021     40967     40966     40968     40969
     40967     40966     40968     40970     40967     40966     40968     41018
     40968     41018     41021     41022     40968     41018     41021     41023
     40968     41018     41021     41024     40969     40968     41018     41019
     40969     40968     41018     41020     40969     40968     41018     41021
     40970     40968     41018     41019     40970     40968     41018     41020
     40970     40968     41018     41021     40971     40974     40977     40978
     40971     40974     40977     40979     40971     40974     40977     40980
     40972     40971     40974     40975     40972     40971     40974     40976
     40972     40971     40974     40977     40973     40971     40974     40975
     40973     40971     40974     40976     40973     40971     40974     40977
     40974     40977     40980     40981     40974     40977     40980     40982
     40974     40977     40980     40983     40975     40974     40977     40978
     40975     40974     40977     40979     40975     40974     40977     40980
     40976     40974     40977     40978     40976     40974     40977     40979
     40976     40974     40977     40980     40977     40980     40983     40984
     40977     40980     40983     40985     40977     40980     40983     40986
     40978     40977     40980     40981     40978     40977     40980     40982
     40978     40977     40980     40983     40979     40977     40980     40981
     40979     40977     40980     40982     40979     40977     40980     40983
     40980     40983     40986     40987     40980     40983     40986     40988
     40980     40983     40986     40989     40981     40980     40983     40984
     40981     40980     40983     40985     40981     40980     40983     40986
     40982     40980     40983     40984     40982     40980     40983     40985
     40982     40980     40983     40986     40983     40986     40989     40990
     40983     40986     40989     40991     40984     40983     40986     40987
     40984     40983     40986     40988     40984     40983     40986     40989
     40985     40983     40986     40987     40985     40983     40986     40988
     40985     40983     40986     40989     40986     40989     40991     40992
     40986     40989     40991     40993     40987     40986     40989     40990
     40987     40986     40989     40991     40988     40986     40989     40990
     40988     40986     40989     40991     40989     40991     40993     40994
     40989     40991     40993     40995     40989     40991     40993     40996
     40990     40989     40991     40992     40990     40989     40991     40993
     40991     40993     40996     40997     40991     40993     40996     40998
     40991     40993     40996     40999     40992     40991     40993     40994
     40992     40991     40993     40995     40992     40991     40993     40996
     40993     40996     40999     41000     40993     40996     40999     41001
     40993     40996     40999     41002     40994     40993     40996     40997
     40994     40993     40996     40998     40994     40993     40996     40999
     40995     40993     40996     40997     40995     40993     40996     40998
     40995     40993     40996     40999     40996     40999     41002     41003
     40996     40999     41002     41004     40996     40999     41002     41005
     40997     40996     40999     41000     40997     40996     40999     41001
     40997     40996     40999     41002     40998     40996     40999     41000
     40998     40996     40999     41001     40998     40996     40999     41002
     40999     41002     41005     41006     40999     41002     41005     41007
     40999     41002     41005     41008     41000     40999     41002     41003
     41000     40999     41002     41004     41000     40999     41002     41005
     41001     40999     41002     41003     41001     40999     41002     41004
     41001     40999     41002     41005     41002     41005     41008     41009
     41002     41005     41008     41010     41002     41005     41008     41011
     41003     41002     41005     41006     41003     41002     41005     41007
     41003     41002     41005     41008     41004     41002     41005     41006
     41004     41002     41005     41007     41004     41002     41005     41008
     41005     41008     41011     41012     41005     41008     41011     41013
     41005     41008     41011     41014     41006     41005     41008     41009
     41006     41005     41008     41010     41006     41005     41008     41011
     41007     41005     41008     41009     41007     41005     41008     41010
     41007     41005     41008     41011     41008     41011     41014     41015
     41008     41011     41014     41016     41008     41011     41014     41017
     41009     41008     41011     41012     41009     41008     41011     41013
     41009     41008     41011     41014     41010     41008     41011     41012
     41010     41008     41011     41013     41010     41008     41011     41014
     41012     41011     41014     41015     41012     41011     41014     41016
     41012     41011     41014     41017     41013     41011     41014     41015
     41013     41011     41014     41016     41013     41011     41014     41017
     41018     41021     41024     41025     41018     41021     41024     41026
     41018     41021     41024     41027     41019     41018     41021     41022
     41019     41018     41021     41023     41019     41018     41021     41024
     41020     41018     41021     41022     41020     41018     41021     41023
     41020     41018     41021     41024     41021     41024     41027     41028
     41021     41024     41027     41029     41021     41024     41027     41030
     41022     41021     41024     41025     41022     41021     41024     41026
     41022     41021     41024     41027     41023     41021     41024     41025
     41023     41021     41024     41026     41023     41021     41024     41027
     41024     41027     41030     41031     41024     41027     41030     41032
     41024     41027     41030     41033     41025     41024     41027     41028
     41025     41024     41027     41029     41025     41024     41027     41030
     41026     41024     41027     41028     41026     41024     41027     41029
     41026     41024     41027     41030     41027     41030     41033     41034
     41027     41030     41033     41035     41027     41030     41033     41036
     41028     41027     41030     41031     41028     41027     41030     41032
     41028     41027     41030     41033     41029     41027     41030     41031
     41029     41027     41030     41032     41029     41027     41030     41033
     41030     41033     41036     41037     41030     41033     41036     41038
     41030     41033     41036     41039     41031     41030     41033     41034
     41031     41030     41033     41035     41031     41030     41033     41036
     41032     41030     41033     41034     41032     41030     41033     41035
     41032     41030     41033     41036     41033     41036     41039     41040
     41033     41036     41039     41041     41033     41036     41039     41042
     41034     41033     41036     41037     41034     41033     41036     41038
     41034     41033     41036     41039     41035     41033     41036     41037
     41035     41033     41036     41038     41035     41033     41036     41039
     41036     41039     41042     41043     41036     41039     41042     41044
     41036     41039     41042     41045     41037     41036     41039     41040
     41037     41036     41039     41041     41037     41036     41039     41042
     41038     41036     41039     41040     41038     41036     41039     41041
     41038     41036     41039     41042     41039     41042     41045     41046
     41039     41042     41045     41047     41039     41042     41045     41048
     41040     41039     41042     41043     41040     41039     41042     41044
     41040     41039     41042     41045     41041     41039     41042     41043
     41041     41039     41042     41044     41041     41039     41042     41045
     41042     41045     41048     41049     41042     41045     41048     41050
     41042     41045     41048     41051     41043     41042     41045     41046
     41043     41042     41045     41047     41043     41042     41045     41048
     41044     41042     41045     41046     41044     41042     41045     41047
     41044     41042     41045     41048     41045     41048     41051     41052
     41045     41048     41051     41053     41045     41048     41051     41054
     41046     41045     41048     41049     41046     41045     41048     41050
     41046     41045     41048     41051     41047     41045     41048     41049
     41047     41045     41048     41050     41047     41045     41048     41051
     41048     41051     41054     41055     41048     41051     41054     41056
     41048     41051     41054     41057     41049     41048     41051     41052
     41049     41048     41051     41053     41049     41048     41051     41054
     41050     41048     41051     41052     41050     41048     41051     41053
     41050     41048     41051     41054     41051     41054     41057     41058
     41051     41054     41057     41059     41051     41054     41057     41060
     41052     41051     41054     41055     41052     41051     41054     41056
     41052     41051     41054     41057     41053     41051     41054     41055
     41053     41051     41054     41056     41053     41051     41054     41057
     41055     41054     41057     41058     41055     41054     41057     41059
     41055     41054     41057     41060     41056     41054     41057     41058
     41056     41054     41057     41059     41056     41054     41057     41060
     41061     41065     41068     41069     41061     41065     41068     41070
     41061     41065     41068     41075     41062     41061     41065     41066
     41062     41061     41065     41067     41062     41061     41065     41068
     41063     41061     41065     41066     41063     41061     41065     41067
     41063     41061     41065     41068     41064     41061     41065     41066
     41064     41061     41065     41067     41064     41061     41065     41068
     41065     41068     41075     41071     41066     41065     41068     41069
     41066     41065     41068     41070     41066     41065     41068     41075
     41067     41065     41068     41069     41067     41065     41068     41070
     41067     41065     41068     41075     41068     41075     41071     41072
     41068     41075     41071     41073     41068     41075     41071     41074
     41069     41068     41075     41071     41070     41068     41075     41071
     41071     41074     41076     41077     41071     41074     41076     41078
     41071     41074     41076     41079     41072     41071     41074     41076
     41073     41071     41074     41076     41074     41076     41079     41080
     41074     41076     41079     41081     41074     41076     41079     41087
     41075     41071     41074     41076     41076     41079     41081     41082
     41076     41079     41087     41088     41076     41079     41087     41089
     41076     41079     41087     41090     41077     41076     41079     41080
     41077     41076     41079     41081     41077     41076     41079     41087
     41078     41076     41079     41080     41078     41076     41079     41081
     41078     41076     41079     41087     41079     41081     41082     41083
     41079     41081     41082     41084     41079     41087     41090     41091
     41080     41079     41081     41082     41080     41079     41087     41088
     41080     41079     41087     41089     41080     41079     41087     41090
     41081     41079     41087     41088     41081     41079     41087     41089
     41081     41079     41087     41090     41081     41082     41084     41085
     41081     41082     41084     41086     41081     41082     41084     41096
     41082     41081     41079     41087     41082     41084     41096     41097
     41082     41084     41096     41098     41082     41084     41096     41099
     41083     41082     41084     41085     41083     41082     41084     41086
     41083     41082     41084     41096     41084     41096     41099     41100
     41084     41096     41099     41101     41084     41096     41099     41102
     41085     41084     41096     41097     41085     41084     41096     41098
     41085     41084     41096     41099     41086     41084     41096     41097
     41086     41084     41096     41098     41086     41084     41096     41099
     41087     41090     41091     41092     41087     41090     41091     41093
     41088     41087     41090     41091     41089     41087     41090     41091
     41090     41091     41093     41094     41090     41091     41093     41095
     41090     41091     41093     41143     41091     41093     41143     41144
     41091     41093     41143     41145     41091     41093     41143     41146
     41092     41091     41093     41094     41092     41091     41093     41095
     41092     41091     41093     41143     41093     41143     41146     41147
     41093     41143     41146     41148     41093     41143     41146     41149
     41094     41093     41143     41144     41094     41093     41143     41145
     41094     41093     41143     41146     41095     41093     41143     41144
     41095     41093     41143     41145     41095     41093     41143     41146
     41096     41099     41102     41103     41096     41099     41102     41104
     41096     41099     41102     41105     41097     41096     41099     41100
     41097     41096     41099     41101     41097     41096     41099     41102
     41098     41096     41099     41100     41098     41096     41099     41101
     41098     41096     41099     41102     41099     41102     41105     41106
     41099     41102     41105     41107     41099     41102     41105     41108
     41100     41099     41102     41103     41100     41099     41102     41104
     41100     41099     41102     41105     41101     41099     41102     41103
     41101     41099     41102     41104     41101     41099     41102     41105
     41102     41105     41108     41109     41102     41105     41108     41110
     41102     41105     41108     41111     41103     41102     41105     41106
     41103     41102     41105     41107     41103     41102     41105     41108
     41104     41102     41105     41106     41104     41102     41105     41107
     41104     41102     41105     41108     41105     41108     41111     41112
     41105     41108     41111     41113     41105     41108     41111     41114
     41106     41105     41108     41109     41106     41105     41108     41110
     41106     41105     41108     41111     41107     41105     41108     41109
     41107     41105     41108     41110     41107     41105     41108     41111
     41108     41111     41114     41115     41108     41111     41114     41116
     41109     41108     41111     41112     41109     41108     41111     41113
     41109     41108     41111     41114     41110     41108     41111     41112
     41110     41108     41111     41113     41110     41108     41111     41114
     41111     41114     41116     41117     41111     41114     41116     41118
     41112     41111     41114     41115     41112     41111     41114     41116
     41113     41111     41114     41115     41113     41111     41114     41116
     41114     41116     41118     41119     41114     41116     41118     41120
     41114     41116     41118     41121     41115     41114     41116     41117
     41115     41114     41116     41118     41116     41118     41121     41122
     41116     41118     41121     41123     41116     41118     41121     41124
     41117     41116     41118     41119     41117     41116     41118     41120
     41117     41116     41118     41121     41118     41121     41124     41125
     41118     41121     41124     41126     41118     41121     41124     41127
     41119     41118     41121     41122     41119     41118     41121     41123
     41119     41118     41121     41124     41120     41118     41121     41122
     41120     41118     41121     41123     41120     41118     41121     41124
     41121     41124     41127     41128     41121     41124     41127     41129
     41121     41124     41127     41130     41122     41121     41124     41125
     41122     41121     41124     41126     41122     41121     41124     41127
     41123     41121     41124     41125     41123     41121     41124     41126
     41123     41121     41124     41127     41124     41127     41130     41131
     41124     41127     41130     41132     41124     41127     41130     41133
     41125     41124     41127     41128     41125     41124     41127     41129
     41125     41124     41127     41130     41126     41124     41127     41128
     41126     41124     41127     41129     41126     41124     41127     41130
     41127     41130     41133     41134     41127     41130     41133     41135
     41127     41130     41133     41136     41128     41127     41130     41131
     41128     41127     41130     41132     41128     41127     41130     41133
     41129     41127     41130     41131     41129     41127     41130     41132
     41129     41127     41130     41133     41130     41133     41136     41137
     41130     41133     41136     41138     41130     41133     41136     41139
     41131     41130     41133     41134     41131     41130     41133     41135
     41131     41130     41133     41136     41132     41130     41133     41134
     41132     41130     41133     41135     41132     41130     41133     41136
     41133     41136     41139     41140     41133     41136     41139     41141
     41133     41136     41139     41142     41134     41133     41136     41137
     41134     41133     41136     41138     41134     41133     41136     41139
     41135     41133     41136     41137     41135     41133     41136     41138
     41135     41133     41136     41139     41137     41136     41139     41140
     41137     41136     41139     41141     41137     41136     41139     41142
     41138     41136     41139     41140     41138     41136     41139     41141
     41138     41136     41139     41142     41143     41146     41149     41150
     41143     41146     41149     41151     41143     41146     41149     41152
     41144     41143     41146     41147     41144     41143     41146     41148
     41144     41143     41146     41149     41145     41143     41146     41147
     41145     41143     41146     41148     41145     41143     41146     41149
     41146     41149     41152     41153     41146     41149     41152     41154
     41146     41149     41152     41155     41147     41146     41149     41150
     41147     41146     41149     41151     41147     41146     41149     41152
     41148     41146     41149     41150     41148     41146     41149     41151
     41148     41146     41149     41152     41149     41152     41155     41156
     41149     41152     41155     41157     41149     41152     41155     41158
     41150     41149     41152     41153     41150     41149     41152     41154
     41150     41149     41152     41155     41151     41149     41152     41153
     41151     41149     41152     41154     41151     41149     41152     41155
     41152     41155     41158     41159     41152     41155     41158     41160
     41152     41155     41158     41161     41153     41152     41155     41156
     41153     41152     41155     41157     41153     41152     41155     41158
     41154     41152     41155     41156     41154     41152     41155     41157
     41154     41152     41155     41158     41155     41158     41161     41162
     41155     41158     41161     41163     41155     41158     41161     41164
     41156     41155     41158     41159     41156     41155     41158     41160
     41156     41155     41158     41161     41157     41155     41158     41159
     41157     41155     41158     41160     41157     41155     41158     41161
     41158     41161     41164     41165     41158     41161     41164     41166
     41158     41161     41164     41167     41159     41158     41161     41162
     41159     41158     41161     41163     41159     41158     41161     41164
     41160     41158     41161     41162     41160     41158     41161     41163
     41160     41158     41161     41164     41161     41164     41167     41168
     41161     41164     41167     41169     41161     41164     41167     41170
     41162     41161     41164     41165     41162     41161     41164     41166
     41162     41161     41164     41167     41163     41161     41164     41165
     41163     41161     41164     41166     41163     41161     41164     41167
     41164     41167     41170     41171     41164     41167     41170     41172
     41164     41167     41170     41173     41165     41164     41167     41168
     41165     41164     41167     41169     41165     41164     41167     41170
     41166     41164     41167     41168     41166     41164     41167     41169
     41166     41164     41167     41170     41167     41170     41173     41174
     41167     41170     41173     41175     41167     41170     41173     41176
     41168     41167     41170     41171     41168     41167     41170     41172
     41168     41167     41170     41173     41169     41167     41170     41171
     41169     41167     41170     41172     41169     41167     41170     41173
     41170     41173     41176     41177     41170     41173     41176     41178
     41170     41173     41176     41179     41171     41170     41173     41174
     41171     41170     41173     41175     41171     41170     41173     41176
     41172     41170     41173     41174     41172     41170     41173     41175
     41172     41170     41173     41176     41173     41176     41179     41180
     41173     41176     41179     41181     41173     41176     41179     41182
     41174     41173     41176     41177     41174     41173     41176     41178
     41174     41173     41176     41179     41175     41173     41176     41177
     41175     41173     41176     41178     41175     41173     41176     41179
     41176     41179     41182     41183     41176     41179     41182     41184
     41176     41179     41182     41185     41177     41176     41179     41180
     41177     41176     41179     41181     41177     41176     41179     41182
     41178     41176     41179     41180     41178     41176     41179     41181
     41178     41176     41179     41182     41180     41179     41182     41183
     41180     41179     41182     41184     41180     41179     41182     41185
     41181     41179     41182     41183     41181     41179     41182     41184
     41181     41179     41182     41185     41186     41187     41202     41203
     41186     41187     41202     41204     41186     41187     41202     41208
     41187     41186     41190     41191     41187     41186     41190     41192
     41187     41186     41190     41193     41187     41186     41194     41195
     41187     41186     41194     41196     41187     41186     41194     41197
     41187     41186     41198     41199     41187     41186     41198     41200
     41187     41186     41198     41201     41187     41202     41208     41205
     41188     41187     41186     41190     41188     41187     41186     41194
     41188     41187     41186     41198     41188     41187     41202     41203
     41188     41187     41202     41204     41188     41187     41202     41208
     41189     41187     41186     41190     41189     41187     41186     41194
     41189     41187     41186     41198     41189     41187     41202     41203
     41189     41187     41202     41204     41189     41187     41202     41208
     41190     41186     41187     41202     41190     41186     41194     41195
     41190     41186     41194     41196     41190     41186     41194     41197
     41190     41186     41198     41199     41190     41186     41198     41200
     41190     41186     41198     41201     41191     41190     41186     41194
     41191     41190     41186     41198     41192     41190     41186     41194
     41192     41190     41186     41198     41193     41190     41186     41194
     41193     41190     41186     41198     41194     41186     41187     41202
     41194     41186     41198     41199     41194     41186     41198     41200
     41194     41186     41198     41201     41195     41194     41186     41198
     41196     41194     41186     41198     41197     41194     41186     41198
     41198     41186     41187     41202     41202     41208     41205     41206
     41202     41208     41205     41207     41202     41208     41205     41209
     41203     41202     41208     41205     41204     41202     41208     41205
     41205     41209     41210     41211     41205     41209     41210     41212
     41205     41209     41210     41213     41206     41205     41209     41210
     41207     41205     41209     41210     41208     41205     41209     41210
     41209     41210     41213     41214     41209     41210     41213     41215
     41209     41210     41213     41221     41210     41213     41215     41216
     41210     41213     41221     41222     41210     41213     41221     41223
     41210     41213     41221     41224     41211     41210     41213     41214
     41211     41210     41213     41215     41211     41210     41213     41221
     41212     41210     41213     41214     41212     41210     41213     41215
     41212     41210     41213     41221     41213     41215     41216     41217
     41213     41215     41216     41218     41213     41221     41224     41225
     41214     41213     41215     41216     41214     41213     41221     41222
     41214     41213     41221     41223     41214     41213     41221     41224
     41215     41213     41221     41222     41215     41213     41221     41223
     41215     41213     41221     41224     41215     41216     41218     41219
     41215     41216     41218     41220     41215     41216     41218     41230
     41216     41215     41213     41221     41216     41218     41230     41231
     41216     41218     41230     41232     41216     41218     41230     41233
     41217     41216     41218     41219     41217     41216     41218     41220
     41217     41216     41218     41230     41218     41230     41233     41234
     41218     41230     41233     41235     41218     41230     41233     41236
     41219     41218     41230     41231     41219     41218     41230     41232
     41219     41218     41230     41233     41220     41218     41230     41231
     41220     41218     41230     41232     41220     41218     41230     41233
     41221     41224     41225     41226     41221     41224     41225     41227
     41222     41221     41224     41225     41223     41221     41224     41225
     41224     41225     41227     41228     41224     41225     41227     41229
     41224     41225     41227     41277     41225     41227     41277     41278
     41225     41227     41277     41279     41225     41227     41277     41280
     41226     41225     41227     41228     41226     41225     41227     41229
     41226     41225     41227     41277     41227     41277     41280     41281
     41227     41277     41280     41282     41227     41277     41280     41283
     41228     41227     41277     41278     41228     41227     41277     41279
     41228     41227     41277     41280     41229     41227     41277     41278
     41229     41227     41277     41279     41229     41227     41277     41280
     41230     41233     41236     41237     41230     41233     41236     41238
     41230     41233     41236     41239     41231     41230     41233     41234
     41231     41230     41233     41235     41231     41230     41233     41236
     41232     41230     41233     41234     41232     41230     41233     41235
     41232     41230     41233     41236     41233     41236     41239     41240
     41233     41236     41239     41241     41233     41236     41239     41242
     41234     41233     41236     41237     41234     41233     41236     41238
     41234     41233     41236     41239     41235     41233     41236     41237
     41235     41233     41236     41238     41235     41233     41236     41239
     41236     41239     41242     41243     41236     41239     41242     41244
     41236     41239     41242     41245     41237     41236     41239     41240
     41237     41236     41239     41241     41237     41236     41239     41242
     41238     41236     41239     41240     41238     41236     41239     41241
     41238     41236     41239     41242     41239     41242     41245     41246
     41239     41242     41245     41247     41239     41242     41245     41248
     41240     41239     41242     41243     41240     41239     41242     41244
     41240     41239     41242     41245     41241     41239     41242     41243
     41241     41239     41242     41244     41241     41239     41242     41245
     41242     41245     41248     41249     41242     41245     41248     41250
     41243     41242     41245     41246     41243     41242     41245     41247
     41243     41242     41245     41248     41244     41242     41245     41246
     41244     41242     41245     41247     41244     41242     41245     41248
     41245     41248     41250     41251     41245     41248     41250     41252
     41246     41245     41248     41249     41246     41245     41248     41250
     41247     41245     41248     41249     41247     41245     41248     41250
     41248     41250     41252     41253     41248     41250     41252     41254
     41248     41250     41252     41255     41249     41248     41250     41251
     41249     41248     41250     41252     41250     41252     41255     41256
     41250     41252     41255     41257     41250     41252     41255     41258
     41251     41250     41252     41253     41251     41250     41252     41254
     41251     41250     41252     41255     41252     41255     41258     41259
     41252     41255     41258     41260     41252     41255     41258     41261
     41253     41252     41255     41256     41253     41252     41255     41257
     41253     41252     41255     41258     41254     41252     41255     41256
     41254     41252     41255     41257     41254     41252     41255     41258
     41255     41258     41261     41262     41255     41258     41261     41263
     41255     41258     41261     41264     41256     41255     41258     41259
     41256     41255     41258     41260     41256     41255     41258     41261
     41257     41255     41258     41259     41257     41255     41258     41260
     41257     41255     41258     41261     41258     41261     41264     41265
     41258     41261     41264     41266     41258     41261     41264     41267
     41259     41258     41261     41262     41259     41258     41261     41263
     41259     41258     41261     41264     41260     41258     41261     41262
     41260     41258     41261     41263     41260     41258     41261     41264
     41261     41264     41267     41268     41261     41264     41267     41269
     41261     41264     41267     41270     41262     41261     41264     41265
     41262     41261     41264     41266     41262     41261     41264     41267
     41263     41261     41264     41265     41263     41261     41264     41266
     41263     41261     41264     41267     41264     41267     41270     41271
     41264     41267     41270     41272     41264     41267     41270     41273
     41265     41264     41267     41268     41265     41264     41267     41269
     41265     41264     41267     41270     41266     41264     41267     41268
     41266     41264     41267     41269     41266     41264     41267     41270
     41267     41270     41273     41274     41267     41270     41273     41275
     41267     41270     41273     41276     41268     41267     41270     41271
     41268     41267     41270     41272     41268     41267     41270     41273
     41269     41267     41270     41271     41269     41267     41270     41272
     41269     41267     41270     41273     41271     41270     41273     41274
     41271     41270     41273     41275     41271     41270     41273     41276
     41272     41270     41273     41274     41272     41270     41273     41275
     41272     41270     41273     41276     41277     41280     41283     41284
     41277     41280     41283     41285     41277     41280     41283     41286
     41278     41277     41280     41281     41278     41277     41280     41282
     41278     41277     41280     41283     41279     41277     41280     41281
     41279     41277     41280     41282     41279     41277     41280     41283
     41280     41283     41286     41287     41280     41283     41286     41288
     41280     41283     41286     41289     41281     41280     41283     41284
     41281     41280     41283     41285     41281     41280     41283     41286
     41282     41280     41283     41284     41282     41280     41283     41285
     41282     41280     41283     41286     41283     41286     41289     41290
     41283     41286     41289     41291     41283     41286     41289     41292
     41284     41283     41286     41287     41284     41283     41286     41288
     41284     41283     41286     41289     41285     41283     41286     41287
     41285     41283     41286     41288     41285     41283     41286     41289
     41286     41289     41292     41293     41286     41289     41292     41294
     41286     41289     41292     41295     41287     41286     41289     41290
     41287     41286     41289     41291     41287     41286     41289     41292
     41288     41286     41289     41290     41288     41286     41289     41291
     41288     41286     41289     41292     41289     41292     41295     41296
     41289     41292     41295     41297     41289     41292     41295     41298
     41290     41289     41292     41293     41290     41289     41292     41294
     41290     41289     41292     41295     41291     41289     41292     41293
     41291     41289     41292     41294     41291     41289     41292     41295
     41292     41295     41298     41299     41292     41295     41298     41300
     41292     41295     41298     41301     41293     41292     41295     41296
     41293     41292     41295     41297     41293     41292     41295     41298
     41294     41292     41295     41296     41294     41292     41295     41297
     41294     41292     41295     41298     41295     41298     41301     41302
     41295     41298     41301     41303     41295     41298     41301     41304
     41296     41295     41298     41299     41296     41295     41298     41300
     41296     41295     41298     41301     41297     41295     41298     41299
     41297     41295     41298     41300     41297     41295     41298     41301
     41298     41301     41304     41305     41298     41301     41304     41306
     41298     41301     41304     41307     41299     41298     41301     41302
     41299     41298     41301     41303     41299     41298     41301     41304
     41300     41298     41301     41302     41300     41298     41301     41303
     41300     41298     41301     41304     41301     41304     41307     41308
     41301     41304     41307     41309     41301     41304     41307     41310
     41302     41301     41304     41305     41302     41301     41304     41306
     41302     41301     41304     41307     41303     41301     41304     41305
     41303     41301     41304     41306     41303     41301     41304     41307
     41304     41307     41310     41311     41304     41307     41310     41312
     41304     41307     41310     41313     41305     41304     41307     41308
     41305     41304     41307     41309     41305     41304     41307     41310
     41306     41304     41307     41308     41306     41304     41307     41309
     41306     41304     41307     41310     41307     41310     41313     41314
     41307     41310     41313     41315     41307     41310     41313     41316
     41308     41307     41310     41311     41308     41307     41310     41312
     41308     41307     41310     41313     41309     41307     41310     41311
     41309     41307     41310     41312     41309     41307     41310     41313
     41310     41313     41316     41317     41310     41313     41316     41318
     41310     41313     41316     41319     41311     41310     41313     41314
     41311     41310     41313     41315     41311     41310     41313     41316
     41312     41310     41313     41314     41312     41310     41313     41315
     41312     41310     41313     41316     41314     41313     41316     41317
     41314     41313     41316     41318     41314     41313     41316     41319
     41315     41313     41316     41317     41315     41313     41316     41318
     41315     41313     41316     41319     41320     41321     41336     41337
     41320     41321     41336     41338     41320     41321     41336     41342
     41321     41320     41324     41325     41321     41320     41324     41326
     41321     41320     41324     41327     41321     41320     41328     41329
     41321     41320     41328     41330     41321     41320     41328     41331
     41321     41320     41332     41333     41321     41320     41332     41334
     41321     41320     41332     41335     41321     41336     41342     41339
     41322     41321     41320     41324     41322     41321     41320     41328
     41322     41321     41320     41332     41322     41321     41336     41337
     41322     41321     41336     41338     41322     41321     41336     41342
     41323     41321     41320     41324     41323     41321     41320     41328
     41323     41321     41320     41332     41323     41321     41336     41337
     41323     41321     41336     41338     41323     41321     41336     41342
     41324     41320     41321     41336     41324     41320     41328     41329
     41324     41320     41328     41330     41324     41320     41328     41331
     41324     41320     41332     41333     41324     41320     41332     41334
     41324     41320     41332     41335     41325     41324     41320     41328
     41325     41324     41320     41332     41326     41324     41320     41328
     41326     41324     41320     41332     41327     41324     41320     41328
     41327     41324     41320     41332     41328     41320     41321     41336
     41328     41320     41332     41333     41328     41320     41332     41334
     41328     41320     41332     41335     41329     41328     41320     41332
     41330     41328     41320     41332     41331     41328     41320     41332
     41332     41320     41321     41336     41336     41342     41339     41340
     41336     41342     41339     41341     41336     41342     41339     41343
     41337     41336     41342     41339     41338     41336     41342     41339
     41339     41343     41344     41345     41339     41343     41344     41346
     41339     41343     41344     41347     41340     41339     41343     41344
     41341     41339     41343     41344     41342     41339     41343     41344
     41343     41344     41347     41348     41343     41344     41347     41349
     41343     41344     41347     41355     41344     41347     41349     41350
     41344     41347     41355     41356     41344     41347     41355     41357
     41344     41347     41355     41358     41345     41344     41347     41348
     41345     41344     41347     41349     41345     41344     41347     41355
     41346     41344     41347     41348     41346     41344     41347     41349
     41346     41344     41347     41355     41347     41349     41350     41351
     41347     41349     41350     41352     41347     41355     41358     41359
     41348     41347     41349     41350     41348     41347     41355     41356
     41348     41347     41355     41357     41348     41347     41355     41358
     41349     41347     41355     41356     41349     41347     41355     41357
     41349     41347     41355     41358     41349     41350     41352     41353
     41349     41350     41352     41354     41349     41350     41352     41364
     41350     41349     41347     41355     41350     41352     41364     41365
     41350     41352     41364     41366     41350     41352     41364     41367
     41351     41350     41352     41353     41351     41350     41352     41354
     41351     41350     41352     41364     41352     41364     41367     41368
     41352     41364     41367     41369     41352     41364     41367     41370
     41353     41352     41364     41365     41353     41352     41364     41366
     41353     41352     41364     41367     41354     41352     41364     41365
     41354     41352     41364     41366     41354     41352     41364     41367
     41355     41358     41359     41360     41355     41358     41359     41361
     41356     41355     41358     41359     41357     41355     41358     41359
     41358     41359     41361     41362     41358     41359     41361     41363
     41358     41359     41361     41411     41359     41361     41411     41412
     41359     41361     41411     41413     41359     41361     41411     41414
     41360     41359     41361     41362     41360     41359     41361     41363
     41360     41359     41361     41411     41361     41411     41414     41415
     41361     41411     41414     41416     41361     41411     41414     41417
     41362     41361     41411     41412     41362     41361     41411     41413
     41362     41361     41411     41414     41363     41361     41411     41412
     41363     41361     41411     41413     41363     41361     41411     41414
     41364     41367     41370     41371     41364     41367     41370     41372
     41364     41367     41370     41373     41365     41364     41367     41368
     41365     41364     41367     41369     41365     41364     41367     41370
     41366     41364     41367     41368     41366     41364     41367     41369
     41366     41364     41367     41370     41367     41370     41373     41374
     41367     41370     41373     41375     41367     41370     41373     41376
     41368     41367     41370     41371     41368     41367     41370     41372
     41368     41367     41370     41373     41369     41367     41370     41371
     41369     41367     41370     41372     41369     41367     41370     41373
     41370     41373     41376     41377     41370     41373     41376     41378
     41370     41373     41376     41379     41371     41370     41373     41374
     41371     41370     41373     41375     41371     41370     41373     41376
     41372     41370     41373     41374     41372     41370     41373     41375
     41372     41370     41373     41376     41373     41376     41379     41380
     41373     41376     41379     41381     41373     41376     41379     41382
     41374     41373     41376     41377     41374     41373     41376     41378
     41374     41373     41376     41379     41375     41373     41376     41377
     41375     41373     41376     41378     41375     41373     41376     41379
     41376     41379     41382     41383     41376     41379     41382     41384
     41377     41376     41379     41380     41377     41376     41379     41381
     41377     41376     41379     41382     41378     41376     41379     41380
     41378     41376     41379     41381     41378     41376     41379     41382
     41379     41382     41384     41385     41379     41382     41384     41386
     41380     41379     41382     41383     41380     41379     41382     41384
     41381     41379     41382     41383     41381     41379     41382     41384
     41382     41384     41386     41387     41382     41384     41386     41388
     41382     41384     41386     41389     41383     41382     41384     41385
     41383     41382     41384     41386     41384     41386     41389     41390
     41384     41386     41389     41391     41384     41386     41389     41392
     41385     41384     41386     41387     41385     41384     41386     41388
     41385     41384     41386     41389     41386     41389     41392     41393
     41386     41389     41392     41394     41386     41389     41392     41395
     41387     41386     41389     41390     41387     41386     41389     41391
     41387     41386     41389     41392     41388     41386     41389     41390
     41388     41386     41389     41391     41388     41386     41389     41392
     41389     41392     41395     41396     41389     41392     41395     41397
     41389     41392     41395     41398     41390     41389     41392     41393
     41390     41389     41392     41394     41390     41389     41392     41395
     41391     41389     41392     41393     41391     41389     41392     41394
     41391     41389     41392     41395     41392     41395     41398     41399
     41392     41395     41398     41400     41392     41395     41398     41401
     41393     41392     41395     41396     41393     41392     41395     41397
     41393     41392     41395     41398     41394     41392     41395     41396
     41394     41392     41395     41397     41394     41392     41395     41398
     41395     41398     41401     41402     41395     41398     41401     41403
     41395     41398     41401     41404     41396     41395     41398     41399
     41396     41395     41398     41400     41396     41395     41398     41401
     41397     41395     41398     41399     41397     41395     41398     41400
     41397     41395     41398     41401     41398     41401     41404     41405
     41398     41401     41404     41406     41398     41401     41404     41407
     41399     41398     41401     41402     41399     41398     41401     41403
     41399     41398     41401     41404     41400     41398     41401     41402
     41400     41398     41401     41403     41400     41398     41401     41404
     41401     41404     41407     41408     41401     41404     41407     41409
     41401     41404     41407     41410     41402     41401     41404     41405
     41402     41401     41404     41406     41402     41401     41404     41407
     41403     41401     41404     41405     41403     41401     41404     41406
     41403     41401     41404     41407     41405     41404     41407     41408
     41405     41404     41407     41409     41405     41404     41407     41410
     41406     41404     41407     41408     41406     41404     41407     41409
     41406     41404     41407     41410     41411     41414     41417     41418
     41411     41414     41417     41419     41411     41414     41417     41420
     41412     41411     41414     41415     41412     41411     41414     41416
     41412     41411     41414     41417     41413     41411     41414     41415
     41413     41411     41414     41416     41413     41411     41414     41417
     41414     41417     41420     41421     41414     41417     41420     41422
     41414     41417     41420     41423     41415     41414     41417     41418
     41415     41414     41417     41419     41415     41414     41417     41420
     41416     41414     41417     41418     41416     41414     41417     41419
     41416     41414     41417     41420     41417     41420     41423     41424
     41417     41420     41423     41425     41417     41420     41423     41426
     41418     41417     41420     41421     41418     41417     41420     41422
     41418     41417     41420     41423     41419     41417     41420     41421
     41419     41417     41420     41422     41419     41417     41420     41423
     41420     41423     41426     41427     41420     41423     41426     41428
     41420     41423     41426     41429     41421     41420     41423     41424
     41421     41420     41423     41425     41421     41420     41423     41426
     41422     41420     41423     41424     41422     41420     41423     41425
     41422     41420     41423     41426     41423     41426     41429     41430
     41423     41426     41429     41431     41423     41426     41429     41432
     41424     41423     41426     41427     41424     41423     41426     41428
     41424     41423     41426     41429     41425     41423     41426     41427
     41425     41423     41426     41428     41425     41423     41426     41429
     41426     41429     41432     41433     41426     41429     41432     41434
     41426     41429     41432     41435     41427     41426     41429     41430
     41427     41426     41429     41431     41427     41426     41429     41432
     41428     41426     41429     41430     41428     41426     41429     41431
     41428     41426     41429     41432     41429     41432     41435     41436
     41429     41432     41435     41437     41429     41432     41435     41438
     41430     41429     41432     41433     41430     41429     41432     41434
     41430     41429     41432     41435     41431     41429     41432     41433
     41431     41429     41432     41434     41431     41429     41432     41435
     41432     41435     41438     41439     41432     41435     41438     41440
     41432     41435     41438     41441     41433     41432     41435     41436
     41433     41432     41435     41437     41433     41432     41435     41438
     41434     41432     41435     41436     41434     41432     41435     41437
     41434     41432     41435     41438     41435     41438     41441     41442
     41435     41438     41441     41443     41435     41438     41441     41444
     41436     41435     41438     41439     41436     41435     41438     41440
     41436     41435     41438     41441     41437     41435     41438     41439
     41437     41435     41438     41440     41437     41435     41438     41441
     41438     41441     41444     41445     41438     41441     41444     41446
     41438     41441     41444     41447     41439     41438     41441     41442
     41439     41438     41441     41443     41439     41438     41441     41444
     41440     41438     41441     41442     41440     41438     41441     41443
     41440     41438     41441     41444     41441     41444     41447     41448
     41441     41444     41447     41449     41441     41444     41447     41450
     41442     41441     41444     41445     41442     41441     41444     41446
     41442     41441     41444     41447     41443     41441     41444     41445
     41443     41441     41444     41446     41443     41441     41444     41447
     41444     41447     41450     41451     41444     41447     41450     41452
     41444     41447     41450     41453     41445     41444     41447     41448
     41445     41444     41447     41449     41445     41444     41447     41450
     41446     41444     41447     41448     41446     41444     41447     41449
     41446     41444     41447     41450     41448     41447     41450     41451
     41448     41447     41450     41452     41448     41447     41450     41453
     41449     41447     41450     41451     41449     41447     41450     41452
     41449     41447     41450     41453     41454     41458     41461     41462
     41454     41458     41461     41463     41454     41458     41461     41468
     41455     41454     41458     41459     41455     41454     41458     41460
     41455     41454     41458     41461     41456     41454     41458     41459
     41456     41454     41458     41460     41456     41454     41458     41461
     41457     41454     41458     41459     41457     41454     41458     41460
     41457     41454     41458     41461     41458     41461     41468     41464
     41459     41458     41461     41462     41459     41458     41461     41463
     41459     41458     41461     41468     41460     41458     41461     41462
     41460     41458     41461     41463     41460     41458     41461     41468
     41461     41468     41464     41465     41461     41468     41464     41466
     41461     41468     41464     41467     41462     41461     41468     41464
     41463     41461     41468     41464     41464     41467     41469     41470
     41464     41467     41469     41471     41464     41467     41469     41472
     41465     41464     41467     41469     41466     41464     41467     41469
     41467     41469     41472     41473     41467     41469     41472     41474
     41467     41469     41472     41480     41468     41464     41467     41469
     41469     41472     41474     41475     41469     41472     41480     41481
     41469     41472     41480     41482     41469     41472     41480     41483
     41470     41469     41472     41473     41470     41469     41472     41474
     41470     41469     41472     41480     41471     41469     41472     41473
     41471     41469     41472     41474     41471     41469     41472     41480
     41472     41474     41475     41476     41472     41474     41475     41477
     41472     41480     41483     41484     41473     41472     41474     41475
     41473     41472     41480     41481     41473     41472     41480     41482
     41473     41472     41480     41483     41474     41472     41480     41481
     41474     41472     41480     41482     41474     41472     41480     41483
     41474     41475     41477     41478     41474     41475     41477     41479
     41474     41475     41477     41489     41475     41474     41472     41480
     41475     41477     41489     41490     41475     41477     41489     41491
     41475     41477     41489     41492     41476     41475     41477     41478
     41476     41475     41477     41479     41476     41475     41477     41489
     41477     41489     41492     41493     41477     41489     41492     41494
     41477     41489     41492     41495     41478     41477     41489     41490
     41478     41477     41489     41491     41478     41477     41489     41492
     41479     41477     41489     41490     41479     41477     41489     41491
     41479     41477     41489     41492     41480     41483     41484     41485
     41480     41483     41484     41486     41481     41480     41483     41484
     41482     41480     41483     41484     41483     41484     41486     41487
     41483     41484     41486     41488     41483     41484     41486     41536
     41484     41486     41536     41537     41484     41486     41536     41538
     41484     41486     41536     41539     41485     41484     41486     41487
     41485     41484     41486     41488     41485     41484     41486     41536
     41486     41536     41539     41540     41486     41536     41539     41541
     41486     41536     41539     41542     41487     41486     41536     41537
     41487     41486     41536     41538     41487     41486     41536     41539
     41488     41486     41536     41537     41488     41486     41536     41538
     41488     41486     41536     41539     41489     41492     41495     41496
     41489     41492     41495     41497     41489     41492     41495     41498
     41490     41489     41492     41493     41490     41489     41492     41494
     41490     41489     41492     41495     41491     41489     41492     41493
     41491     41489     41492     41494     41491     41489     41492     41495
     41492     41495     41498     41499     41492     41495     41498     41500
     41492     41495     41498     41501     41493     41492     41495     41496
     41493     41492     41495     41497     41493     41492     41495     41498
     41494     41492     41495     41496     41494     41492     41495     41497
     41494     41492     41495     41498     41495     41498     41501     41502
     41495     41498     41501     41503     41495     41498     41501     41504
     41496     41495     41498     41499     41496     41495     41498     41500
     41496     41495     41498     41501     41497     41495     41498     41499
     41497     41495     41498     41500     41497     41495     41498     41501
     41498     41501     41504     41505     41498     41501     41504     41506
     41498     41501     41504     41507     41499     41498     41501     41502
     41499     41498     41501     41503     41499     41498     41501     41504
     41500     41498     41501     41502     41500     41498     41501     41503
     41500     41498     41501     41504     41501     41504     41507     41508
     41501     41504     41507     41509     41502     41501     41504     41505
     41502     41501     41504     41506     41502     41501     41504     41507
     41503     41501     41504     41505     41503     41501     41504     41506
     41503     41501     41504     41507     41504     41507     41509     41510
     41504     41507     41509     41511     41505     41504     41507     41508
     41505     41504     41507     41509     41506     41504     41507     41508
     41506     41504     41507     41509     41507     41509     41511     41512
     41507     41509     41511     41513     41507     41509     41511     41514
     41508     41507     41509     41510     41508     41507     41509     41511
     41509     41511     41514     41515     41509     41511     41514     41516
     41509     41511     41514     41517     41510     41509     41511     41512
     41510     41509     41511     41513     41510     41509     41511     41514
     41511     41514     41517     41518     41511     41514     41517     41519
     41511     41514     41517     41520     41512     41511     41514     41515
     41512     41511     41514     41516     41512     41511     41514     41517
     41513     41511     41514     41515     41513     41511     41514     41516
     41513     41511     41514     41517     41514     41517     41520     41521
     41514     41517     41520     41522     41514     41517     41520     41523
     41515     41514     41517     41518     41515     41514     41517     41519
     41515     41514     41517     41520     41516     41514     41517     41518
     41516     41514     41517     41519     41516     41514     41517     41520
     41517     41520     41523     41524     41517     41520     41523     41525
     41517     41520     41523     41526     41518     41517     41520     41521
     41518     41517     41520     41522     41518     41517     41520     41523
     41519     41517     41520     41521     41519     41517     41520     41522
     41519     41517     41520     41523     41520     41523     41526     41527
     41520     41523     41526     41528     41520     41523     41526     41529
     41521     41520     41523     41524     41521     41520     41523     41525
     41521     41520     41523     41526     41522     41520     41523     41524
     41522     41520     41523     41525     41522     41520     41523     41526
     41523     41526     41529     41530     41523     41526     41529     41531
     41523     41526     41529     41532     41524     41523     41526     41527
     41524     41523     41526     41528     41524     41523     41526     41529
     41525     41523     41526     41527     41525     41523     41526     41528
     41525     41523     41526     41529     41526     41529     41532     41533
     41526     41529     41532     41534     41526     41529     41532     41535
     41527     41526     41529     41530     41527     41526     41529     41531
     41527     41526     41529     41532     41528     41526     41529     41530
     41528     41526     41529     41531     41528     41526     41529     41532
     41530     41529     41532     41533     41530     41529     41532     41534
     41530     41529     41532     41535     41531     41529     41532     41533
     41531     41529     41532     41534     41531     41529     41532     41535
     41536     41539     41542     41543     41536     41539     41542     41544
     41536     41539     41542     41545     41537     41536     41539     41540
     41537     41536     41539     41541     41537     41536     41539     41542
     41538     41536     41539     41540     41538     41536     41539     41541
     41538     41536     41539     41542     41539     41542     41545     41546
     41539     41542     41545     41547     41539     41542     41545     41548
     41540     41539     41542     41543     41540     41539     41542     41544
     41540     41539     41542     41545     41541     41539     41542     41543
     41541     41539     41542     41544     41541     41539     41542     41545
     41542     41545     41548     41549     41542     41545     41548     41550
     41542     41545     41548     41551     41543     41542     41545     41546
     41543     41542     41545     41547     41543     41542     41545     41548
     41544     41542     41545     41546     41544     41542     41545     41547
     41544     41542     41545     41548     41545     41548     41551     41552
     41545     41548     41551     41553     41545     41548     41551     41554
     41546     41545     41548     41549     41546     41545     41548     41550
     41546     41545     41548     41551     41547     41545     41548     41549
     41547     41545     41548     41550     41547     41545     41548     41551
     41548     41551     41554     41555     41548     41551     41554     41556
     41548     41551     41554     41557     41549     41548     41551     41552
     41549     41548     41551     41553     41549     41548     41551     41554
     41550     41548     41551     41552     41550     41548     41551     41553
     41550     41548     41551     41554     41551     41554     41557     41558
     41551     41554     41557     41559     41551     41554     41557     41560
     41552     41551     41554     41555     41552     41551     41554     41556
     41552     41551     41554     41557     41553     41551     41554     41555
     41553     41551     41554     41556     41553     41551     41554     41557
     41554     41557     41560     41561     41554     41557     41560     41562
     41554     41557     41560     41563     41555     41554     41557     41558
     41555     41554     41557     41559     41555     41554     41557     41560
     41556     41554     41557     41558     41556     41554     41557     41559
     41556     41554     41557     41560     41557     41560     41563     41564
     41557     41560     41563     41565     41557     41560     41563     41566
     41558     41557     41560     41561     41558     41557     41560     41562
     41558     41557     41560     41563     41559     41557     41560     41561
     41559     41557     41560     41562     41559     41557     41560     41563
     41560     41563     41566     41567     41560     41563     41566     41568
     41560     41563     41566     41569     41561     41560     41563     41564
     41561     41560     41563     41565     41561     41560     41563     41566
     41562     41560     41563     41564     41562     41560     41563     41565
     41562     41560     41563     41566     41563     41566     41569     41570
     41563     41566     41569     41571     41563     41566     41569     41572
     41564     41563     41566     41567     41564     41563     41566     41568
     41564     41563     41566     41569     41565     41563     41566     41567
     41565     41563     41566     41568     41565     41563     41566     41569
     41566     41569     41572     41573     41566     41569     41572     41574
     41566     41569     41572     41575     41567     41566     41569     41570
     41567     41566     41569     41571     41567     41566     41569     41572
     41568     41566     41569     41570     41568     41566     41569     41571
     41568     41566     41569     41572     41569     41572     41575     41576
     41569     41572     41575     41577     41569     41572     41575     41578
     41570     41569     41572     41573     41570     41569     41572     41574
     41570     41569     41572     41575     41571     41569     41572     41573
     41571     41569     41572     41574     41571     41569     41572     41575
     41573     41572     41575     41576     41573     41572     41575     41577
     41573     41572     41575     41578     41574     41572     41575     41576
     41574     41572     41575     41577     41574     41572     41575     41578
     41579     41583     41586     41587     41579     41583     41586     41588
     41579     41583     41586     41593     41580     41579     41583     41584
     41580     41579     41583     41585     41580     41579     41583     41586
     41581     41579     41583     41584     41581     41579     41583     41585
     41581     41579     41583     41586     41582     41579     41583     41584
     41582     41579     41583     41585     41582     41579     41583     41586
     41583     41586     41593     41589     41584     41583     41586     41587
     41584     41583     41586     41588     41584     41583     41586     41593
     41585     41583     41586     41587     41585     41583     41586     41588
     41585     41583     41586     41593     41586     41593     41589     41590
     41586     41593     41589     41591     41586     41593     41589     41592
     41587     41586     41593     41589     41588     41586     41593     41589
     41589     41592     41594     41595     41589     41592     41594     41596
     41589     41592     41594     41597     41590     41589     41592     41594
     41591     41589     41592     41594     41592     41594     41597     41598
     41592     41594     41597     41599     41592     41594     41597     41605
     41593     41589     41592     41594     41594     41597     41599     41600
     41594     41597     41605     41606     41594     41597     41605     41607
     41594     41597     41605     41608     41595     41594     41597     41598
     41595     41594     41597     41599     41595     41594     41597     41605
     41596     41594     41597     41598     41596     41594     41597     41599
     41596     41594     41597     41605     41597     41599     41600     41601
     41597     41599     41600     41602     41597     41605     41608     41609
     41598     41597     41599     41600     41598     41597     41605     41606
     41598     41597     41605     41607     41598     41597     41605     41608
     41599     41597     41605     41606     41599     41597     41605     41607
     41599     41597     41605     41608     41599     41600     41602     41603
     41599     41600     41602     41604     41599     41600     41602     41614
     41600     41599     41597     41605     41600     41602     41614     41615
     41600     41602     41614     41616     41600     41602     41614     41617
     41601     41600     41602     41603     41601     41600     41602     41604
     41601     41600     41602     41614     41602     41614     41617     41618
     41602     41614     41617     41619     41602     41614     41617     41620
     41603     41602     41614     41615     41603     41602     41614     41616
     41603     41602     41614     41617     41604     41602     41614     41615
     41604     41602     41614     41616     41604     41602     41614     41617
     41605     41608     41609     41610     41605     41608     41609     41611
     41606     41605     41608     41609     41607     41605     41608     41609
     41608     41609     41611     41612     41608     41609     41611     41613
     41608     41609     41611     41661     41609     41611     41661     41662
     41609     41611     41661     41663     41609     41611     41661     41664
     41610     41609     41611     41612     41610     41609     41611     41613
     41610     41609     41611     41661     41611     41661     41664     41665
     41611     41661     41664     41666     41611     41661     41664     41667
     41612     41611     41661     41662     41612     41611     41661     41663
     41612     41611     41661     41664     41613     41611     41661     41662
     41613     41611     41661     41663     41613     41611     41661     41664
     41614     41617     41620     41621     41614     41617     41620     41622
     41614     41617     41620     41623     41615     41614     41617     41618
     41615     41614     41617     41619     41615     41614     41617     41620
     41616     41614     41617     41618     41616     41614     41617     41619
     41616     41614     41617     41620     41617     41620     41623     41624
     41617     41620     41623     41625     41617     41620     41623     41626
     41618     41617     41620     41621     41618     41617     41620     41622
     41618     41617     41620     41623     41619     41617     41620     41621
     41619     41617     41620     41622     41619     41617     41620     41623
     41620     41623     41626     41627     41620     41623     41626     41628
     41620     41623     41626     41629     41621     41620     41623     41624
     41621     41620     41623     41625     41621     41620     41623     41626
     41622     41620     41623     41624     41622     41620     41623     41625
     41622     41620     41623     41626     41623     41626     41629     41630
     41623     41626     41629     41631     41623     41626     41629     41632
     41624     41623     41626     41627     41624     41623     41626     41628
     41624     41623     41626     41629     41625     41623     41626     41627
     41625     41623     41626     41628     41625     41623     41626     41629
     41626     41629     41632     41633     41626     41629     41632     41634
     41627     41626     41629     41630     41627     41626     41629     41631
     41627     41626     41629     41632     41628     41626     41629     41630
     41628     41626     41629     41631     41628     41626     41629     41632
     41629     41632     41634     41635     41629     41632     41634     41636
     41630     41629     41632     41633     41630     41629     41632     41634
     41631     41629     41632     41633     41631     41629     41632     41634
     41632     41634     41636     41637     41632     41634     41636     41638
     41632     41634     41636     41639     41633     41632     41634     41635
     41633     41632     41634     41636     41634     41636     41639     41640
     41634     41636     41639     41641     41634     41636     41639     41642
     41635     41634     41636     41637     41635     41634     41636     41638
     41635     41634     41636     41639     41636     41639     41642     41643
     41636     41639     41642     41644     41636     41639     41642     41645
     41637     41636     41639     41640     41637     41636     41639     41641
     41637     41636     41639     41642     41638     41636     41639     41640
     41638     41636     41639     41641     41638     41636     41639     41642
     41639     41642     41645     41646     41639     41642     41645     41647
     41639     41642     41645     41648     41640     41639     41642     41643
     41640     41639     41642     41644     41640     41639     41642     41645
     41641     41639     41642     41643     41641     41639     41642     41644
     41641     41639     41642     41645     41642     41645     41648     41649
     41642     41645     41648     41650     41642     41645     41648     41651
     41643     41642     41645     41646     41643     41642     41645     41647
     41643     41642     41645     41648     41644     41642     41645     41646
     41644     41642     41645     41647     41644     41642     41645     41648
     41645     41648     41651     41652     41645     41648     41651     41653
     41645     41648     41651     41654     41646     41645     41648     41649
     41646     41645     41648     41650     41646     41645     41648     41651
     41647     41645     41648     41649     41647     41645     41648     41650
     41647     41645     41648     41651     41648     41651     41654     41655
     41648     41651     41654     41656     41648     41651     41654     41657
     41649     41648     41651     41652     41649     41648     41651     41653
     41649     41648     41651     41654     41650     41648     41651     41652
     41650     41648     41651     41653     41650     41648     41651     41654
     41651     41654     41657     41658     41651     41654     41657     41659
     41651     41654     41657     41660     41652     41651     41654     41655
     41652     41651     41654     41656     41652     41651     41654     41657
     41653     41651     41654     41655     41653     41651     41654     41656
     41653     41651     41654     41657     41655     41654     41657     41658
     41655     41654     41657     41659     41655     41654     41657     41660
     41656     41654     41657     41658     41656     41654     41657     41659
     41656     41654     41657     41660     41661     41664     41667     41668
     41661     41664     41667     41669     41661     41664     41667     41670
     41662     41661     41664     41665     41662     41661     41664     41666
     41662     41661     41664     41667     41663     41661     41664     41665
     41663     41661     41664     41666     41663     41661     41664     41667
     41664     41667     41670     41671     41664     41667     41670     41672
     41664     41667     41670     41673     41665     41664     41667     41668
     41665     41664     41667     41669     41665     41664     41667     41670
     41666     41664     41667     41668     41666     41664     41667     41669
     41666     41664     41667     41670     41667     41670     41673     41674
     41667     41670     41673     41675     41667     41670     41673     41676
     41668     41667     41670     41671     41668     41667     41670     41672
     41668     41667     41670     41673     41669     41667     41670     41671
     41669     41667     41670     41672     41669     41667     41670     41673
     41670     41673     41676     41677     41670     41673     41676     41678
     41670     41673     41676     41679     41671     41670     41673     41674
     41671     41670     41673     41675     41671     41670     41673     41676
     41672     41670     41673     41674     41672     41670     41673     41675
     41672     41670     41673     41676     41673     41676     41679     41680
     41673     41676     41679     41681     41673     41676     41679     41682
     41674     41673     41676     41677     41674     41673     41676     41678
     41674     41673     41676     41679     41675     41673     41676     41677
     41675     41673     41676     41678     41675     41673     41676     41679
     41676     41679     41682     41683     41676     41679     41682     41684
     41676     41679     41682     41685     41677     41676     41679     41680
     41677     41676     41679     41681     41677     41676     41679     41682
     41678     41676     41679     41680     41678     41676     41679     41681
     41678     41676     41679     41682     41679     41682     41685     41686
     41679     41682     41685     41687     41679     41682     41685     41688
     41680     41679     41682     41683     41680     41679     41682     41684
     41680     41679     41682     41685     41681     41679     41682     41683
     41681     41679     41682     41684     41681     41679     41682     41685
     41682     41685     41688     41689     41682     41685     41688     41690
     41682     41685     41688     41691     41683     41682     41685     41686
     41683     41682     41685     41687     41683     41682     41685     41688
     41684     41682     41685     41686     41684     41682     41685     41687
     41684     41682     41685     41688     41685     41688     41691     41692
     41685     41688     41691     41693     41685     41688     41691     41694
     41686     41685     41688     41689     41686     41685     41688     41690
     41686     41685     41688     41691     41687     41685     41688     41689
     41687     41685     41688     41690     41687     41685     41688     41691
     41688     41691     41694     41695     41688     41691     41694     41696
     41688     41691     41694     41697     41689     41688     41691     41692
     41689     41688     41691     41693     41689     41688     41691     41694
     41690     41688     41691     41692     41690     41688     41691     41693
     41690     41688     41691     41694     41691     41694     41697     41698
     41691     41694     41697     41699     41691     41694     41697     41700
     41692     41691     41694     41695     41692     41691     41694     41696
     41692     41691     41694     41697     41693     41691     41694     41695
     41693     41691     41694     41696     41693     41691     41694     41697
     41694     41697     41700     41701     41694     41697     41700     41702
     41694     41697     41700     41703     41695     41694     41697     41698
     41695     41694     41697     41699     41695     41694     41697     41700
     41696     41694     41697     41698     41696     41694     41697     41699
     41696     41694     41697     41700     41698     41697     41700     41701
     41698     41697     41700     41702     41698     41697     41700     41703
     41699     41697     41700     41701     41699     41697     41700     41702
     41699     41697     41700     41703     41704     41705     41720     41721
     41704     41705     41720     41722     41704     41705     41720     41726
     41705     41704     41708     41709     41705     41704     41708     41710
     41705     41704     41708     41711     41705     41704     41712     41713
     41705     41704     41712     41714     41705     41704     41712     41715
     41705     41704     41716     41717     41705     41704     41716     41718
     41705     41704     41716     41719     41705     41720     41726     41723
     41706     41705     41704     41708     41706     41705     41704     41712
     41706     41705     41704     41716     41706     41705     41720     41721
     41706     41705     41720     41722     41706     41705     41720     41726
     41707     41705     41704     41708     41707     41705     41704     41712
     41707     41705     41704     41716     41707     41705     41720     41721
     41707     41705     41720     41722     41707     41705     41720     41726
     41708     41704     41705     41720     41708     41704     41712     41713
     41708     41704     41712     41714     41708     41704     41712     41715
     41708     41704     41716     41717     41708     41704     41716     41718
     41708     41704     41716     41719     41709     41708     41704     41712
     41709     41708     41704     41716     41710     41708     41704     41712
     41710     41708     41704     41716     41711     41708     41704     41712
     41711     41708     41704     41716     41712     41704     41705     41720
     41712     41704     41716     41717     41712     41704     41716     41718
     41712     41704     41716     41719     41713     41712     41704     41716
     41714     41712     41704     41716     41715     41712     41704     41716
     41716     41704     41705     41720     41720     41726     41723     41724
     41720     41726     41723     41725     41720     41726     41723     41727
     41721     41720     41726     41723     41722     41720     41726     41723
     41723     41727     41728     41729     41723     41727     41728     41730
     41723     41727     41728     41731     41724     41723     41727     41728
     41725     41723     41727     41728     41726     41723     41727     41728
     41727     41728     41731     41732     41727     41728     41731     41733
     41727     41728     41731     41739     41728     41731     41733     41734
     41728     41731     41739     41740     41728     41731     41739     41741
     41728     41731     41739     41742     41729     41728     41731     41732
     41729     41728     41731     41733     41729     41728     41731     41739
     41730     41728     41731     41732     41730     41728     41731     41733
     41730     41728     41731     41739     41731     41733     41734     41735
     41731     41733     41734     41736     41731     41739     41742     41743
     41732     41731     41733     41734     41732     41731     41739     41740
     41732     41731     41739     41741     41732     41731     41739     41742
     41733     41731     41739     41740     41733     41731     41739     41741
     41733     41731     41739     41742     41733     41734     41736     41737
     41733     41734     41736     41738     41733     41734     41736     41748
     41734     41733     41731     41739     41734     41736     41748     41749
     41734     41736     41748     41750     41734     41736     41748     41751
     41735     41734     41736     41737     41735     41734     41736     41738
     41735     41734     41736     41748     41736     41748     41751     41752
     41736     41748     41751     41753     41736     41748     41751     41754
     41737     41736     41748     41749     41737     41736     41748     41750
     41737     41736     41748     41751     41738     41736     41748     41749
     41738     41736     41748     41750     41738     41736     41748     41751
     41739     41742     41743     41744     41739     41742     41743     41745
     41740     41739     41742     41743     41741     41739     41742     41743
     41742     41743     41745     41746     41742     41743     41745     41747
     41742     41743     41745     41795     41743     41745     41795     41796
     41743     41745     41795     41797     41743     41745     41795     41798
     41744     41743     41745     41746     41744     41743     41745     41747
     41744     41743     41745     41795     41745     41795     41798     41799
     41745     41795     41798     41800     41745     41795     41798     41801
     41746     41745     41795     41796     41746     41745     41795     41797
     41746     41745     41795     41798     41747     41745     41795     41796
     41747     41745     41795     41797     41747     41745     41795     41798
     41748     41751     41754     41755     41748     41751     41754     41756
     41748     41751     41754     41757     41749     41748     41751     41752
     41749     41748     41751     41753     41749     41748     41751     41754
     41750     41748     41751     41752     41750     41748     41751     41753
     41750     41748     41751     41754     41751     41754     41757     41758
     41751     41754     41757     41759     41751     41754     41757     41760
     41752     41751     41754     41755     41752     41751     41754     41756
     41752     41751     41754     41757     41753     41751     41754     41755
     41753     41751     41754     41756     41753     41751     41754     41757
     41754     41757     41760     41761     41754     41757     41760     41762
     41754     41757     41760     41763     41755     41754     41757     41758
     41755     41754     41757     41759     41755     41754     41757     41760
     41756     41754     41757     41758     41756     41754     41757     41759
     41756     41754     41757     41760     41757     41760     41763     41764
     41757     41760     41763     41765     41757     41760     41763     41766
     41758     41757     41760     41761     41758     41757     41760     41762
     41758     41757     41760     41763     41759     41757     41760     41761
     41759     41757     41760     41762     41759     41757     41760     41763
     41760     41763     41766     41767     41760     41763     41766     41768
     41761     41760     41763     41764     41761     41760     41763     41765
     41761     41760     41763     41766     41762     41760     41763     41764
     41762     41760     41763     41765     41762     41760     41763     41766
     41763     41766     41768     41769     41763     41766     41768     41770
     41764     41763     41766     41767     41764     41763     41766     41768
     41765     41763     41766     41767     41765     41763     41766     41768
     41766     41768     41770     41771     41766     41768     41770     41772
     41766     41768     41770     41773     41767     41766     41768     41769
     41767     41766     41768     41770     41768     41770     41773     41774
     41768     41770     41773     41775     41768     41770     41773     41776
     41769     41768     41770     41771     41769     41768     41770     41772
     41769     41768     41770     41773     41770     41773     41776     41777
     41770     41773     41776     41778     41770     41773     41776     41779
     41771     41770     41773     41774     41771     41770     41773     41775
     41771     41770     41773     41776     41772     41770     41773     41774
     41772     41770     41773     41775     41772     41770     41773     41776
     41773     41776     41779     41780     41773     41776     41779     41781
     41773     41776     41779     41782     41774     41773     41776     41777
     41774     41773     41776     41778     41774     41773     41776     41779
     41775     41773     41776     41777     41775     41773     41776     41778
     41775     41773     41776     41779     41776     41779     41782     41783
     41776     41779     41782     41784     41776     41779     41782     41785
     41777     41776     41779     41780     41777     41776     41779     41781
     41777     41776     41779     41782     41778     41776     41779     41780
     41778     41776     41779     41781     41778     41776     41779     41782
     41779     41782     41785     41786     41779     41782     41785     41787
     41779     41782     41785     41788     41780     41779     41782     41783
     41780     41779     41782     41784     41780     41779     41782     41785
     41781     41779     41782     41783     41781     41779     41782     41784
     41781     41779     41782     41785     41782     41785     41788     41789
     41782     41785     41788     41790     41782     41785     41788     41791
     41783     41782     41785     41786     41783     41782     41785     41787
     41783     41782     41785     41788     41784     41782     41785     41786
     41784     41782     41785     41787     41784     41782     41785     41788
     41785     41788     41791     41792     41785     41788     41791     41793
     41785     41788     41791     41794     41786     41785     41788     41789
     41786     41785     41788     41790     41786     41785     41788     41791
     41787     41785     41788     41789     41787     41785     41788     41790
     41787     41785     41788     41791     41789     41788     41791     41792
     41789     41788     41791     41793     41789     41788     41791     41794
     41790     41788     41791     41792     41790     41788     41791     41793
     41790     41788     41791     41794     41795     41798     41801     41802
     41795     41798     41801     41803     41795     41798     41801     41804
     41796     41795     41798     41799     41796     41795     41798     41800
     41796     41795     41798     41801     41797     41795     41798     41799
     41797     41795     41798     41800     41797     41795     41798     41801
     41798     41801     41804     41805     41798     41801     41804     41806
     41798     41801     41804     41807     41799     41798     41801     41802
     41799     41798     41801     41803     41799     41798     41801     41804
     41800     41798     41801     41802     41800     41798     41801     41803
     41800     41798     41801     41804     41801     41804     41807     41808
     41801     41804     41807     41809     41801     41804     41807     41810
     41802     41801     41804     41805     41802     41801     41804     41806
     41802     41801     41804     41807     41803     41801     41804     41805
     41803     41801     41804     41806     41803     41801     41804     41807
     41804     41807     41810     41811     41804     41807     41810     41812
     41804     41807     41810     41813     41805     41804     41807     41808
     41805     41804     41807     41809     41805     41804     41807     41810
     41806     41804     41807     41808     41806     41804     41807     41809
     41806     41804     41807     41810     41807     41810     41813     41814
     41807     41810     41813     41815     41807     41810     41813     41816
     41808     41807     41810     41811     41808     41807     41810     41812
     41808     41807     41810     41813     41809     41807     41810     41811
     41809     41807     41810     41812     41809     41807     41810     41813
     41810     41813     41816     41817     41810     41813     41816     41818
     41810     41813     41816     41819     41811     41810     41813     41814
     41811     41810     41813     41815     41811     41810     41813     41816
     41812     41810     41813     41814     41812     41810     41813     41815
     41812     41810     41813     41816     41813     41816     41819     41820
     41813     41816     41819     41821     41813     41816     41819     41822
     41814     41813     41816     41817     41814     41813     41816     41818
     41814     41813     41816     41819     41815     41813     41816     41817
     41815     41813     41816     41818     41815     41813     41816     41819
     41816     41819     41822     41823     41816     41819     41822     41824
     41816     41819     41822     41825     41817     41816     41819     41820
     41817     41816     41819     41821     41817     41816     41819     41822
     41818     41816     41819     41820     41818     41816     41819     41821
     41818     41816     41819     41822     41819     41822     41825     41826
     41819     41822     41825     41827     41819     41822     41825     41828
     41820     41819     41822     41823     41820     41819     41822     41824
     41820     41819     41822     41825     41821     41819     41822     41823
     41821     41819     41822     41824     41821     41819     41822     41825
     41822     41825     41828     41829     41822     41825     41828     41830
     41822     41825     41828     41831     41823     41822     41825     41826
     41823     41822     41825     41827     41823     41822     41825     41828
     41824     41822     41825     41826     41824     41822     41825     41827
     41824     41822     41825     41828     41825     41828     41831     41832
     41825     41828     41831     41833     41825     41828     41831     41834
     41826     41825     41828     41829     41826     41825     41828     41830
     41826     41825     41828     41831     41827     41825     41828     41829
     41827     41825     41828     41830     41827     41825     41828     41831
     41828     41831     41834     41835     41828     41831     41834     41836
     41828     41831     41834     41837     41829     41828     41831     41832
     41829     41828     41831     41833     41829     41828     41831     41834
     41830     41828     41831     41832     41830     41828     41831     41833
     41830     41828     41831     41834     41832     41831     41834     41835
     41832     41831     41834     41836     41832     41831     41834     41837
     41833     41831     41834     41835     41833     41831     41834     41836
     41833     41831     41834     41837     41838     41842     41845     41846
     41838     41842     41845     41847     41838     41842     41845     41852
     41839     41838     41842     41843     41839     41838     41842     41844
     41839     41838     41842     41845     41840     41838     41842     41843
     41840     41838     41842     41844     41840     41838     41842     41845
     41841     41838     41842     41843     41841     41838     41842     41844
     41841     41838     41842     41845     41842     41845     41852     41848
     41843     41842     41845     41846     41843     41842     41845     41847
     41843     41842     41845     41852     41844     41842     41845     41846
     41844     41842     41845     41847     41844     41842     41845     41852
     41845     41852     41848     41849     41845     41852     41848     41850
     41845     41852     41848     41851     41846     41845     41852     41848
     41847     41845     41852     41848     41848     41851     41853     41854
     41848     41851     41853     41855     41848     41851     41853     41856
     41849     41848     41851     41853     41850     41848     41851     41853
     41851     41853     41856     41857     41851     41853     41856     41858
     41851     41853     41856     41864     41852     41848     41851     41853
     41853     41856     41858     41859     41853     41856     41864     41865
     41853     41856     41864     41866     41853     41856     41864     41867
     41854     41853     41856     41857     41854     41853     41856     41858
     41854     41853     41856     41864     41855     41853     41856     41857
     41855     41853     41856     41858     41855     41853     41856     41864
     41856     41858     41859     41860     41856     41858     41859     41861
     41856     41864     41867     41868     41857     41856     41858     41859
     41857     41856     41864     41865     41857     41856     41864     41866
     41857     41856     41864     41867     41858     41856     41864     41865
     41858     41856     41864     41866     41858     41856     41864     41867
     41858     41859     41861     41862     41858     41859     41861     41863
     41858     41859     41861     41873     41859     41858     41856     41864
     41859     41861     41873     41874     41859     41861     41873     41875
     41859     41861     41873     41876     41860     41859     41861     41862
     41860     41859     41861     41863     41860     41859     41861     41873
     41861     41873     41876     41877     41861     41873     41876     41878
     41861     41873     41876     41879     41862     41861     41873     41874
     41862     41861     41873     41875     41862     41861     41873     41876
     41863     41861     41873     41874     41863     41861     41873     41875
     41863     41861     41873     41876     41864     41867     41868     41869
     41864     41867     41868     41870     41865     41864     41867     41868
     41866     41864     41867     41868     41867     41868     41870     41871
     41867     41868     41870     41872     41867     41868     41870     41920
     41868     41870     41920     41921     41868     41870     41920     41922
     41868     41870     41920     41923     41869     41868     41870     41871
     41869     41868     41870     41872     41869     41868     41870     41920
     41870     41920     41923     41924     41870     41920     41923     41925
     41870     41920     41923     41926     41871     41870     41920     41921
     41871     41870     41920     41922     41871     41870     41920     41923
     41872     41870     41920     41921     41872     41870     41920     41922
     41872     41870     41920     41923     41873     41876     41879     41880
     41873     41876     41879     41881     41873     41876     41879     41882
     41874     41873     41876     41877     41874     41873     41876     41878
     41874     41873     41876     41879     41875     41873     41876     41877
     41875     41873     41876     41878     41875     41873     41876     41879
     41876     41879     41882     41883     41876     41879     41882     41884
     41876     41879     41882     41885     41877     41876     41879     41880
     41877     41876     41879     41881     41877     41876     41879     41882
     41878     41876     41879     41880     41878     41876     41879     41881
     41878     41876     41879     41882     41879     41882     41885     41886
     41879     41882     41885     41887     41879     41882     41885     41888
     41880     41879     41882     41883     41880     41879     41882     41884
     41880     41879     41882     41885     41881     41879     41882     41883
     41881     41879     41882     41884     41881     41879     41882     41885
     41882     41885     41888     41889     41882     41885     41888     41890
     41882     41885     41888     41891     41883     41882     41885     41886
     41883     41882     41885     41887     41883     41882     41885     41888
     41884     41882     41885     41886     41884     41882     41885     41887
     41884     41882     41885     41888     41885     41888     41891     41892
     41885     41888     41891     41893     41886     41885     41888     41889
     41886     41885     41888     41890     41886     41885     41888     41891
     41887     41885     41888     41889     41887     41885     41888     41890
     41887     41885     41888     41891     41888     41891     41893     41894
     41888     41891     41893     41895     41889     41888     41891     41892
     41889     41888     41891     41893     41890     41888     41891     41892
     41890     41888     41891     41893     41891     41893     41895     41896
     41891     41893     41895     41897     41891     41893     41895     41898
     41892     41891     41893     41894     41892     41891     41893     41895
     41893     41895     41898     41899     41893     41895     41898     41900
     41893     41895     41898     41901     41894     41893     41895     41896
     41894     41893     41895     41897     41894     41893     41895     41898
     41895     41898     41901     41902     41895     41898     41901     41903
     41895     41898     41901     41904     41896     41895     41898     41899
     41896     41895     41898     41900     41896     41895     41898     41901
     41897     41895     41898     41899     41897     41895     41898     41900
     41897     41895     41898     41901     41898     41901     41904     41905
     41898     41901     41904     41906     41898     41901     41904     41907
     41899     41898     41901     41902     41899     41898     41901     41903
     41899     41898     41901     41904     41900     41898     41901     41902
     41900     41898     41901     41903     41900     41898     41901     41904
     41901     41904     41907     41908     41901     41904     41907     41909
     41901     41904     41907     41910     41902     41901     41904     41905
     41902     41901     41904     41906     41902     41901     41904     41907
     41903     41901     41904     41905     41903     41901     41904     41906
     41903     41901     41904     41907     41904     41907     41910     41911
     41904     41907     41910     41912     41904     41907     41910     41913
     41905     41904     41907     41908     41905     41904     41907     41909
     41905     41904     41907     41910     41906     41904     41907     41908
     41906     41904     41907     41909     41906     41904     41907     41910
     41907     41910     41913     41914     41907     41910     41913     41915
     41907     41910     41913     41916     41908     41907     41910     41911
     41908     41907     41910     41912     41908     41907     41910     41913
     41909     41907     41910     41911     41909     41907     41910     41912
     41909     41907     41910     41913     41910     41913     41916     41917
     41910     41913     41916     41918     41910     41913     41916     41919
     41911     41910     41913     41914     41911     41910     41913     41915
     41911     41910     41913     41916     41912     41910     41913     41914
     41912     41910     41913     41915     41912     41910     41913     41916
     41914     41913     41916     41917     41914     41913     41916     41918
     41914     41913     41916     41919     41915     41913     41916     41917
     41915     41913     41916     41918     41915     41913     41916     41919
     41920     41923     41926     41927     41920     41923     41926     41928
     41920     41923     41926     41929     41921     41920     41923     41924
     41921     41920     41923     41925     41921     41920     41923     41926
     41922     41920     41923     41924     41922     41920     41923     41925
     41922     41920     41923     41926     41923     41926     41929     41930
     41923     41926     41929     41931     41923     41926     41929     41932
     41924     41923     41926     41927     41924     41923     41926     41928
     41924     41923     41926     41929     41925     41923     41926     41927
     41925     41923     41926     41928     41925     41923     41926     41929
     41926     41929     41932     41933     41926     41929     41932     41934
     41926     41929     41932     41935     41927     41926     41929     41930
     41927     41926     41929     41931     41927     41926     41929     41932
     41928     41926     41929     41930     41928     41926     41929     41931
     41928     41926     41929     41932     41929     41932     41935     41936
     41929     41932     41935     41937     41929     41932     41935     41938
     41930     41929     41932     41933     41930     41929     41932     41934
     41930     41929     41932     41935     41931     41929     41932     41933
     41931     41929     41932     41934     41931     41929     41932     41935
     41932     41935     41938     41939     41932     41935     41938     41940
     41932     41935     41938     41941     41933     41932     41935     41936
     41933     41932     41935     41937     41933     41932     41935     41938
     41934     41932     41935     41936     41934     41932     41935     41937
     41934     41932     41935     41938     41935     41938     41941     41942
     41935     41938     41941     41943     41935     41938     41941     41944
     41936     41935     41938     41939     41936     41935     41938     41940
     41936     41935     41938     41941     41937     41935     41938     41939
     41937     41935     41938     41940     41937     41935     41938     41941
     41938     41941     41944     41945     41938     41941     41944     41946
     41938     41941     41944     41947     41939     41938     41941     41942
     41939     41938     41941     41943     41939     41938     41941     41944
     41940     41938     41941     41942     41940     41938     41941     41943
     41940     41938     41941     41944     41941     41944     41947     41948
     41941     41944     41947     41949     41941     41944     41947     41950
     41942     41941     41944     41945     41942     41941     41944     41946
     41942     41941     41944     41947     41943     41941     41944     41945
     41943     41941     41944     41946     41943     41941     41944     41947
     41944     41947     41950     41951     41944     41947     41950     41952
     41944     41947     41950     41953     41945     41944     41947     41948
     41945     41944     41947     41949     41945     41944     41947     41950
     41946     41944     41947     41948     41946     41944     41947     41949
     41946     41944     41947     41950     41947     41950     41953     41954
     41947     41950     41953     41955     41947     41950     41953     41956
     41948     41947     41950     41951     41948     41947     41950     41952
     41948     41947     41950     41953     41949     41947     41950     41951
     41949     41947     41950     41952     41949     41947     41950     41953
     41950     41953     41956     41957     41950     41953     41956     41958
     41950     41953     41956     41959     41951     41950     41953     41954
     41951     41950     41953     41955     41951     41950     41953     41956
     41952     41950     41953     41954     41952     41950     41953     41955
     41952     41950     41953     41956     41953     41956     41959     41960
     41953     41956     41959     41961     41953     41956     41959     41962
     41954     41953     41956     41957     41954     41953     41956     41958
     41954     41953     41956     41959     41955     41953     41956     41957
     41955     41953     41956     41958     41955     41953     41956     41959
     41957     41956     41959     41960     41957     41956     41959     41961
     41957     41956     41959     41962     41958     41956     41959     41960
     41958     41956     41959     41961     41958     41956     41959     41962
     41963     41964     41979     41980     41963     41964     41979     41981
     41963     41964     41979     41985     41964     41963     41967     41968
     41964     41963     41967     41969     41964     41963     41967     41970
     41964     41963     41971     41972     41964     41963     41971     41973
     41964     41963     41971     41974     41964     41963     41975     41976
     41964     41963     41975     41977     41964     41963     41975     41978
     41964     41979     41985     41982     41965     41964     41963     41967
     41965     41964     41963     41971     41965     41964     41963     41975
     41965     41964     41979     41980     41965     41964     41979     41981
     41965     41964     41979     41985     41966     41964     41963     41967
     41966     41964     41963     41971     41966     41964     41963     41975
     41966     41964     41979     41980     41966     41964     41979     41981
     41966     41964     41979     41985     41967     41963     41964     41979
     41967     41963     41971     41972     41967     41963     41971     41973
     41967     41963     41971     41974     41967     41963     41975     41976
     41967     41963     41975     41977     41967     41963     41975     41978
     41968     41967     41963     41971     41968     41967     41963     41975
     41969     41967     41963     41971     41969     41967     41963     41975
     41970     41967     41963     41971     41970     41967     41963     41975
     41971     41963     41964     41979     41971     41963     41975     41976
     41971     41963     41975     41977     41971     41963     41975     41978
     41972     41971     41963     41975     41973     41971     41963     41975
     41974     41971     41963     41975     41975     41963     41964     41979
     41979     41985     41982     41983     41979     41985     41982     41984
     41979     41985     41982     41986     41980     41979     41985     41982
     41981     41979     41985     41982     41982     41986     41987     41988
     41982     41986     41987     41989     41982     41986     41987     41990
     41983     41982     41986     41987     41984     41982     41986     41987
     41985     41982     41986     41987     41986     41987     41990     41991
     41986     41987     41990     41992     41986     41987     41990     41998
     41987     41990     41992     41993     41987     41990     41998     41999
     41987     41990     41998     42000     41987     41990     41998     42001
     41988     41987     41990     41991     41988     41987     41990     41992
     41988     41987     41990     41998     41989     41987     41990     41991
     41989     41987     41990     41992     41989     41987     41990     41998
     41990     41992     41993     41994     41990     41992     41993     41995
     41990     41998     42001     42002     41991     41990     41992     41993
     41991     41990     41998     41999     41991     41990     41998     42000
     41991     41990     41998     42001     41992     41990     41998     41999
     41992     41990     41998     42000     41992     41990     41998     42001
     41992     41993     41995     41996     41992     41993     41995     41997
     41992     41993     41995     42007     41993     41992     41990     41998
     41993     41995     42007     42008     41993     41995     42007     42009
     41993     41995     42007     42010     41994     41993     41995     41996
     41994     41993     41995     41997     41994     41993     41995     42007
     41995     42007     42010     42011     41995     42007     42010     42012
     41995     42007     42010     42013     41996     41995     42007     42008
     41996     41995     42007     42009     41996     41995     42007     42010
     41997     41995     42007     42008     41997     41995     42007     42009
     41997     41995     42007     42010     41998     42001     42002     42003
     41998     42001     42002     42004     41999     41998     42001     42002
     42000     41998     42001     42002     42001     42002     42004     42005
     42001     42002     42004     42006     42001     42002     42004     42054
     42002     42004     42054     42055     42002     42004     42054     42056
     42002     42004     42054     42057     42003     42002     42004     42005
     42003     42002     42004     42006     42003     42002     42004     42054
     42004     42054     42057     42058     42004     42054     42057     42059
     42004     42054     42057     42060     42005     42004     42054     42055
     42005     42004     42054     42056     42005     42004     42054     42057
     42006     42004     42054     42055     42006     42004     42054     42056
     42006     42004     42054     42057     42007     42010     42013     42014
     42007     42010     42013     42015     42007     42010     42013     42016
     42008     42007     42010     42011     42008     42007     42010     42012
     42008     42007     42010     42013     42009     42007     42010     42011
     42009     42007     42010     42012     42009     42007     42010     42013
     42010     42013     42016     42017     42010     42013     42016     42018
     42010     42013     42016     42019     42011     42010     42013     42014
     42011     42010     42013     42015     42011     42010     42013     42016
     42012     42010     42013     42014     42012     42010     42013     42015
     42012     42010     42013     42016     42013     42016     42019     42020
     42013     42016     42019     42021     42013     42016     42019     42022
     42014     42013     42016     42017     42014     42013     42016     42018
     42014     42013     42016     42019     42015     42013     42016     42017
     42015     42013     42016     42018     42015     42013     42016     42019
     42016     42019     42022     42023     42016     42019     42022     42024
     42016     42019     42022     42025     42017     42016     42019     42020
     42017     42016     42019     42021     42017     42016     42019     42022
     42018     42016     42019     42020     42018     42016     42019     42021
     42018     42016     42019     42022     42019     42022     42025     42026
     42019     42022     42025     42027     42020     42019     42022     42023
     42020     42019     42022     42024     42020     42019     42022     42025
     42021     42019     42022     42023     42021     42019     42022     42024
     42021     42019     42022     42025     42022     42025     42027     42028
     42022     42025     42027     42029     42023     42022     42025     42026
     42023     42022     42025     42027     42024     42022     42025     42026
     42024     42022     42025     42027     42025     42027     42029     42030
     42025     42027     42029     42031     42025     42027     42029     42032
     42026     42025     42027     42028     42026     42025     42027     42029
     42027     42029     42032     42033     42027     42029     42032     42034
     42027     42029     42032     42035     42028     42027     42029     42030
     42028     42027     42029     42031     42028     42027     42029     42032
     42029     42032     42035     42036     42029     42032     42035     42037
     42029     42032     42035     42038     42030     42029     42032     42033
     42030     42029     42032     42034     42030     42029     42032     42035
     42031     42029     42032     42033     42031     42029     42032     42034
     42031     42029     42032     42035     42032     42035     42038     42039
     42032     42035     42038     42040     42032     42035     42038     42041
     42033     42032     42035     42036     42033     42032     42035     42037
     42033     42032     42035     42038     42034     42032     42035     42036
     42034     42032     42035     42037     42034     42032     42035     42038
     42035     42038     42041     42042     42035     42038     42041     42043
     42035     42038     42041     42044     42036     42035     42038     42039
     42036     42035     42038     42040     42036     42035     42038     42041
     42037     42035     42038     42039     42037     42035     42038     42040
     42037     42035     42038     42041     42038     42041     42044     42045
     42038     42041     42044     42046     42038     42041     42044     42047
     42039     42038     42041     42042     42039     42038     42041     42043
     42039     42038     42041     42044     42040     42038     42041     42042
     42040     42038     42041     42043     42040     42038     42041     42044
     42041     42044     42047     42048     42041     42044     42047     42049
     42041     42044     42047     42050     42042     42041     42044     42045
     42042     42041     42044     42046     42042     42041     42044     42047
     42043     42041     42044     42045     42043     42041     42044     42046
     42043     42041     42044     42047     42044     42047     42050     42051
     42044     42047     42050     42052     42044     42047     42050     42053
     42045     42044     42047     42048     42045     42044     42047     42049
     42045     42044     42047     42050     42046     42044     42047     42048
     42046     42044     42047     42049     42046     42044     42047     42050
     42048     42047     42050     42051     42048     42047     42050     42052
     42048     42047     42050     42053     42049     42047     42050     42051
     42049     42047     42050     42052     42049     42047     42050     42053
     42054     42057     42060     42061     42054     42057     42060     42062
     42054     42057     42060     42063     42055     42054     42057     42058
     42055     42054     42057     42059     42055     42054     42057     42060
     42056     42054     42057     42058     42056     42054     42057     42059
     42056     42054     42057     42060     42057     42060     42063     42064
     42057     42060     42063     42065     42057     42060     42063     42066
     42058     42057     42060     42061     42058     42057     42060     42062
     42058     42057     42060     42063     42059     42057     42060     42061
     42059     42057     42060     42062     42059     42057     42060     42063
     42060     42063     42066     42067     42060     42063     42066     42068
     42060     42063     42066     42069     42061     42060     42063     42064
     42061     42060     42063     42065     42061     42060     42063     42066
     42062     42060     42063     42064     42062     42060     42063     42065
     42062     42060     42063     42066     42063     42066     42069     42070
     42063     42066     42069     42071     42063     42066     42069     42072
     42064     42063     42066     42067     42064     42063     42066     42068
     42064     42063     42066     42069     42065     42063     42066     42067
     42065     42063     42066     42068     42065     42063     42066     42069
     42066     42069     42072     42073     42066     42069     42072     42074
     42066     42069     42072     42075     42067     42066     42069     42070
     42067     42066     42069     42071     42067     42066     42069     42072
     42068     42066     42069     42070     42068     42066     42069     42071
     42068     42066     42069     42072     42069     42072     42075     42076
     42069     42072     42075     42077     42069     42072     42075     42078
     42070     42069     42072     42073     42070     42069     42072     42074
     42070     42069     42072     42075     42071     42069     42072     42073
     42071     42069     42072     42074     42071     42069     42072     42075
     42072     42075     42078     42079     42072     42075     42078     42080
     42072     42075     42078     42081     42073     42072     42075     42076
     42073     42072     42075     42077     42073     42072     42075     42078
     42074     42072     42075     42076     42074     42072     42075     42077
     42074     42072     42075     42078     42075     42078     42081     42082
     42075     42078     42081     42083     42075     42078     42081     42084
     42076     42075     42078     42079     42076     42075     42078     42080
     42076     42075     42078     42081     42077     42075     42078     42079
     42077     42075     42078     42080     42077     42075     42078     42081
     42078     42081     42084     42085     42078     42081     42084     42086
     42078     42081     42084     42087     42079     42078     42081     42082
     42079     42078     42081     42083     42079     42078     42081     42084
     42080     42078     42081     42082     42080     42078     42081     42083
     42080     42078     42081     42084     42081     42084     42087     42088
     42081     42084     42087     42089     42081     42084     42087     42090
     42082     42081     42084     42085     42082     42081     42084     42086
     42082     42081     42084     42087     42083     42081     42084     42085
     42083     42081     42084     42086     42083     42081     42084     42087
     42084     42087     42090     42091     42084     42087     42090     42092
     42084     42087     42090     42093     42085     42084     42087     42088
     42085     42084     42087     42089     42085     42084     42087     42090
     42086     42084     42087     42088     42086     42084     42087     42089
     42086     42084     42087     42090     42087     42090     42093     42094
     42087     42090     42093     42095     42087     42090     42093     42096
     42088     42087     42090     42091     42088     42087     42090     42092
     42088     42087     42090     42093     42089     42087     42090     42091
     42089     42087     42090     42092     42089     42087     42090     42093
     42091     42090     42093     42094     42091     42090     42093     42095
     42091     42090     42093     42096     42092     42090     42093     42094
     42092     42090     42093     42095     42092     42090     42093     42096
     42097     42101     42104     42105     42097     42101     42104     42106
     42097     42101     42104     42111     42098     42097     42101     42102
     42098     42097     42101     42103     42098     42097     42101     42104
     42099     42097     42101     42102     42099     42097     42101     42103
     42099     42097     42101     42104     42100     42097     42101     42102
     42100     42097     42101     42103     42100     42097     42101     42104
     42101     42104     42111     42107     42102     42101     42104     42105
     42102     42101     42104     42106     42102     42101     42104     42111
     42103     42101     42104     42105     42103     42101     42104     42106
     42103     42101     42104     42111     42104     42111     42107     42108
     42104     42111     42107     42109     42104     42111     42107     42110
     42105     42104     42111     42107     42106     42104     42111     42107
     42107     42110     42112     42113     42107     42110     42112     42114
     42107     42110     42112     42115     42108     42107     42110     42112
     42109     42107     42110     42112     42110     42112     42115     42116
     42110     42112     42115     42117     42110     42112     42115     42123
     42111     42107     42110     42112     42112     42115     42117     42118
     42112     42115     42123     42124     42112     42115     42123     42125
     42112     42115     42123     42126     42113     42112     42115     42116
     42113     42112     42115     42117     42113     42112     42115     42123
     42114     42112     42115     42116     42114     42112     42115     42117
     42114     42112     42115     42123     42115     42117     42118     42119
     42115     42117     42118     42120     42115     42123     42126     42127
     42116     42115     42117     42118     42116     42115     42123     42124
     42116     42115     42123     42125     42116     42115     42123     42126
     42117     42115     42123     42124     42117     42115     42123     42125
     42117     42115     42123     42126     42117     42118     42120     42121
     42117     42118     42120     42122     42117     42118     42120     42132
     42118     42117     42115     42123     42118     42120     42132     42133
     42118     42120     42132     42134     42118     42120     42132     42135
     42119     42118     42120     42121     42119     42118     42120     42122
     42119     42118     42120     42132     42120     42132     42135     42136
     42120     42132     42135     42137     42120     42132     42135     42138
     42121     42120     42132     42133     42121     42120     42132     42134
     42121     42120     42132     42135     42122     42120     42132     42133
     42122     42120     42132     42134     42122     42120     42132     42135
     42123     42126     42127     42128     42123     42126     42127     42129
     42124     42123     42126     42127     42125     42123     42126     42127
     42126     42127     42129     42130     42126     42127     42129     42131
     42126     42127     42129     42179     42127     42129     42179     42180
     42127     42129     42179     42181     42127     42129     42179     42182
     42128     42127     42129     42130     42128     42127     42129     42131
     42128     42127     42129     42179     42129     42179     42182     42183
     42129     42179     42182     42184     42129     42179     42182     42185
     42130     42129     42179     42180     42130     42129     42179     42181
     42130     42129     42179     42182     42131     42129     42179     42180
     42131     42129     42179     42181     42131     42129     42179     42182
     42132     42135     42138     42139     42132     42135     42138     42140
     42132     42135     42138     42141     42133     42132     42135     42136
     42133     42132     42135     42137     42133     42132     42135     42138
     42134     42132     42135     42136     42134     42132     42135     42137
     42134     42132     42135     42138     42135     42138     42141     42142
     42135     42138     42141     42143     42135     42138     42141     42144
     42136     42135     42138     42139     42136     42135     42138     42140
     42136     42135     42138     42141     42137     42135     42138     42139
     42137     42135     42138     42140     42137     42135     42138     42141
     42138     42141     42144     42145     42138     42141     42144     42146
     42138     42141     42144     42147     42139     42138     42141     42142
     42139     42138     42141     42143     42139     42138     42141     42144
     42140     42138     42141     42142     42140     42138     42141     42143
     42140     42138     42141     42144     42141     42144     42147     42148
     42141     42144     42147     42149     42141     42144     42147     42150
     42142     42141     42144     42145     42142     42141     42144     42146
     42142     42141     42144     42147     42143     42141     42144     42145
     42143     42141     42144     42146     42143     42141     42144     42147
     42144     42147     42150     42151     42144     42147     42150     42152
     42145     42144     42147     42148     42145     42144     42147     42149
     42145     42144     42147     42150     42146     42144     42147     42148
     42146     42144     42147     42149     42146     42144     42147     42150
     42147     42150     42152     42153     42147     42150     42152     42154
     42148     42147     42150     42151     42148     42147     42150     42152
     42149     42147     42150     42151     42149     42147     42150     42152
     42150     42152     42154     42155     42150     42152     42154     42156
     42150     42152     42154     42157     42151     42150     42152     42153
     42151     42150     42152     42154     42152     42154     42157     42158
     42152     42154     42157     42159     42152     42154     42157     42160
     42153     42152     42154     42155     42153     42152     42154     42156
     42153     42152     42154     42157     42154     42157     42160     42161
     42154     42157     42160     42162     42154     42157     42160     42163
     42155     42154     42157     42158     42155     42154     42157     42159
     42155     42154     42157     42160     42156     42154     42157     42158
     42156     42154     42157     42159     42156     42154     42157     42160
     42157     42160     42163     42164     42157     42160     42163     42165
     42157     42160     42163     42166     42158     42157     42160     42161
     42158     42157     42160     42162     42158     42157     42160     42163
     42159     42157     42160     42161     42159     42157     42160     42162
     42159     42157     42160     42163     42160     42163     42166     42167
     42160     42163     42166     42168     42160     42163     42166     42169
     42161     42160     42163     42164     42161     42160     42163     42165
     42161     42160     42163     42166     42162     42160     42163     42164
     42162     42160     42163     42165     42162     42160     42163     42166
     42163     42166     42169     42170     42163     42166     42169     42171
     42163     42166     42169     42172     42164     42163     42166     42167
     42164     42163     42166     42168     42164     42163     42166     42169
     42165     42163     42166     42167     42165     42163     42166     42168
     42165     42163     42166     42169     42166     42169     42172     42173
     42166     42169     42172     42174     42166     42169     42172     42175
     42167     42166     42169     42170     42167     42166     42169     42171
     42167     42166     42169     42172     42168     42166     42169     42170
     42168     42166     42169     42171     42168     42166     42169     42172
     42169     42172     42175     42176     42169     42172     42175     42177
     42169     42172     42175     42178     42170     42169     42172     42173
     42170     42169     42172     42174     42170     42169     42172     42175
     42171     42169     42172     42173     42171     42169     42172     42174
     42171     42169     42172     42175     42173     42172     42175     42176
     42173     42172     42175     42177     42173     42172     42175     42178
     42174     42172     42175     42176     42174     42172     42175     42177
     42174     42172     42175     42178     42179     42182     42185     42186
     42179     42182     42185     42187     42179     42182     42185     42188
     42180     42179     42182     42183     42180     42179     42182     42184
     42180     42179     42182     42185     42181     42179     42182     42183
     42181     42179     42182     42184     42181     42179     42182     42185
     42182     42185     42188     42189     42182     42185     42188     42190
     42182     42185     42188     42191     42183     42182     42185     42186
     42183     42182     42185     42187     42183     42182     42185     42188
     42184     42182     42185     42186     42184     42182     42185     42187
     42184     42182     42185     42188     42185     42188     42191     42192
     42185     42188     42191     42193     42185     42188     42191     42194
     42186     42185     42188     42189     42186     42185     42188     42190
     42186     42185     42188     42191     42187     42185     42188     42189
     42187     42185     42188     42190     42187     42185     42188     42191
     42188     42191     42194     42195     42188     42191     42194     42196
     42188     42191     42194     42197     42189     42188     42191     42192
     42189     42188     42191     42193     42189     42188     42191     42194
     42190     42188     42191     42192     42190     42188     42191     42193
     42190     42188     42191     42194     42191     42194     42197     42198
     42191     42194     42197     42199     42191     42194     42197     42200
     42192     42191     42194     42195     42192     42191     42194     42196
     42192     42191     42194     42197     42193     42191     42194     42195
     42193     42191     42194     42196     42193     42191     42194     42197
     42194     42197     42200     42201     42194     42197     42200     42202
     42194     42197     42200     42203     42195     42194     42197     42198
     42195     42194     42197     42199     42195     42194     42197     42200
     42196     42194     42197     42198     42196     42194     42197     42199
     42196     42194     42197     42200     42197     42200     42203     42204
     42197     42200     42203     42205     42197     42200     42203     42206
     42198     42197     42200     42201     42198     42197     42200     42202
     42198     42197     42200     42203     42199     42197     42200     42201
     42199     42197     42200     42202     42199     42197     42200     42203
     42200     42203     42206     42207     42200     42203     42206     42208
     42200     42203     42206     42209     42201     42200     42203     42204
     42201     42200     42203     42205     42201     42200     42203     42206
     42202     42200     42203     42204     42202     42200     42203     42205
     42202     42200     42203     42206     42203     42206     42209     42210
     42203     42206     42209     42211     42203     42206     42209     42212
     42204     42203     42206     42207     42204     42203     42206     42208
     42204     42203     42206     42209     42205     42203     42206     42207
     42205     42203     42206     42208     42205     42203     42206     42209
     42206     42209     42212     42213     42206     42209     42212     42214
     42206     42209     42212     42215     42207     42206     42209     42210
     42207     42206     42209     42211     42207     42206     42209     42212
     42208     42206     42209     42210     42208     42206     42209     42211
     42208     42206     42209     42212     42209     42212     42215     42216
     42209     42212     42215     42217     42209     42212     42215     42218
     42210     42209     42212     42213     42210     42209     42212     42214
     42210     42209     42212     42215     42211     42209     42212     42213
     42211     42209     42212     42214     42211     42209     42212     42215
     42212     42215     42218     42219     42212     42215     42218     42220
     42212     42215     42218     42221     42213     42212     42215     42216
     42213     42212     42215     42217     42213     42212     42215     42218
     42214     42212     42215     42216     42214     42212     42215     42217
     42214     42212     42215     42218     42216     42215     42218     42219
     42216     42215     42218     42220     42216     42215     42218     42221
     42217     42215     42218     42219     42217     42215     42218     42220
     42217     42215     42218     42221     42222     42226     42229     42230
     42222     42226     42229     42231     42222     42226     42229     42236
     42223     42222     42226     42227     42223     42222     42226     42228
     42223     42222     42226     42229     42224     42222     42226     42227
     42224     42222     42226     42228     42224     42222     42226     42229
     42225     42222     42226     42227     42225     42222     42226     42228
     42225     42222     42226     42229     42226     42229     42236     42232
     42227     42226     42229     42230     42227     42226     42229     42231
     42227     42226     42229     42236     42228     42226     42229     42230
     42228     42226     42229     42231     42228     42226     42229     42236
     42229     42236     42232     42233     42229     42236     42232     42234
     42229     42236     42232     42235     42230     42229     42236     42232
     42231     42229     42236     42232     42232     42235     42237     42238
     42232     42235     42237     42239     42232     42235     42237     42240
     42233     42232     42235     42237     42234     42232     42235     42237
     42235     42237     42240     42241     42235     42237     42240     42242
     42235     42237     42240     42248     42236     42232     42235     42237
     42237     42240     42242     42243     42237     42240     42248     42249
     42237     42240     42248     42250     42237     42240     42248     42251
     42238     42237     42240     42241     42238     42237     42240     42242
     42238     42237     42240     42248     42239     42237     42240     42241
     42239     42237     42240     42242     42239     42237     42240     42248
     42240     42242     42243     42244     42240     42242     42243     42245
     42240     42248     42251     42252     42241     42240     42242     42243
     42241     42240     42248     42249     42241     42240     42248     42250
     42241     42240     42248     42251     42242     42240     42248     42249
     42242     42240     42248     42250     42242     42240     42248     42251
     42242     42243     42245     42246     42242     42243     42245     42247
     42242     42243     42245     42257     42243     42242     42240     42248
     42243     42245     42257     42258     42243     42245     42257     42259
     42243     42245     42257     42260     42244     42243     42245     42246
     42244     42243     42245     42247     42244     42243     42245     42257
     42245     42257     42260     42261     42245     42257     42260     42262
     42245     42257     42260     42263     42246     42245     42257     42258
     42246     42245     42257     42259     42246     42245     42257     42260
     42247     42245     42257     42258     42247     42245     42257     42259
     42247     42245     42257     42260     42248     42251     42252     42253
     42248     42251     42252     42254     42249     42248     42251     42252
     42250     42248     42251     42252     42251     42252     42254     42255
     42251     42252     42254     42256     42251     42252     42254     42304
     42252     42254     42304     42305     42252     42254     42304     42306
     42252     42254     42304     42307     42253     42252     42254     42255
     42253     42252     42254     42256     42253     42252     42254     42304
     42254     42304     42307     42308     42254     42304     42307     42309
     42254     42304     42307     42310     42255     42254     42304     42305
     42255     42254     42304     42306     42255     42254     42304     42307
     42256     42254     42304     42305     42256     42254     42304     42306
     42256     42254     42304     42307     42257     42260     42263     42264
     42257     42260     42263     42265     42257     42260     42263     42266
     42258     42257     42260     42261     42258     42257     42260     42262
     42258     42257     42260     42263     42259     42257     42260     42261
     42259     42257     42260     42262     42259     42257     42260     42263
     42260     42263     42266     42267     42260     42263     42266     42268
     42260     42263     42266     42269     42261     42260     42263     42264
     42261     42260     42263     42265     42261     42260     42263     42266
     42262     42260     42263     42264     42262     42260     42263     42265
     42262     42260     42263     42266     42263     42266     42269     42270
     42263     42266     42269     42271     42263     42266     42269     42272
     42264     42263     42266     42267     42264     42263     42266     42268
     42264     42263     42266     42269     42265     42263     42266     42267
     42265     42263     42266     42268     42265     42263     42266     42269
     42266     42269     42272     42273     42266     42269     42272     42274
     42266     42269     42272     42275     42267     42266     42269     42270
     42267     42266     42269     42271     42267     42266     42269     42272
     42268     42266     42269     42270     42268     42266     42269     42271
     42268     42266     42269     42272     42269     42272     42275     42276
     42269     42272     42275     42277     42270     42269     42272     42273
     42270     42269     42272     42274     42270     42269     42272     42275
     42271     42269     42272     42273     42271     42269     42272     42274
     42271     42269     42272     42275     42272     42275     42277     42278
     42272     42275     42277     42279     42273     42272     42275     42276
     42273     42272     42275     42277     42274     42272     42275     42276
     42274     42272     42275     42277     42275     42277     42279     42280
     42275     42277     42279     42281     42275     42277     42279     42282
     42276     42275     42277     42278     42276     42275     42277     42279
     42277     42279     42282     42283     42277     42279     42282     42284
     42277     42279     42282     42285     42278     42277     42279     42280
     42278     42277     42279     42281     42278     42277     42279     42282
     42279     42282     42285     42286     42279     42282     42285     42287
     42279     42282     42285     42288     42280     42279     42282     42283
     42280     42279     42282     42284     42280     42279     42282     42285
     42281     42279     42282     42283     42281     42279     42282     42284
     42281     42279     42282     42285     42282     42285     42288     42289
     42282     42285     42288     42290     42282     42285     42288     42291
     42283     42282     42285     42286     42283     42282     42285     42287
     42283     42282     42285     42288     42284     42282     42285     42286
     42284     42282     42285     42287     42284     42282     42285     42288
     42285     42288     42291     42292     42285     42288     42291     42293
     42285     42288     42291     42294     42286     42285     42288     42289
     42286     42285     42288     42290     42286     42285     42288     42291
     42287     42285     42288     42289     42287     42285     42288     42290
     42287     42285     42288     42291     42288     42291     42294     42295
     42288     42291     42294     42296     42288     42291     42294     42297
     42289     42288     42291     42292     42289     42288     42291     42293
     42289     42288     42291     42294     42290     42288     42291     42292
     42290     42288     42291     42293     42290     42288     42291     42294
     42291     42294     42297     42298     42291     42294     42297     42299
     42291     42294     42297     42300     42292     42291     42294     42295
     42292     42291     42294     42296     42292     42291     42294     42297
     42293     42291     42294     42295     42293     42291     42294     42296
     42293     42291     42294     42297     42294     42297     42300     42301
     42294     42297     42300     42302     42294     42297     42300     42303
     42295     42294     42297     42298     42295     42294     42297     42299
     42295     42294     42297     42300     42296     42294     42297     42298
     42296     42294     42297     42299     42296     42294     42297     42300
     42298     42297     42300     42301     42298     42297     42300     42302
     42298     42297     42300     42303     42299     42297     42300     42301
     42299     42297     42300     42302     42299     42297     42300     42303
     42304     42307     42310     42311     42304     42307     42310     42312
     42304     42307     42310     42313     42305     42304     42307     42308
     42305     42304     42307     42309     42305     42304     42307     42310
     42306     42304     42307     42308     42306     42304     42307     42309
     42306     42304     42307     42310     42307     42310     42313     42314
     42307     42310     42313     42315     42307     42310     42313     42316
     42308     42307     42310     42311     42308     42307     42310     42312
     42308     42307     42310     42313     42309     42307     42310     42311
     42309     42307     42310     42312     42309     42307     42310     42313
     42310     42313     42316     42317     42310     42313     42316     42318
     42310     42313     42316     42319     42311     42310     42313     42314
     42311     42310     42313     42315     42311     42310     42313     42316
     42312     42310     42313     42314     42312     42310     42313     42315
     42312     42310     42313     42316     42313     42316     42319     42320
     42313     42316     42319     42321     42313     42316     42319     42322
     42314     42313     42316     42317     42314     42313     42316     42318
     42314     42313     42316     42319     42315     42313     42316     42317
     42315     42313     42316     42318     42315     42313     42316     42319
     42316     42319     42322     42323     42316     42319     42322     42324
     42316     42319     42322     42325     42317     42316     42319     42320
     42317     42316     42319     42321     42317     42316     42319     42322
     42318     42316     42319     42320     42318     42316     42319     42321
     42318     42316     42319     42322     42319     42322     42325     42326
     42319     42322     42325     42327     42319     42322     42325     42328
     42320     42319     42322     42323     42320     42319     42322     42324
     42320     42319     42322     42325     42321     42319     42322     42323
     42321     42319     42322     42324     42321     42319     42322     42325
     42322     42325     42328     42329     42322     42325     42328     42330
     42322     42325     42328     42331     42323     42322     42325     42326
     42323     42322     42325     42327     42323     42322     42325     42328
     42324     42322     42325     42326     42324     42322     42325     42327
     42324     42322     42325     42328     42325     42328     42331     42332
     42325     42328     42331     42333     42325     42328     42331     42334
     42326     42325     42328     42329     42326     42325     42328     42330
     42326     42325     42328     42331     42327     42325     42328     42329
     42327     42325     42328     42330     42327     42325     42328     42331
     42328     42331     42334     42335     42328     42331     42334     42336
     42328     42331     42334     42337     42329     42328     42331     42332
     42329     42328     42331     42333     42329     42328     42331     42334
     42330     42328     42331     42332     42330     42328     42331     42333
     42330     42328     42331     42334     42331     42334     42337     42338
     42331     42334     42337     42339     42331     42334     42337     42340
     42332     42331     42334     42335     42332     42331     42334     42336
     42332     42331     42334     42337     42333     42331     42334     42335
     42333     42331     42334     42336     42333     42331     42334     42337
     42334     42337     42340     42341     42334     42337     42340     42342
     42334     42337     42340     42343     42335     42334     42337     42338
     42335     42334     42337     42339     42335     42334     42337     42340
     42336     42334     42337     42338     42336     42334     42337     42339
     42336     42334     42337     42340     42337     42340     42343     42344
     42337     42340     42343     42345     42337     42340     42343     42346
     42338     42337     42340     42341     42338     42337     42340     42342
     42338     42337     42340     42343     42339     42337     42340     42341
     42339     42337     42340     42342     42339     42337     42340     42343
     42341     42340     42343     42344     42341     42340     42343     42345
     42341     42340     42343     42346     42342     42340     42343     42344
     42342     42340     42343     42345     42342     42340     42343     42346
     42347     42351     42354     42355     42347     42351     42354     42356
     42347     42351     42354     42361     42348     42347     42351     42352
     42348     42347     42351     42353     42348     42347     42351     42354
     42349     42347     42351     42352     42349     42347     42351     42353
     42349     42347     42351     42354     42350     42347     42351     42352
     42350     42347     42351     42353     42350     42347     42351     42354
     42351     42354     42361     42357     42352     42351     42354     42355
     42352     42351     42354     42356     42352     42351     42354     42361
     42353     42351     42354     42355     42353     42351     42354     42356
     42353     42351     42354     42361     42354     42361     42357     42358
     42354     42361     42357     42359     42354     42361     42357     42360
     42355     42354     42361     42357     42356     42354     42361     42357
     42357     42360     42362     42363     42357     42360     42362     42364
     42357     42360     42362     42365     42358     42357     42360     42362
     42359     42357     42360     42362     42360     42362     42365     42366
     42360     42362     42365     42367     42360     42362     42365     42373
     42361     42357     42360     42362     42362     42365     42367     42368
     42362     42365     42373     42374     42362     42365     42373     42375
     42362     42365     42373     42376     42363     42362     42365     42366
     42363     42362     42365     42367     42363     42362     42365     42373
     42364     42362     42365     42366     42364     42362     42365     42367
     42364     42362     42365     42373     42365     42367     42368     42369
     42365     42367     42368     42370     42365     42373     42376     42377
     42366     42365     42367     42368     42366     42365     42373     42374
     42366     42365     42373     42375     42366     42365     42373     42376
     42367     42365     42373     42374     42367     42365     42373     42375
     42367     42365     42373     42376     42367     42368     42370     42371
     42367     42368     42370     42372     42367     42368     42370     42382
     42368     42367     42365     42373     42368     42370     42382     42383
     42368     42370     42382     42384     42368     42370     42382     42385
     42369     42368     42370     42371     42369     42368     42370     42372
     42369     42368     42370     42382     42370     42382     42385     42386
     42370     42382     42385     42387     42370     42382     42385     42388
     42371     42370     42382     42383     42371     42370     42382     42384
     42371     42370     42382     42385     42372     42370     42382     42383
     42372     42370     42382     42384     42372     42370     42382     42385
     42373     42376     42377     42378     42373     42376     42377     42379
     42374     42373     42376     42377     42375     42373     42376     42377
     42376     42377     42379     42380     42376     42377     42379     42381
     42376     42377     42379     42429     42377     42379     42429     42430
     42377     42379     42429     42431     42377     42379     42429     42432
     42378     42377     42379     42380     42378     42377     42379     42381
     42378     42377     42379     42429     42379     42429     42432     42433
     42379     42429     42432     42434     42379     42429     42432     42435
     42380     42379     42429     42430     42380     42379     42429     42431
     42380     42379     42429     42432     42381     42379     42429     42430
     42381     42379     42429     42431     42381     42379     42429     42432
     42382     42385     42388     42389     42382     42385     42388     42390
     42382     42385     42388     42391     42383     42382     42385     42386
     42383     42382     42385     42387     42383     42382     42385     42388
     42384     42382     42385     42386     42384     42382     42385     42387
     42384     42382     42385     42388     42385     42388     42391     42392
     42385     42388     42391     42393     42385     42388     42391     42394
     42386     42385     42388     42389     42386     42385     42388     42390
     42386     42385     42388     42391     42387     42385     42388     42389
     42387     42385     42388     42390     42387     42385     42388     42391
     42388     42391     42394     42395     42388     42391     42394     42396
     42388     42391     42394     42397     42389     42388     42391     42392
     42389     42388     42391     42393     42389     42388     42391     42394
     42390     42388     42391     42392     42390     42388     42391     42393
     42390     42388     42391     42394     42391     42394     42397     42398
     42391     42394     42397     42399     42391     42394     42397     42400
     42392     42391     42394     42395     42392     42391     42394     42396
     42392     42391     42394     42397     42393     42391     42394     42395
     42393     42391     42394     42396     42393     42391     42394     42397
     42394     42397     42400     42401     42394     42397     42400     42402
     42395     42394     42397     42398     42395     42394     42397     42399
     42395     42394     42397     42400     42396     42394     42397     42398
     42396     42394     42397     42399     42396     42394     42397     42400
     42397     42400     42402     42403     42397     42400     42402     42404
     42398     42397     42400     42401     42398     42397     42400     42402
     42399     42397     42400     42401     42399     42397     42400     42402
     42400     42402     42404     42405     42400     42402     42404     42406
     42400     42402     42404     42407     42401     42400     42402     42403
     42401     42400     42402     42404     42402     42404     42407     42408
     42402     42404     42407     42409     42402     42404     42407     42410
     42403     42402     42404     42405     42403     42402     42404     42406
     42403     42402     42404     42407     42404     42407     42410     42411
     42404     42407     42410     42412     42404     42407     42410     42413
     42405     42404     42407     42408     42405     42404     42407     42409
     42405     42404     42407     42410     42406     42404     42407     42408
     42406     42404     42407     42409     42406     42404     42407     42410
     42407     42410     42413     42414     42407     42410     42413     42415
     42407     42410     42413     42416     42408     42407     42410     42411
     42408     42407     42410     42412     42408     42407     42410     42413
     42409     42407     42410     42411     42409     42407     42410     42412
     42409     42407     42410     42413     42410     42413     42416     42417
     42410     42413     42416     42418     42410     42413     42416     42419
     42411     42410     42413     42414     42411     42410     42413     42415
     42411     42410     42413     42416     42412     42410     42413     42414
     42412     42410     42413     42415     42412     42410     42413     42416
     42413     42416     42419     42420     42413     42416     42419     42421
     42413     42416     42419     42422     42414     42413     42416     42417
     42414     42413     42416     42418     42414     42413     42416     42419
     42415     42413     42416     42417     42415     42413     42416     42418
     42415     42413     42416     42419     42416     42419     42422     42423
     42416     42419     42422     42424     42416     42419     42422     42425
     42417     42416     42419     42420     42417     42416     42419     42421
     42417     42416     42419     42422     42418     42416     42419     42420
     42418     42416     42419     42421     42418     42416     42419     42422
     42419     42422     42425     42426     42419     42422     42425     42427
     42419     42422     42425     42428     42420     42419     42422     42423
     42420     42419     42422     42424     42420     42419     42422     42425
     42421     42419     42422     42423     42421     42419     42422     42424
     42421     42419     42422     42425     42423     42422     42425     42426
     42423     42422     42425     42427     42423     42422     42425     42428
     42424     42422     42425     42426     42424     42422     42425     42427
     42424     42422     42425     42428     42429     42432     42435     42436
     42429     42432     42435     42437     42429     42432     42435     42438
     42430     42429     42432     42433     42430     42429     42432     42434
     42430     42429     42432     42435     42431     42429     42432     42433
     42431     42429     42432     42434     42431     42429     42432     42435
     42432     42435     42438     42439     42432     42435     42438     42440
     42432     42435     42438     42441     42433     42432     42435     42436
     42433     42432     42435     42437     42433     42432     42435     42438
     42434     42432     42435     42436     42434     42432     42435     42437
     42434     42432     42435     42438     42435     42438     42441     42442
     42435     42438     42441     42443     42435     42438     42441     42444
     42436     42435     42438     42439     42436     42435     42438     42440
     42436     42435     42438     42441     42437     42435     42438     42439
     42437     42435     42438     42440     42437     42435     42438     42441
     42438     42441     42444     42445     42438     42441     42444     42446
     42438     42441     42444     42447     42439     42438     42441     42442
     42439     42438     42441     42443     42439     42438     42441     42444
     42440     42438     42441     42442     42440     42438     42441     42443
     42440     42438     42441     42444     42441     42444     42447     42448
     42441     42444     42447     42449     42441     42444     42447     42450
     42442     42441     42444     42445     42442     42441     42444     42446
     42442     42441     42444     42447     42443     42441     42444     42445
     42443     42441     42444     42446     42443     42441     42444     42447
     42444     42447     42450     42451     42444     42447     42450     42452
     42444     42447     42450     42453     42445     42444     42447     42448
     42445     42444     42447     42449     42445     42444     42447     42450
     42446     42444     42447     42448     42446     42444     42447     42449
     42446     42444     42447     42450     42447     42450     42453     42454
     42447     42450     42453     42455     42447     42450     42453     42456
     42448     42447     42450     42451     42448     42447     42450     42452
     42448     42447     42450     42453     42449     42447     42450     42451
     42449     42447     42450     42452     42449     42447     42450     42453
     42450     42453     42456     42457     42450     42453     42456     42458
     42450     42453     42456     42459     42451     42450     42453     42454
     42451     42450     42453     42455     42451     42450     42453     42456
     42452     42450     42453     42454     42452     42450     42453     42455
     42452     42450     42453     42456     42453     42456     42459     42460
     42453     42456     42459     42461     42453     42456     42459     42462
     42454     42453     42456     42457     42454     42453     42456     42458
     42454     42453     42456     42459     42455     42453     42456     42457
     42455     42453     42456     42458     42455     42453     42456     42459
     42456     42459     42462     42463     42456     42459     42462     42464
     42456     42459     42462     42465     42457     42456     42459     42460
     42457     42456     42459     42461     42457     42456     42459     42462
     42458     42456     42459     42460     42458     42456     42459     42461
     42458     42456     42459     42462     42459     42462     42465     42466
     42459     42462     42465     42467     42459     42462     42465     42468
     42460     42459     42462     42463     42460     42459     42462     42464
     42460     42459     42462     42465     42461     42459     42462     42463
     42461     42459     42462     42464     42461     42459     42462     42465
     42462     42465     42468     42469     42462     42465     42468     42470
     42462     42465     42468     42471     42463     42462     42465     42466
     42463     42462     42465     42467     42463     42462     42465     42468
     42464     42462     42465     42466     42464     42462     42465     42467
     42464     42462     42465     42468     42466     42465     42468     42469
     42466     42465     42468     42470     42466     42465     42468     42471
     42467     42465     42468     42469     42467     42465     42468     42470
     42467     42465     42468     42471     42472     42476     42479     42480
     42472     42476     42479     42481     42472     42476     42479     42486
     42473     42472     42476     42477     42473     42472     42476     42478
     42473     42472     42476     42479     42474     42472     42476     42477
     42474     42472     42476     42478     42474     42472     42476     42479
     42475     42472     42476     42477     42475     42472     42476     42478
     42475     42472     42476     42479     42476     42479     42486     42482
     42477     42476     42479     42480     42477     42476     42479     42481
     42477     42476     42479     42486     42478     42476     42479     42480
     42478     42476     42479     42481     42478     42476     42479     42486
     42479     42486     42482     42483     42479     42486     42482     42484
     42479     42486     42482     42485     42480     42479     42486     42482
     42481     42479     42486     42482     42482     42485     42487     42488
     42482     42485     42487     42489     42482     42485     42487     42490
     42483     42482     42485     42487     42484     42482     42485     42487
     42485     42487     42490     42491     42485     42487     42490     42492
     42485     42487     42490     42498     42486     42482     42485     42487
     42487     42490     42492     42493     42487     42490     42498     42499
     42487     42490     42498     42500     42487     42490     42498     42501
     42488     42487     42490     42491     42488     42487     42490     42492
     42488     42487     42490     42498     42489     42487     42490     42491
     42489     42487     42490     42492     42489     42487     42490     42498
     42490     42492     42493     42494     42490     42492     42493     42495
     42490     42498     42501     42502     42491     42490     42492     42493
     42491     42490     42498     42499     42491     42490     42498     42500
     42491     42490     42498     42501     42492     42490     42498     42499
     42492     42490     42498     42500     42492     42490     42498     42501
     42492     42493     42495     42496     42492     42493     42495     42497
     42492     42493     42495     42507     42493     42492     42490     42498
     42493     42495     42507     42508     42493     42495     42507     42509
     42493     42495     42507     42510     42494     42493     42495     42496
     42494     42493     42495     42497     42494     42493     42495     42507
     42495     42507     42510     42511     42495     42507     42510     42512
     42495     42507     42510     42513     42496     42495     42507     42508
     42496     42495     42507     42509     42496     42495     42507     42510
     42497     42495     42507     42508     42497     42495     42507     42509
     42497     42495     42507     42510     42498     42501     42502     42503
     42498     42501     42502     42504     42499     42498     42501     42502
     42500     42498     42501     42502     42501     42502     42504     42505
     42501     42502     42504     42506     42501     42502     42504     42554
     42502     42504     42554     42555     42502     42504     42554     42556
     42502     42504     42554     42557     42503     42502     42504     42505
     42503     42502     42504     42506     42503     42502     42504     42554
     42504     42554     42557     42558     42504     42554     42557     42559
     42504     42554     42557     42560     42505     42504     42554     42555
     42505     42504     42554     42556     42505     42504     42554     42557
     42506     42504     42554     42555     42506     42504     42554     42556
     42506     42504     42554     42557     42507     42510     42513     42514
     42507     42510     42513     42515     42507     42510     42513     42516
     42508     42507     42510     42511     42508     42507     42510     42512
     42508     42507     42510     42513     42509     42507     42510     42511
     42509     42507     42510     42512     42509     42507     42510     42513
     42510     42513     42516     42517     42510     42513     42516     42518
     42510     42513     42516     42519     42511     42510     42513     42514
     42511     42510     42513     42515     42511     42510     42513     42516
     42512     42510     42513     42514     42512     42510     42513     42515
     42512     42510     42513     42516     42513     42516     42519     42520
     42513     42516     42519     42521     42513     42516     42519     42522
     42514     42513     42516     42517     42514     42513     42516     42518
     42514     42513     42516     42519     42515     42513     42516     42517
     42515     42513     42516     42518     42515     42513     42516     42519
     42516     42519     42522     42523     42516     42519     42522     42524
     42516     42519     42522     42525     42517     42516     42519     42520
     42517     42516     42519     42521     42517     42516     42519     42522
     42518     42516     42519     42520     42518     42516     42519     42521
     42518     42516     42519     42522     42519     42522     42525     42526
     42519     42522     42525     42527     42520     42519     42522     42523
     42520     42519     42522     42524     42520     42519     42522     42525
     42521     42519     42522     42523     42521     42519     42522     42524
     42521     42519     42522     42525     42522     42525     42527     42528
     42522     42525     42527     42529     42523     42522     42525     42526
     42523     42522     42525     42527     42524     42522     42525     42526
     42524     42522     42525     42527     42525     42527     42529     42530
     42525     42527     42529     42531     42525     42527     42529     42532
     42526     42525     42527     42528     42526     42525     42527     42529
     42527     42529     42532     42533     42527     42529     42532     42534
     42527     42529     42532     42535     42528     42527     42529     42530
     42528     42527     42529     42531     42528     42527     42529     42532
     42529     42532     42535     42536     42529     42532     42535     42537
     42529     42532     42535     42538     42530     42529     42532     42533
     42530     42529     42532     42534     42530     42529     42532     42535
     42531     42529     42532     42533     42531     42529     42532     42534
     42531     42529     42532     42535     42532     42535     42538     42539
     42532     42535     42538     42540     42532     42535     42538     42541
     42533     42532     42535     42536     42533     42532     42535     42537
     42533     42532     42535     42538     42534     42532     42535     42536
     42534     42532     42535     42537     42534     42532     42535     42538
     42535     42538     42541     42542     42535     42538     42541     42543
     42535     42538     42541     42544     42536     42535     42538     42539
     42536     42535     42538     42540     42536     42535     42538     42541
     42537     42535     42538     42539     42537     42535     42538     42540
     42537     42535     42538     42541     42538     42541     42544     42545
     42538     42541     42544     42546     42538     42541     42544     42547
     42539     42538     42541     42542     42539     42538     42541     42543
     42539     42538     42541     42544     42540     42538     42541     42542
     42540     42538     42541     42543     42540     42538     42541     42544
     42541     42544     42547     42548     42541     42544     42547     42549
     42541     42544     42547     42550     42542     42541     42544     42545
     42542     42541     42544     42546     42542     42541     42544     42547
     42543     42541     42544     42545     42543     42541     42544     42546
     42543     42541     42544     42547     42544     42547     42550     42551
     42544     42547     42550     42552     42544     42547     42550     42553
     42545     42544     42547     42548     42545     42544     42547     42549
     42545     42544     42547     42550     42546     42544     42547     42548
     42546     42544     42547     42549     42546     42544     42547     42550
     42548     42547     42550     42551     42548     42547     42550     42552
     42548     42547     42550     42553     42549     42547     42550     42551
     42549     42547     42550     42552     42549     42547     42550     42553
     42554     42557     42560     42561     42554     42557     42560     42562
     42554     42557     42560     42563     42555     42554     42557     42558
     42555     42554     42557     42559     42555     42554     42557     42560
     42556     42554     42557     42558     42556     42554     42557     42559
     42556     42554     42557     42560     42557     42560     42563     42564
     42557     42560     42563     42565     42557     42560     42563     42566
     42558     42557     42560     42561     42558     42557     42560     42562
     42558     42557     42560     42563     42559     42557     42560     42561
     42559     42557     42560     42562     42559     42557     42560     42563
     42560     42563     42566     42567     42560     42563     42566     42568
     42560     42563     42566     42569     42561     42560     42563     42564
     42561     42560     42563     42565     42561     42560     42563     42566
     42562     42560     42563     42564     42562     42560     42563     42565
     42562     42560     42563     42566     42563     42566     42569     42570
     42563     42566     42569     42571     42563     42566     42569     42572
     42564     42563     42566     42567     42564     42563     42566     42568
     42564     42563     42566     42569     42565     42563     42566     42567
     42565     42563     42566     42568     42565     42563     42566     42569
     42566     42569     42572     42573     42566     42569     42572     42574
     42566     42569     42572     42575     42567     42566     42569     42570
     42567     42566     42569     42571     42567     42566     42569     42572
     42568     42566     42569     42570     42568     42566     42569     42571
     42568     42566     42569     42572     42569     42572     42575     42576
     42569     42572     42575     42577     42569     42572     42575     42578
     42570     42569     42572     42573     42570     42569     42572     42574
     42570     42569     42572     42575     42571     42569     42572     42573
     42571     42569     42572     42574     42571     42569     42572     42575
     42572     42575     42578     42579     42572     42575     42578     42580
     42572     42575     42578     42581     42573     42572     42575     42576
     42573     42572     42575     42577     42573     42572     42575     42578
     42574     42572     42575     42576     42574     42572     42575     42577
     42574     42572     42575     42578     42575     42578     42581     42582
     42575     42578     42581     42583     42575     42578     42581     42584
     42576     42575     42578     42579     42576     42575     42578     42580
     42576     42575     42578     42581     42577     42575     42578     42579
     42577     42575     42578     42580     42577     42575     42578     42581
     42578     42581     42584     42585     42578     42581     42584     42586
     42578     42581     42584     42587     42579     42578     42581     42582
     42579     42578     42581     42583     42579     42578     42581     42584
     42580     42578     42581     42582     42580     42578     42581     42583
     42580     42578     42581     42584     42581     42584     42587     42588
     42581     42584     42587     42589     42581     42584     42587     42590
     42582     42581     42584     42585     42582     42581     42584     42586
     42582     42581     42584     42587     42583     42581     42584     42585
     42583     42581     42584     42586     42583     42581     42584     42587
     42584     42587     42590     42591     42584     42587     42590     42592
     42584     42587     42590     42593     42585     42584     42587     42588
     42585     42584     42587     42589     42585     42584     42587     42590
     42586     42584     42587     42588     42586     42584     42587     42589
     42586     42584     42587     42590     42587     42590     42593     42594
     42587     42590     42593     42595     42587     42590     42593     42596
     42588     42587     42590     42591     42588     42587     42590     42592
     42588     42587     42590     42593     42589     42587     42590     42591
     42589     42587     42590     42592     42589     42587     42590     42593
     42591     42590     42593     42594     42591     42590     42593     42595
     42591     42590     42593     42596     42592     42590     42593     42594
     42592     42590     42593     42595     42592     42590     42593     42596
     42597     42601     42604     42605     42597     42601     42604     42606
     42597     42601     42604     42611     42598     42597     42601     42602
     42598     42597     42601     42603     42598     42597     42601     42604
     42599     42597     42601     42602     42599     42597     42601     42603
     42599     42597     42601     42604     42600     42597     42601     42602
     42600     42597     42601     42603     42600     42597     42601     42604
     42601     42604     42611     42607     42602     42601     42604     42605
     42602     42601     42604     42606     42602     42601     42604     42611
     42603     42601     42604     42605     42603     42601     42604     42606
     42603     42601     42604     42611     42604     42611     42607     42608
     42604     42611     42607     42609     42604     42611     42607     42610
     42605     42604     42611     42607     42606     42604     42611     42607
     42607     42610     42612     42613     42607     42610     42612     42614
     42607     42610     42612     42615     42608     42607     42610     42612
     42609     42607     42610     42612     42610     42612     42615     42616
     42610     42612     42615     42617     42610     42612     42615     42623
     42611     42607     42610     42612     42612     42615     42617     42618
     42612     42615     42623     42624     42612     42615     42623     42625
     42612     42615     42623     42626     42613     42612     42615     42616
     42613     42612     42615     42617     42613     42612     42615     42623
     42614     42612     42615     42616     42614     42612     42615     42617
     42614     42612     42615     42623     42615     42617     42618     42619
     42615     42617     42618     42620     42615     42623     42626     42627
     42616     42615     42617     42618     42616     42615     42623     42624
     42616     42615     42623     42625     42616     42615     42623     42626
     42617     42615     42623     42624     42617     42615     42623     42625
     42617     42615     42623     42626     42617     42618     42620     42621
     42617     42618     42620     42622     42617     42618     42620     42632
     42618     42617     42615     42623     42618     42620     42632     42633
     42618     42620     42632     42634     42618     42620     42632     42635
     42619     42618     42620     42621     42619     42618     42620     42622
     42619     42618     42620     42632     42620     42632     42635     42636
     42620     42632     42635     42637     42620     42632     42635     42638
     42621     42620     42632     42633     42621     42620     42632     42634
     42621     42620     42632     42635     42622     42620     42632     42633
     42622     42620     42632     42634     42622     42620     42632     42635
     42623     42626     42627     42628     42623     42626     42627     42629
     42624     42623     42626     42627     42625     42623     42626     42627
     42626     42627     42629     42630     42626     42627     42629     42631
     42626     42627     42629     42679     42627     42629     42679     42680
     42627     42629     42679     42681     42627     42629     42679     42682
     42628     42627     42629     42630     42628     42627     42629     42631
     42628     42627     42629     42679     42629     42679     42682     42683
     42629     42679     42682     42684     42629     42679     42682     42685
     42630     42629     42679     42680     42630     42629     42679     42681
     42630     42629     42679     42682     42631     42629     42679     42680
     42631     42629     42679     42681     42631     42629     42679     42682
     42632     42635     42638     42639     42632     42635     42638     42640
     42632     42635     42638     42641     42633     42632     42635     42636
     42633     42632     42635     42637     42633     42632     42635     42638
     42634     42632     42635     42636     42634     42632     42635     42637
     42634     42632     42635     42638     42635     42638     42641     42642
     42635     42638     42641     42643     42635     42638     42641     42644
     42636     42635     42638     42639     42636     42635     42638     42640
     42636     42635     42638     42641     42637     42635     42638     42639
     42637     42635     42638     42640     42637     42635     42638     42641
     42638     42641     42644     42645     42638     42641     42644     42646
     42638     42641     42644     42647     42639     42638     42641     42642
     42639     42638     42641     42643     42639     42638     42641     42644
     42640     42638     42641     42642     42640     42638     42641     42643
     42640     42638     42641     42644     42641     42644     42647     42648
     42641     42644     42647     42649     42641     42644     42647     42650
     42642     42641     42644     42645     42642     42641     42644     42646
     42642     42641     42644     42647     42643     42641     42644     42645
     42643     42641     42644     42646     42643     42641     42644     42647
     42644     42647     42650     42651     42644     42647     42650     42652
     42645     42644     42647     42648     42645     42644     42647     42649
     42645     42644     42647     42650     42646     42644     42647     42648
     42646     42644     42647     42649     42646     42644     42647     42650
     42647     42650     42652     42653     42647     42650     42652     42654
     42648     42647     42650     42651     42648     42647     42650     42652
     42649     42647     42650     42651     42649     42647     42650     42652
     42650     42652     42654     42655     42650     42652     42654     42656
     42650     42652     42654     42657     42651     42650     42652     42653
     42651     42650     42652     42654     42652     42654     42657     42658
     42652     42654     42657     42659     42652     42654     42657     42660
     42653     42652     42654     42655     42653     42652     42654     42656
     42653     42652     42654     42657     42654     42657     42660     42661
     42654     42657     42660     42662     42654     42657     42660     42663
     42655     42654     42657     42658     42655     42654     42657     42659
     42655     42654     42657     42660     42656     42654     42657     42658
     42656     42654     42657     42659     42656     42654     42657     42660
     42657     42660     42663     42664     42657     42660     42663     42665
     42657     42660     42663     42666     42658     42657     42660     42661
     42658     42657     42660     42662     42658     42657     42660     42663
     42659     42657     42660     42661     42659     42657     42660     42662
     42659     42657     42660     42663     42660     42663     42666     42667
     42660     42663     42666     42668     42660     42663     42666     42669
     42661     42660     42663     42664     42661     42660     42663     42665
     42661     42660     42663     42666     42662     42660     42663     42664
     42662     42660     42663     42665     42662     42660     42663     42666
     42663     42666     42669     42670     42663     42666     42669     42671
     42663     42666     42669     42672     42664     42663     42666     42667
     42664     42663     42666     42668     42664     42663     42666     42669
     42665     42663     42666     42667     42665     42663     42666     42668
     42665     42663     42666     42669     42666     42669     42672     42673
     42666     42669     42672     42674     42666     42669     42672     42675
     42667     42666     42669     42670     42667     42666     42669     42671
     42667     42666     42669     42672     42668     42666     42669     42670
     42668     42666     42669     42671     42668     42666     42669     42672
     42669     42672     42675     42676     42669     42672     42675     42677
     42669     42672     42675     42678     42670     42669     42672     42673
     42670     42669     42672     42674     42670     42669     42672     42675
     42671     42669     42672     42673     42671     42669     42672     42674
     42671     42669     42672     42675     42673     42672     42675     42676
     42673     42672     42675     42677     42673     42672     42675     42678
     42674     42672     42675     42676     42674     42672     42675     42677
     42674     42672     42675     42678     42679     42682     42685     42686
     42679     42682     42685     42687     42679     42682     42685     42688
     42680     42679     42682     42683     42680     42679     42682     42684
     42680     42679     42682     42685     42681     42679     42682     42683
     42681     42679     42682     42684     42681     42679     42682     42685
     42682     42685     42688     42689     42682     42685     42688     42690
     42682     42685     42688     42691     42683     42682     42685     42686
     42683     42682     42685     42687     42683     42682     42685     42688
     42684     42682     42685     42686     42684     42682     42685     42687
     42684     42682     42685     42688     42685     42688     42691     42692
     42685     42688     42691     42693     42685     42688     42691     42694
     42686     42685     42688     42689     42686     42685     42688     42690
     42686     42685     42688     42691     42687     42685     42688     42689
     42687     42685     42688     42690     42687     42685     42688     42691
     42688     42691     42694     42695     42688     42691     42694     42696
     42688     42691     42694     42697     42689     42688     42691     42692
     42689     42688     42691     42693     42689     42688     42691     42694
     42690     42688     42691     42692     42690     42688     42691     42693
     42690     42688     42691     42694     42691     42694     42697     42698
     42691     42694     42697     42699     42691     42694     42697     42700
     42692     42691     42694     42695     42692     42691     42694     42696
     42692     42691     42694     42697     42693     42691     42694     42695
     42693     42691     42694     42696     42693     42691     42694     42697
     42694     42697     42700     42701     42694     42697     42700     42702
     42694     42697     42700     42703     42695     42694     42697     42698
     42695     42694     42697     42699     42695     42694     42697     42700
     42696     42694     42697     42698     42696     42694     42697     42699
     42696     42694     42697     42700     42697     42700     42703     42704
     42697     42700     42703     42705     42697     42700     42703     42706
     42698     42697     42700     42701     42698     42697     42700     42702
     42698     42697     42700     42703     42699     42697     42700     42701
     42699     42697     42700     42702     42699     42697     42700     42703
     42700     42703     42706     42707     42700     42703     42706     42708
     42700     42703     42706     42709     42701     42700     42703     42704
     42701     42700     42703     42705     42701     42700     42703     42706
     42702     42700     42703     42704     42702     42700     42703     42705
     42702     42700     42703     42706     42703     42706     42709     42710
     42703     42706     42709     42711     42703     42706     42709     42712
     42704     42703     42706     42707     42704     42703     42706     42708
     42704     42703     42706     42709     42705     42703     42706     42707
     42705     42703     42706     42708     42705     42703     42706     42709
     42706     42709     42712     42713     42706     42709     42712     42714
     42706     42709     42712     42715     42707     42706     42709     42710
     42707     42706     42709     42711     42707     42706     42709     42712
     42708     42706     42709     42710     42708     42706     42709     42711
     42708     42706     42709     42712     42709     42712     42715     42716
     42709     42712     42715     42717     42709     42712     42715     42718
     42710     42709     42712     42713     42710     42709     42712     42714
     42710     42709     42712     42715     42711     42709     42712     42713
     42711     42709     42712     42714     42711     42709     42712     42715
     42712     42715     42718     42719     42712     42715     42718     42720
     42712     42715     42718     42721     42713     42712     42715     42716
     42713     42712     42715     42717     42713     42712     42715     42718
     42714     42712     42715     42716     42714     42712     42715     42717
     42714     42712     42715     42718     42716     42715     42718     42719
     42716     42715     42718     42720     42716     42715     42718     42721
     42717     42715     42718     42719     42717     42715     42718     42720
     42717     42715     42718     42721     42722     42726     42729     42730
     42722     42726     42729     42731     42722     42726     42729     42736
     42723     42722     42726     42727     42723     42722     42726     42728
     42723     42722     42726     42729     42724     42722     42726     42727
     42724     42722     42726     42728     42724     42722     42726     42729
     42725     42722     42726     42727     42725     42722     42726     42728
     42725     42722     42726     42729     42726     42729     42736     42732
     42727     42726     42729     42730     42727     42726     42729     42731
     42727     42726     42729     42736     42728     42726     42729     42730
     42728     42726     42729     42731     42728     42726     42729     42736
     42729     42736     42732     42733     42729     42736     42732     42734
     42729     42736     42732     42735     42730     42729     42736     42732
     42731     42729     42736     42732     42732     42735     42737     42738
     42732     42735     42737     42739     42732     42735     42737     42740
     42733     42732     42735     42737     42734     42732     42735     42737
     42735     42737     42740     42741     42735     42737     42740     42742
     42735     42737     42740     42748     42736     42732     42735     42737
     42737     42740     42742     42743     42737     42740     42748     42749
     42737     42740     42748     42750     42737     42740     42748     42751
     42738     42737     42740     42741     42738     42737     42740     42742
     42738     42737     42740     42748     42739     42737     42740     42741
     42739     42737     42740     42742     42739     42737     42740     42748
     42740     42742     42743     42744     42740     42742     42743     42745
     42740     42748     42751     42752     42741     42740     42742     42743
     42741     42740     42748     42749     42741     42740     42748     42750
     42741     42740     42748     42751     42742     42740     42748     42749
     42742     42740     42748     42750     42742     42740     42748     42751
     42742     42743     42745     42746     42742     42743     42745     42747
     42742     42743     42745     42757     42743     42742     42740     42748
     42743     42745     42757     42758     42743     42745     42757     42759
     42743     42745     42757     42760     42744     42743     42745     42746
     42744     42743     42745     42747     42744     42743     42745     42757
     42745     42757     42760     42761     42745     42757     42760     42762
     42745     42757     42760     42763     42746     42745     42757     42758
     42746     42745     42757     42759     42746     42745     42757     42760
     42747     42745     42757     42758     42747     42745     42757     42759
     42747     42745     42757     42760     42748     42751     42752     42753
     42748     42751     42752     42754     42749     42748     42751     42752
     42750     42748     42751     42752     42751     42752     42754     42755
     42751     42752     42754     42756     42751     42752     42754     42804
     42752     42754     42804     42805     42752     42754     42804     42806
     42752     42754     42804     42807     42753     42752     42754     42755
     42753     42752     42754     42756     42753     42752     42754     42804
     42754     42804     42807     42808     42754     42804     42807     42809
     42754     42804     42807     42810     42755     42754     42804     42805
     42755     42754     42804     42806     42755     42754     42804     42807
     42756     42754     42804     42805     42756     42754     42804     42806
     42756     42754     42804     42807     42757     42760     42763     42764
     42757     42760     42763     42765     42757     42760     42763     42766
     42758     42757     42760     42761     42758     42757     42760     42762
     42758     42757     42760     42763     42759     42757     42760     42761
     42759     42757     42760     42762     42759     42757     42760     42763
     42760     42763     42766     42767     42760     42763     42766     42768
     42760     42763     42766     42769     42761     42760     42763     42764
     42761     42760     42763     42765     42761     42760     42763     42766
     42762     42760     42763     42764     42762     42760     42763     42765
     42762     42760     42763     42766     42763     42766     42769     42770
     42763     42766     42769     42771     42763     42766     42769     42772
     42764     42763     42766     42767     42764     42763     42766     42768
     42764     42763     42766     42769     42765     42763     42766     42767
     42765     42763     42766     42768     42765     42763     42766     42769
     42766     42769     42772     42773     42766     42769     42772     42774
     42766     42769     42772     42775     42767     42766     42769     42770
     42767     42766     42769     42771     42767     42766     42769     42772
     42768     42766     42769     42770     42768     42766     42769     42771
     42768     42766     42769     42772     42769     42772     42775     42776
     42769     42772     42775     42777     42770     42769     42772     42773
     42770     42769     42772     42774     42770     42769     42772     42775
     42771     42769     42772     42773     42771     42769     42772     42774
     42771     42769     42772     42775     42772     42775     42777     42778
     42772     42775     42777     42779     42773     42772     42775     42776
     42773     42772     42775     42777     42774     42772     42775     42776
     42774     42772     42775     42777     42775     42777     42779     42780
     42775     42777     42779     42781     42775     42777     42779     42782
     42776     42775     42777     42778     42776     42775     42777     42779
     42777     42779     42782     42783     42777     42779     42782     42784
     42777     42779     42782     42785     42778     42777     42779     42780
     42778     42777     42779     42781     42778     42777     42779     42782
     42779     42782     42785     42786     42779     42782     42785     42787
     42779     42782     42785     42788     42780     42779     42782     42783
     42780     42779     42782     42784     42780     42779     42782     42785
     42781     42779     42782     42783     42781     42779     42782     42784
     42781     42779     42782     42785     42782     42785     42788     42789
     42782     42785     42788     42790     42782     42785     42788     42791
     42783     42782     42785     42786     42783     42782     42785     42787
     42783     42782     42785     42788     42784     42782     42785     42786
     42784     42782     42785     42787     42784     42782     42785     42788
     42785     42788     42791     42792     42785     42788     42791     42793
     42785     42788     42791     42794     42786     42785     42788     42789
     42786     42785     42788     42790     42786     42785     42788     42791
     42787     42785     42788     42789     42787     42785     42788     42790
     42787     42785     42788     42791     42788     42791     42794     42795
     42788     42791     42794     42796     42788     42791     42794     42797
     42789     42788     42791     42792     42789     42788     42791     42793
     42789     42788     42791     42794     42790     42788     42791     42792
     42790     42788     42791     42793     42790     42788     42791     42794
     42791     42794     42797     42798     42791     42794     42797     42799
     42791     42794     42797     42800     42792     42791     42794     42795
     42792     42791     42794     42796     42792     42791     42794     42797
     42793     42791     42794     42795     42793     42791     42794     42796
     42793     42791     42794     42797     42794     42797     42800     42801
     42794     42797     42800     42802     42794     42797     42800     42803
     42795     42794     42797     42798     42795     42794     42797     42799
     42795     42794     42797     42800     42796     42794     42797     42798
     42796     42794     42797     42799     42796     42794     42797     42800
     42798     42797     42800     42801     42798     42797     42800     42802
     42798     42797     42800     42803     42799     42797     42800     42801
     42799     42797     42800     42802     42799     42797     42800     42803
     42804     42807     42810     42811     42804     42807     42810     42812
     42804     42807     42810     42813     42805     42804     42807     42808
     42805     42804     42807     42809     42805     42804     42807     42810
     42806     42804     42807     42808     42806     42804     42807     42809
     42806     42804     42807     42810     42807     42810     42813     42814
     42807     42810     42813     42815     42807     42810     42813     42816
     42808     42807     42810     42811     42808     42807     42810     42812
     42808     42807     42810     42813     42809     42807     42810     42811
     42809     42807     42810     42812     42809     42807     42810     42813
     42810     42813     42816     42817     42810     42813     42816     42818
     42810     42813     42816     42819     42811     42810     42813     42814
     42811     42810     42813     42815     42811     42810     42813     42816
     42812     42810     42813     42814     42812     42810     42813     42815
     42812     42810     42813     42816     42813     42816     42819     42820
     42813     42816     42819     42821     42813     42816     42819     42822
     42814     42813     42816     42817     42814     42813     42816     42818
     42814     42813     42816     42819     42815     42813     42816     42817
     42815     42813     42816     42818     42815     42813     42816     42819
     42816     42819     42822     42823     42816     42819     42822     42824
     42816     42819     42822     42825     42817     42816     42819     42820
     42817     42816     42819     42821     42817     42816     42819     42822
     42818     42816     42819     42820     42818     42816     42819     42821
     42818     42816     42819     42822     42819     42822     42825     42826
     42819     42822     42825     42827     42819     42822     42825     42828
     42820     42819     42822     42823     42820     42819     42822     42824
     42820     42819     42822     42825     42821     42819     42822     42823
     42821     42819     42822     42824     42821     42819     42822     42825
     42822     42825     42828     42829     42822     42825     42828     42830
     42822     42825     42828     42831     42823     42822     42825     42826
     42823     42822     42825     42827     42823     42822     42825     42828
     42824     42822     42825     42826     42824     42822     42825     42827
     42824     42822     42825     42828     42825     42828     42831     42832
     42825     42828     42831     42833     42825     42828     42831     42834
     42826     42825     42828     42829     42826     42825     42828     42830
     42826     42825     42828     42831     42827     42825     42828     42829
     42827     42825     42828     42830     42827     42825     42828     42831
     42828     42831     42834     42835     42828     42831     42834     42836
     42828     42831     42834     42837     42829     42828     42831     42832
     42829     42828     42831     42833     42829     42828     42831     42834
     42830     42828     42831     42832     42830     42828     42831     42833
     42830     42828     42831     42834     42831     42834     42837     42838
     42831     42834     42837     42839     42831     42834     42837     42840
     42832     42831     42834     42835     42832     42831     42834     42836
     42832     42831     42834     42837     42833     42831     42834     42835
     42833     42831     42834     42836     42833     42831     42834     42837
     42834     42837     42840     42841     42834     42837     42840     42842
     42834     42837     42840     42843     42835     42834     42837     42838
     42835     42834     42837     42839     42835     42834     42837     42840
     42836     42834     42837     42838     42836     42834     42837     42839
     42836     42834     42837     42840     42837     42840     42843     42844
     42837     42840     42843     42845     42837     42840     42843     42846
     42838     42837     42840     42841     42838     42837     42840     42842
     42838     42837     42840     42843     42839     42837     42840     42841
     42839     42837     42840     42842     42839     42837     42840     42843
     42841     42840     42843     42844     42841     42840     42843     42845
     42841     42840     42843     42846     42842     42840     42843     42844
     42842     42840     42843     42845     42842     42840     42843     42846

       584 !NIMPHI: impropers
      2843      2842      2845      2844      2852      2851      2854      2853
      2977      2976      2979      2978      2986      2985      2988      2987
      3111      3110      3113      3112      3120      3119      3122      3121
      3245      3244      3247      3246      3254      3253      3256      3255
      3379      3378      3381      3380      3388      3387      3390      3389
      3504      3503      3506      3505      3513      3512      3515      3514
      3638      3637      3640      3639      3647      3646      3649      3648
      3763      3762      3765      3764      3772      3771      3774      3773
      3888      3887      3890      3889      3897      3896      3899      3898
      4013      4012      4015      4014      4022      4021      4024      4023
      4147      4146      4149      4148      4156      4155      4158      4157
      4281      4280      4283      4282      4290      4289      4292      4291
      4415      4414      4417      4416      4424      4423      4426      4425
      4549      4548      4551      4550      4558      4557      4560      4559
      4683      4682      4685      4684      4692      4691      4694      4693
      4817      4816      4819      4818      4826      4825      4828      4827
      4942      4941      4944      4943      4951      4950      4953      4952
      5067      5066      5069      5068      5076      5075      5078      5077
      5201      5200      5203      5202      5210      5209      5212      5211
      5326      5325      5328      5327      5335      5334      5337      5336
      5451      5450      5453      5452      5460      5459      5462      5461
      5585      5584      5587      5586      5594      5593      5596      5595
      5719      5718      5721      5720      5728      5727      5730      5729
      5853      5852      5855      5854      5862      5861      5864      5863
      5987      5986      5989      5988      5996      5995      5998      5997
      6112      6111      6114      6113      6121      6120      6123      6122
      6237      6236      6239      6238      6246      6245      6248      6247
      6362      6361      6364      6363      6371      6370      6373      6372
      6496      6495      6498      6497      6505      6504      6507      6506
      6630      6629      6632      6631      6639      6638      6641      6640
      6755      6754      6757      6756      6764      6763      6766      6765
      6880      6879      6882      6881      6889      6888      6891      6890
      7014      7013      7016      7015      7023      7022      7025      7024
      7139      7138      7141      7140      7148      7147      7150      7149
      7273      7272      7275      7274      7282      7281      7284      7283
      7407      7406      7409      7408      7416      7415      7418      7417
      7541      7540      7543      7542      7550      7549      7552      7551
      7675      7674      7677      7676      7684      7683      7686      7685
      7809      7808      7811      7810      7818      7817      7820      7819
      7943      7942      7945      7944      7952      7951      7954      7953
      8068      8067      8070      8069      8077      8076      8079      8078
      8193      8192      8195      8194      8202      8201      8204      8203
      8327      8326      8329      8328      8336      8335      8338      8337
      8452      8451      8454      8453      8461      8460      8463      8462
      8577      8576      8579      8578      8586      8585      8588      8587
      8702      8701      8704      8703      8711      8710      8713      8712
      8836      8835      8838      8837      8845      8844      8847      8846
      8961      8960      8963      8962      8970      8969      8972      8971
      9095      9094      9097      9096      9104      9103      9106      9105
      9220      9219      9222      9221      9229      9228      9231      9230
      9345      9344      9347      9346      9354      9353      9356      9355
      9479      9478      9481      9480      9488      9487      9490      9489
      9604      9603      9606      9605      9613      9612      9615      9614
      9729      9728      9731      9730      9738      9737      9740      9739
      9863      9862      9865      9864      9872      9871      9874      9873
      9988      9987      9990      9989      9997      9996      9999      9998
     10113     10112     10115     10114     10122     10121     10124     10123
     10247     10246     10249     10248     10256     10255     10258     10257
     10372     10371     10374     10373     10381     10380     10383     10382
     10497     10496     10499     10498     10506     10505     10508     10507
     10631     10630     10633     10632     10640     10639     10642     10641
     10756     10755     10758     10757     10765     10764     10767     10766
     10890     10889     10892     10891     10899     10898     10901     10900
     11015     11014     11017     11016     11024     11023     11026     11025
     11140     11139     11142     11141     11149     11148     11151     11150
     11274     11273     11276     11275     11283     11282     11285     11284
     11408     11407     11410     11409     11417     11416     11419     11418
     11542     11541     11544     11543     11551     11550     11553     11552
     11667     11666     11669     11668     11676     11675     11678     11677
     11801     11800     11803     11802     11810     11809     11812     11811
     11935     11934     11937     11936     11944     11943     11946     11945
     12060     12059     12062     12061     12069     12068     12071     12070
     12185     12184     12187     12186     12194     12193     12196     12195
     12319     12318     12321     12320     12328     12327     12330     12329
     12453     12452     12455     12454     12462     12461     12464     12463
     12587     12586     12589     12588     12596     12595     12598     12597
     12712     12711     12714     12713     12721     12720     12723     12722
     12846     12845     12848     12847     12855     12854     12857     12856
     12971     12970     12973     12972     12980     12979     12982     12981
     13096     13095     13098     13097     13105     13104     13107     13106
     13230     13229     13232     13231     13239     13238     13241     13240
     13355     13354     13357     13356     13364     13363     13366     13365
     13480     13479     13482     13481     13489     13488     13491     13490
     13605     13604     13607     13606     13614     13613     13616     13615
     13730     13729     13732     13731     13739     13738     13741     13740
     13855     13854     13857     13856     13864     13863     13866     13865
     13980     13979     13982     13981     13989     13988     13991     13990
     14105     14104     14107     14106     14114     14113     14116     14115
     14230     14229     14232     14231     14239     14238     14241     14240
     14355     14354     14357     14356     14364     14363     14366     14365
     14480     14479     14482     14481     14489     14488     14491     14490
     14614     14613     14616     14615     14623     14622     14625     14624
     14739     14738     14741     14740     14748     14747     14750     14749
     14873     14872     14875     14874     14882     14881     14884     14883
     15007     15006     15009     15008     15016     15015     15018     15017
     15132     15131     15134     15133     15141     15140     15143     15142
     15257     15256     15259     15258     15266     15265     15268     15267
     15382     15381     15384     15383     15391     15390     15393     15392
     15516     15515     15518     15517     15525     15524     15527     15526
     15641     15640     15643     15642     15650     15649     15652     15651
     15766     15765     15768     15767     15775     15774     15777     15776
     15891     15890     15893     15892     15900     15899     15902     15901
     16016     16015     16018     16017     16025     16024     16027     16026
     16150     16149     16152     16151     16159     16158     16161     16160
     16284     16283     16286     16285     16293     16292     16295     16294
     16409     16408     16411     16410     16418     16417     16420     16419
     16543     16542     16545     16544     16552     16551     16554     16553
     16677     16676     16679     16678     16686     16685     16688     16687
     16811     16810     16813     16812     16820     16819     16822     16821
     16945     16944     16947     16946     16954     16953     16956     16955
     17070     17069     17072     17071     17079     17078     17081     17080
     17204     17203     17206     17205     17213     17212     17215     17214
     17329     17328     17331     17330     17338     17337     17340     17339
     17454     17453     17456     17455     17463     17462     17465     17464
     17588     17587     17590     17589     17597     17596     17599     17598
     17722     17721     17724     17723     17731     17730     17733     17732
     17847     17846     17849     17848     17856     17855     17858     17857
     17972     17971     17974     17973     17981     17980     17983     17982
     18106     18105     18108     18107     18115     18114     18117     18116
     18240     18239     18242     18241     18249     18248     18251     18250
     18374     18373     18376     18375     18383     18382     18385     18384
     18508     18507     18510     18509     18517     18516     18519     18518
     18633     18632     18635     18634     18642     18641     18644     18643
     18758     18757     18760     18759     18767     18766     18769     18768
     18883     18882     18885     18884     18892     18891     18894     18893
     19008     19007     19010     19009     19017     19016     19019     19018
     19142     19141     19144     19143     19151     19150     19153     19152
     19276     19275     19278     19277     19285     19284     19287     19286
     19401     19400     19403     19402     19410     19409     19412     19411
     19535     19534     19537     19536     19544     19543     19546     19545
     19669     19668     19671     19670     19678     19677     19680     19679
     19794     19793     19796     19795     19803     19802     19805     19804
     19919     19918     19921     19920     19928     19927     19930     19929
     20053     20052     20055     20054     20062     20061     20064     20063
     20187     20186     20189     20188     20196     20195     20198     20197
     20312     20311     20314     20313     20321     20320     20323     20322
     20446     20445     20448     20447     20455     20454     20457     20456
     20580     20579     20582     20581     20589     20588     20591     20590
     20714     20713     20716     20715     20723     20722     20725     20724
     20839     20838     20841     20840     20848     20847     20850     20849
     23193     23192     23195     23194     23202     23201     23204     23203
     23327     23326     23329     23328     23336     23335     23338     23337
     23461     23460     23463     23462     23470     23469     23472     23471
     23595     23594     23597     23596     23604     23603     23606     23605
     23720     23719     23722     23721     23729     23728     23731     23730
     23854     23853     23856     23855     23863     23862     23865     23864
     23988     23987     23990     23989     23997     23996     23999     23998
     24113     24112     24115     24114     24122     24121     24124     24123
     24238     24237     24240     24239     24247     24246     24249     24248
     24363     24362     24365     24364     24372     24371     24374     24373
     24497     24496     24499     24498     24506     24505     24508     24507
     24622     24621     24624     24623     24631     24630     24633     24632
     24747     24746     24749     24748     24756     24755     24758     24757
     24881     24880     24883     24882     24890     24889     24892     24891
     25015     25014     25017     25016     25024     25023     25026     25025
     25140     25139     25142     25141     25149     25148     25151     25150
     25274     25273     25276     25275     25283     25282     25285     25284
     25399     25398     25401     25400     25408     25407     25410     25409
     25533     25532     25535     25534     25542     25541     25544     25543
     25667     25666     25669     25668     25676     25675     25678     25677
     25792     25791     25794     25793     25801     25800     25803     25802
     25917     25916     25919     25918     25926     25925     25928     25927
     26042     26041     26044     26043     26051     26050     26053     26052
     26176     26175     26178     26177     26185     26184     26187     26186
     26310     26309     26312     26311     26319     26318     26321     26320
     26435     26434     26437     26436     26444     26443     26446     26445
     26560     26559     26562     26561     26569     26568     26571     26570
     26685     26684     26687     26686     26694     26693     26696     26695
     26810     26809     26812     26811     26819     26818     26821     26820
     26944     26943     26946     26945     26953     26952     26955     26954
     27078     27077     27080     27079     27087     27086     27089     27088
     27212     27211     27214     27213     27221     27220     27223     27222
     27346     27345     27348     27347     27355     27354     27357     27356
     27480     27479     27482     27481     27489     27488     27491     27490
     27605     27604     27607     27606     27614     27613     27616     27615
     27730     27729     27732     27731     27739     27738     27741     27740
     27855     27854     27857     27856     27864     27863     27866     27865
     27989     27988     27991     27990     27998     27997     28000     27999
     28123     28122     28125     28124     28132     28131     28134     28133
     28248     28247     28250     28249     28257     28256     28259     28258
     28373     28372     28375     28374     28382     28381     28384     28383
     28498     28497     28500     28499     28507     28506     28509     28508
     28623     28622     28625     28624     28632     28631     28634     28633
     28748     28747     28750     28749     28757     28756     28759     28758
     28882     28881     28884     28883     28891     28890     28893     28892
     29016     29015     29018     29017     29025     29024     29027     29026
     29141     29140     29143     29142     29150     29149     29152     29151
     29275     29274     29277     29276     29284     29283     29286     29285
     29409     29408     29411     29410     29418     29417     29420     29419
     29543     29542     29545     29544     29552     29551     29554     29553
     29677     29676     29679     29678     29686     29685     29688     29687
     29811     29810     29813     29812     29820     29819     29822     29821
     29945     29944     29947     29946     29954     29953     29956     29955
     30079     30078     30081     30080     30088     30087     30090     30089
     30213     30212     30215     30214     30222     30221     30224     30223
     30347     30346     30349     30348     30356     30355     30358     30357
     30481     30480     30483     30482     30490     30489     30492     30491
     30615     30614     30617     30616     30624     30623     30626     30625
     30749     30748     30751     30750     30758     30757     30760     30759
     30883     30882     30885     30884     30892     30891     30894     30893
     31008     31007     31010     31009     31017     31016     31019     31018
     31133     31132     31135     31134     31142     31141     31144     31143
     31258     31257     31260     31259     31267     31266     31269     31268
     31392     31391     31394     31393     31401     31400     31403     31402
     31526     31525     31528     31527     31535     31534     31537     31536
     31651     31650     31653     31652     31660     31659     31662     31661
     31785     31784     31787     31786     31794     31793     31796     31795
     31919     31918     31921     31920     31928     31927     31930     31929
     32044     32043     32046     32045     32053     32052     32055     32054
     32178     32177     32180     32179     32187     32186     32189     32188
     32303     32302     32305     32304     32312     32311     32314     32313
     32428     32427     32430     32429     32437     32436     32439     32438
     32553     32552     32555     32554     32562     32561     32564     32563
     32687     32686     32689     32688     32696     32695     32698     32697
     32812     32811     32814     32813     32821     32820     32823     32822
     32946     32945     32948     32947     32955     32954     32957     32956
     33071     33070     33073     33072     33080     33079     33082     33081
     33205     33204     33207     33206     33214     33213     33216     33215
     33330     33329     33332     33331     33339     33338     33341     33340
     33455     33454     33457     33456     33464     33463     33466     33465
     33580     33579     33582     33581     33589     33588     33591     33590
     33714     33713     33716     33715     33723     33722     33725     33724
     33848     33847     33850     33849     33857     33856     33859     33858
     33973     33972     33975     33974     33982     33981     33984     33983
     34098     34097     34100     34099     34107     34106     34109     34108
     34232     34231     34234     34233     34241     34240     34243     34242
     34357     34356     34359     34358     34366     34365     34368     34367
     34491     34490     34493     34492     34500     34499     34502     34501
     34625     34624     34627     34626     34634     34633     34636     34635
     34759     34758     34761     34760     34768     34767     34770     34769
     34893     34892     34895     34894     34902     34901     34904     34903
     35018     35017     35020     35019     35027     35026     35029     35028
     35143     35142     35145     35144     35152     35151     35154     35153
     35268     35267     35270     35269     35277     35276     35279     35278
     35393     35392     35395     35394     35402     35401     35404     35403
     35527     35526     35529     35528     35536     35535     35538     35537
     35652     35651     35654     35653     35661     35660     35663     35662
     35786     35785     35788     35787     35795     35794     35797     35796
     35911     35910     35913     35912     35920     35919     35922     35921
     36036     36035     36038     36037     36045     36044     36047     36046
     36161     36160     36163     36162     36170     36169     36172     36171
     36286     36285     36288     36287     36295     36294     36297     36296
     36411     36410     36413     36412     36420     36419     36422     36421
     36545     36544     36547     36546     36554     36553     36556     36555
     36670     36669     36672     36671     36679     36678     36681     36680
     36795     36794     36797     36796     36804     36803     36806     36805
     36920     36919     36922     36921     36929     36928     36931     36930
     37045     37044     37047     37046     37054     37053     37056     37055
     37179     37178     37181     37180     37188     37187     37190     37189
     37304     37303     37306     37305     37313     37312     37315     37314
     37438     37437     37440     37439     37447     37446     37449     37448
     37572     37571     37574     37573     37581     37580     37583     37582
     37706     37705     37708     37707     37715     37714     37717     37716
     37840     37839     37842     37841     37849     37848     37851     37850
     37974     37973     37976     37975     37983     37982     37985     37984
     38099     38098     38101     38100     38108     38107     38110     38109
     38224     38223     38226     38225     38233     38232     38235     38234
     38358     38357     38360     38359     38367     38366     38369     38368
     38492     38491     38494     38493     38501     38500     38503     38502
     38626     38625     38628     38627     38635     38634     38637     38636
     38760     38759     38762     38761     38769     38768     38771     38770
     38885     38884     38887     38886     38894     38893     38896     38895
     39019     39018     39021     39020     39028     39027     39030     39029
     39144     39143     39146     39145     39153     39152     39155     39154
     39269     39268     39271     39270     39278     39277     39280     39279
     39394     39393     39396     39395     39403     39402     39405     39404
     39519     39518     39521     39520     39528     39527     39530     39529
     39653     39652     39655     39654     39662     39661     39664     39663
     39787     39786     39789     39788     39796     39795     39798     39797
     39921     39920     39923     39922     39930     39929     39932     39931
     40055     40054     40057     40056     40064     40063     40066     40065
     40180     40179     40182     40181     40189     40188     40191     40190
     40305     40304     40307     40306     40314     40313     40316     40315
     40439     40438     40441     40440     40448     40447     40450     40449
     40564     40563     40566     40565     40573     40572     40575     40574
     40689     40688     40691     40690     40698     40697     40700     40699
     40823     40822     40825     40824     40832     40831     40834     40833
     40957     40956     40959     40958     40966     40965     40968     40967
     41082     41081     41084     41083     41091     41090     41093     41092
     41216     41215     41218     41217     41225     41224     41227     41226
     41350     41349     41352     41351     41359     41358     41361     41360
     41475     41474     41477     41476     41484     41483     41486     41485
     41600     41599     41602     41601     41609     41608     41611     41610
     41734     41733     41736     41735     41743     41742     41745     41744
     41859     41858     41861     41860     41868     41867     41870     41869
     41993     41992     41995     41994     42002     42001     42004     42003
     42118     42117     42120     42119     42127     42126     42129     42128
     42243     42242     42245     42244     42252     42251     42254     42253
     42368     42367     42370     42369     42377     42376     42379     42378
     42493     42492     42495     42494     42502     42501     42504     42503
     42618     42617     42620     42619     42627     42626     42629     42628
     42743     42742     42745     42744     42752     42751     42754     42753

         0 !NDON: donors


         0 !NACC: acceptors


         0 !NNB

         0         0         0         0         0         0         0         0
         0         0         0         0         0         0         0         0
         0         0         0         0         0         0         0         0
         0         0         0         0         0         0         0         0
         0         0         0         0         0         0         0         0
         0         0         0         0         0         0         0         0
         0         0         0         0         0         0         0         0
         0         0         0         0         0         0         0         0
         0         0         0         0         0         0         0         0
         0         0         0         0         0         0         0         0
         0         0         0         0         0         0         0         0
         0         0         0         0         0         0         0         0
         0         0         0         0         0         0         0         0
         0         0         0         0         0         0         0         0
         0         0         0         0         0         0         0         0
         0         0         0         0         0         0         0         0
         0         0         0         0         0         0         0         0
         0         0         0         0         0         0         0         0
         0         0         0         0         0         0         0         0
         0         0         0         0         0         0         0         0
         0         0         0         0         0         0         0         0
         0         0         0         0         0         0         0         0
         0         0         0         0         0         0         0         0
         0         0         0         0         0         0         0         0
         0         0         0         0         0         0         0         0
         0         0         0         0         0         0         0         0
         0         0         0         0         0         0         0         0
         0         0         0         0         0         0         0         0
         0         0         0         0         0         0         0         0
         0         0         0         0         0         0         0         0
         0         0         0         0         0         0         0         0
         0         0         0         0         0         0         0         0
         0         0         0         0         0         0         0         0
         0         0         0         0         0         0         0         0
         0         0         0         0         0         0         0         0
         0         0         0         0         0         0         0         0
         0         0         0         0         0         0         0         0
         0         0         0         0         0         0         0         0
         0         0         0         0         0         0         0         0
         0         0         0         0         0         0         0         0
         0         0         0         0         0         0         0         0
         0         0         0         0         0         0         0         0
         0         0         0         0         0         0         0         0
         0         0         0         0         0         0         0         0
         0         0         0         0         0         0         0         0
         0         0         0         0         0         0         0         0
         0         0         0         0         0         0         0         0
         0         0         0         0         0         0         0         0
         0         0         0         0         0         0         0         0
         0         0         0         0         0         0         0         0
         0         0         0         0         0         0         0         0
         0         0         0         0         0         0         0         0
         0         0         0         0         0         0         0         0
         0         0         0         0         0         0         0         0
         0         0         0         0         0         0         0         0
         0         0         0         0         0         0         0         0
         0         0         0         0         0         0         0         0
         0         0         0         0         0         0         0         0
         0         0         0         0         0         0         0         0
         0         0         0         0         0         0         0         0
         0         0         0         0         0         0         0         0
         0         0         0         0         0         0         0         0
         0         0         0         0         0         0         0         0
         0         0         0         0         0         0         0         0
         0         0         0         0         0         0         0         0
         0         0         0         0         0         0         0         0
         0         0         0         0         0         0         0         0
         0         0         0         0         0         0         0         0
         0         0         0         0         0         0         0         0
         0         0         0         0         0         0         0         0
         0         0         0         0         0         0         0         0
         0         0         0         0         0         0         0         0
         0         0         0         0         0         0         0         0
         0         0         0         0         0         0         0         0
         0         0         0         0         0         0         0         0
         0         0         0         0         0         0         0         0
         0         0         0         0         0         0         0         0
         0         0         0         0         0         0         0         0
         0         0         0         0         0         0         0         0
         0         0         0         0         0         0         0         0
         0         0         0         0         0         0         0         0
         0         0         0         0         0         0         0         0
         0         0         0         0         0         0         0         0
         0         0         0         0         0         0         0         0
         0         0         0         0         0         0         0         0
         0         0         0         0         0         0         0         0
         0         0         0         0         0         0         0         0
         0         0         0         0         0         0         0         0
         0         0         0         0         0         0         0         0
         0         0         0         0         0         0         0         0
         0         0         0         0         0         0         0         0
         0         0         0         0         0         0         0         0
         0         0         0         0         0         0         0         0
         0         0         0         0         0         0         0         0
         0         0         0         0         0         0         0         0
         0         0         0         0         0         0         0         0
         0         0         0         0         0         0         0         0
         0         0         0         0         0         0         0         0
         0         0         0         0         0         0         0         0
         0         0         0         0         0         0         0         0
         0         0         0         0         0         0         0         0
         0         0         0         0         0         0         0         0
         0         0         0         0         0         0         0         0
         0         0         0         0         0         0         0         0
         0         0         0         0         0         0         0         0
         0         0         0         0         0         0         0         0
         0         0         0         0         0         0         0         0
         0         0         0         0         0         0         0         0
         0         0         0         0         0         0         0         0
         0         0         0         0         0         0         0         0
         0         0         0         0         0         0         0         0
         0         0         0         0         0         0         0         0
         0         0         0         0         0         0         0         0
         0         0         0         0         0         0         0         0
         0         0         0         0         0         0         0         0
         0         0         0         0         0         0         0         0
         0         0         0         0         0         0         0         0
         0         0         0         0         0         0         0         0
         0         0         0         0         0         0         0         0
         0         0         0         0         0         0         0         0
         0         0         0         0         0         0         0         0
         0         0         0         0         0         0         0         0
         0         0         0         0         0         0         0         0
         0         0         0         0         0         0         0         0
         0         0         0         0         0         0         0         0
         0         0         0         0         0         0         0         0
         0         0         0         0         0         0         0         0
         0         0         0         0         0         0         0         0
         0         0         0         0         0         0         0         0
         0         0         0         0         0         0         0         0
         0         0         0         0         0         0         0         0
         0         0         0         0         0         0         0         0
         0         0         0         0         0         0         0         0
         0         0         0         0         0         0         0         0
         0         0         0         0         0         0         0         0
         0         0         0         0         0         0         0         0
         0         0         0         0         0         0         0         0
         0         0         0         0         0         0         0         0
         0         0         0         0         0         0         0         0
         0         0         0         0         0         0         0         0
         0         0         0         0         0         0         0         0
         0         0         0         0         0         0         0         0
         0         0         0         0         0         0         0         0
         0         0         0         0         0         0         0         0
         0         0         0         0         0         0         0         0
         0         0         0         0         0         0         0         0
         0         0         0         0         0         0         0         0
         0         0         0         0         0         0         0         0
         0         0         0         0         0         0         0         0
         0         0         0         0         0         0         0         0
         0         0         0         0         0         0         0         0
         0         0         0         0         0         0         0         0
         0         0         0         0         0         0         0         0
         0         0         0         0         0         0         0         0
         0         0         0         0         0         0         0         0
         0         0         0         0         0         0         0         0
         0         0         0         0         0         0         0         0
         0         0         0         0         0         0         0         0
         0         0         0         0         0         0         0         0
         0         0         0         0         0         0         0         0
         0         0         0         0         0         0         0         0
         0         0         0         0         0         0         0         0
         0         0         0         0         0         0         0         0
         0         0         0         0         0         0         0         0
         0         0         0         0         0         0         0         0
         0         0         0         0         0         0         0         0
         0         0         0         0         0         0         0         0
         0         0         0         0         0         0         0         0
         0         0         0         0         0         0         0         0
         0         0         0         0         0         0         0         0
         0         0         0         0         0         0         0         0
         0         0         0         0         0         0         0         0
         0         0         0         0         0         0         0         0
         0         0         0         0         0         0         0         0
         0         0         0         0         0         0         0         0
         0         0         0         0         0         0         0         0
         0         0         0         0         0         0         0         0
         0         0         0         0         0         0         0         0
         0         0         0         0         0         0         0         0
         0         0         0         0         0         0         0         0
         0         0         0         0         0         0         0         0
         0         0         0         0         0         0         0         0
         0         0         0         0         0         0         0         0
         0         0         0         0         0         0         0         0
         0         0         0         0         0         0         0         0
         0         0         0         0         0         0         0         0
         0         0         0         0         0         0         0         0
         0         0         0         0         0         0         0         0
         0         0         0         0         0         0         0         0
         0         0         0         0         0         0         0         0
         0         0         0         0         0         0         0         0
         0         0         0         0         0         0         0         0
         0         0         0         0         0         0         0         0
         0         0         0         0         0         0         0         0
         0         0         0         0         0         0         0         0
         0         0         0         0         0         0         0         0
         0         0         0         0         0         0         0         0
         0         0         0         0         0         0         0         0
         0         0         0         0         0         0         0         0
         0         0         0         0         0         0         0         0
         0         0         0         0         0         0         0         0
         0         0         0         0         0         0         0         0
         0         0         0         0         0         0         0         0
         0         0         0         0         0         0         0         0
         0         0         0         0         0         0         0         0
         0         0         0         0         0         0         0         0
         0         0         0         0         0         0         0         0
         0         0         0         0         0         0         0         0
         0         0         0         0         0         0         0         0
         0         0         0         0         0         0         0         0
         0         0         0         0         0         0         0         0
         0         0         0         0         0         0         0         0
         0         0         0         0         0         0         0         0
         0         0         0         0         0         0         0         0
         0         0         0         0         0         0         0         0
         0         0         0         0         0         0         0         0
         0         0         0         0         0         0         0         0
         0         0         0         0         0         0         0         0
         0         0         0         0         0         0         0         0
         0         0         0         0         0         0         0         0
         0         0         0         0         0         0         0         0
         0         0         0         0         0         0         0         0
         0         0         0         0         0         0         0         0
         0         0         0         0         0         0         0         0
         0         0         0         0         0         0         0         0
         0         0         0         0         0         0         0         0
         0         0         0         0         0         0         0         0
         0         0         0         0         0         0         0         0
         0         0         0         0         0         0         0         0
         0         0         0         0         0         0         0         0
         0         0         0         0         0         0         0         0
         0         0         0         0         0         0         0         0
         0         0         0         0         0         0         0         0
         0         0         0         0         0         0         0         0
         0         0         0         0         0         0         0         0
         0         0         0         0         0         0         0         0
         0         0         0         0         0         0         0         0
         0         0         0         0         0         0         0         0
         0         0         0         0         0         0         0         0
         0         0         0         0         0         0         0         0
         0         0         0         0         0         0         0         0
         0         0         0         0         0         0         0         0
         0         0         0         0         0         0         0         0
         0         0         0         0         0         0         0         0
         0         0         0         0         0         0         0         0
         0         0         0         0         0         0         0         0
         0         0         0         0         0         0         0         0
         0         0         0         0         0         0         0         0
         0         0         0         0         0         0         0         0
         0         0         0         0         0         0         0         0
         0         0         0         0         0         0         0         0
         0         0         0         0         0         0         0         0
         0         0         0         0         0         0         0         0
         0         0         0         0         0         0         0         0
         0         0         0         0         0         0         0         0
         0         0         0         0         0         0         0         0
         0         0         0         0         0         0         0         0
         0         0         0         0         0         0         0         0
         0         0         0         0         0         0         0         0
         0         0         0         0         0         0         0         0
         0         0         0         0         0         0         0         0
         0         0         0         0         0         0         0         0
         0         0         0         0         0         0         0         0
         0         0         0         0         0         0         0         0
         0         0         0         0         0         0         0         0
         0         0         0         0         0         0         0         0
         0         0         0         0         0         0         0         0
         0         0         0         0         0         0         0         0
         0         0         0         0         0         0         0         0
         0         0         0         0         0         0         0         0
         0         0         0         0         0         0         0         0
         0         0         0         0         0         0         0         0
         0         0         0         0         0         0         0         0
         0         0         0         0         0         0         0         0
         0         0         0         0         0         0         0         0
         0         0         0         0         0         0         0         0
         0         0         0         0         0         0         0         0
         0         0         0         0         0         0         0         0
         0         0         0         0         0         0         0         0
         0         0         0         0         0         0         0         0
         0         0         0         0         0         0         0         0
         0         0         0         0         0         0         0         0
         0         0         0         0         0         0         0         0
         0         0         0         0         0         0         0         0
         0         0         0         0         0         0         0         0
         0         0         0         0         0         0         0         0
         0         0         0         0         0         0         0         0
         0         0         0         0         0         0         0         0
         0         0         0         0         0         0         0         0
         0         0         0         0         0         0         0         0
         0         0         0         0         0         0         0         0
         0         0         0         0         0         0         0         0
         0         0         0         0         0         0         0         0
         0         0         0         0         0         0         0         0
         0         0         0         0         0         0         0         0
         0         0         0         0         0         0         0         0
         0         0         0         0         0         0         0         0
         0         0         0         0         0         0         0         0
         0         0         0         0         0         0         0         0
         0         0         0         0         0         0         0         0
         0         0         0         0         0         0         0         0
         0         0         0         0         0         0         0         0
         0         0         0         0         0         0         0         0
         0         0         0         0         0         0         0         0
         0         0         0         0         0         0         0         0
         0         0         0         0         0         0         0         0
         0         0         0         0         0         0         0         0
         0         0         0         0         0         0         0         0
         0         0         0         0         0         0         0         0
         0         0         0         0         0         0         0         0
         0         0         0         0         0         0         0         0
         0         0         0         0         0         0         0         0
         0         0         0         0         0         0         0         0
         0         0         0         0         0         0         0         0
         0         0         0         0         0         0         0         0
         0         0         0         0         0         0         0         0
         0         0         0         0         0         0         0         0
         0         0         0         0         0         0         0         0
         0         0         0         0         0         0         0         0
         0         0         0         0         0         0         0         0
         0         0         0         0         0         0         0         0
         0         0         0         0         0         0         0         0
         0         0         0         0         0         0         0         0
         0         0         0         0         0         0         0         0
         0         0         0         0         0         0         0         0
         0         0         0         0         0         0         0         0
         0         0         0         0         0         0         0         0
         0         0         0         0         0         0         0         0
         0         0         0         0         0         0         0         0
         0         0         0         0         0         0         0         0
         0         0         0         0         0         0         0         0
         0         0         0         0         0         0         0         0
         0         0         0         0         0         0         0         0
         0         0         0         0         0         0         0         0
         0         0         0         0         0         0         0         0
         0         0         0         0         0         0         0         0
         0         0         0         0         0         0         0         0
         0         0         0         0         0         0         0         0
         0         0         0         0         0         0         0         0
         0         0         0         0         0         0         0         0
         0         0         0         0         0         0         0         0
         0         0         0         0         0         0         0         0
         0         0         0         0         0         0         0         0
         0         0         0         0         0         0         0         0
         0         0         0         0         0         0         0         0
         0         0         0         0         0         0         0         0
         0         0         0         0         0         0         0         0
         0         0         0         0         0         0         0         0
         0         0         0         0         0         0         0         0
         0         0         0         0         0         0         0         0
         0         0         0         0         0         0         0         0
         0         0         0         0         0         0         0         0
         0         0         0         0         0         0         0         0
         0         0         0         0         0         0         0         0
         0         0         0         0         0         0         0         0
         0         0         0         0         0         0         0         0
         0         0         0         0         0         0         0         0
         0         0         0         0         0         0         0         0
         0         0         0         0         0         0         0         0
         0         0         0         0         0         0         0         0
         0         0         0         0         0         0         0         0
         0         0         0         0         0         0         0         0
         0         0         0         0         0         0         0         0
         0         0         0         0         0         0         0         0
         0         0         0         0         0         0         0         0
         0         0         0         0         0         0         0         0
         0         0         0         0         0         0         0         0
         0         0         0         0         0         0         0         0
         0         0         0         0         0         0         0         0
         0         0         0         0         0         0         0         0
         0         0         0         0         0         0         0         0
         0         0         0         0         0         0         0         0
         0         0         0         0         0         0         0         0
         0         0         0         0         0         0         0         0
         0         0         0         0         0         0         0         0
         0         0         0         0         0         0         0         0
         0         0         0         0         0         0         0         0
         0         0         0         0         0         0         0         0
         0         0         0         0         0         0         0         0
         0         0         0         0         0         0         0         0
         0         0         0         0         0         0         0         0
         0         0         0         0         0         0         0         0
         0         0         0         0         0         0         0         0
         0         0         0         0         0         0         0         0
         0         0         0         0         0         0         0         0
         0         0         0         0         0         0         0         0
         0         0         0         0         0         0         0         0
         0         0         0         0         0         0         0         0
         0         0         0         0         0         0         0         0
         0         0         0         0         0         0         0         0
         0         0         0         0         0         0         0         0
         0         0         0         0         0         0         0         0
         0         0         0         0         0         0         0         0
         0         0         0         0         0         0         0         0
         0         0         0         0         0         0         0         0
         0         0         0         0         0         0         0         0
         0         0         0         0         0         0         0         0
         0         0         0         0         0         0         0         0
         0         0         0         0         0         0         0         0
         0         0         0         0         0         0         0         0
         0         0         0         0         0         0         0         0
         0         0         0         0         0         0         0         0
         0         0         0         0         0         0         0         0
         0         0         0         0         0         0         0         0
         0         0         0         0         0         0         0         0
         0         0         0         0         0         0         0         0
         0         0         0         0         0         0         0         0
         0         0         0         0         0         0         0         0
         0         0         0         0         0         0         0         0
         0         0         0         0         0         0         0         0
         0         0         0         0         0         0         0         0
         0         0         0         0         0         0         0         0
         0         0         0         0         0         0         0         0
         0         0         0         0         0         0         0         0
         0         0         0         0         0         0         0         0
         0         0         0         0         0         0         0         0
         0         0         0         0         0         0         0         0
         0         0         0         0         0         0         0         0
         0         0         0         0         0         0         0         0
         0         0         0         0         0         0         0         0
         0         0         0         0         0         0         0         0
         0         0         0         0         0         0         0         0
         0         0         0         0         0         0         0         0
         0         0         0         0         0         0         0         0
         0         0         0         0         0         0         0         0
         0         0         0         0         0         0         0         0
         0         0         0         0         0         0         0         0
         0         0         0         0         0         0         0         0
         0         0         0         0         0         0         0         0
         0         0         0         0         0         0         0         0
         0         0         0         0         0         0         0         0
         0         0         0         0         0         0         0         0
         0         0         0         0         0         0         0         0
         0         0         0         0         0         0         0         0
         0         0         0         0         0         0         0         0
         0         0         0         0         0         0         0         0
         0         0         0         0         0         0         0         0
         0         0         0         0         0         0         0         0
         0         0         0         0         0         0         0         0
         0         0         0         0         0         0         0         0
         0         0         0         0         0         0         0         0
         0         0         0         0         0         0         0         0
         0         0         0         0         0         0         0         0
         0         0         0         0         0         0         0         0
         0         0         0         0         0         0         0         0
         0         0         0         0         0         0         0         0
         0         0         0         0         0         0         0         0
         0         0         0         0         0         0         0         0
         0         0         0         0         0         0         0         0
         0         0         0         0         0         0         0         0
         0         0         0         0         0         0         0         0
         0         0         0         0         0         0         0         0
         0         0         0         0         0         0         0         0
         0         0         0         0         0         0         0         0
         0         0         0         0         0         0         0         0
         0         0         0         0         0         0         0         0
         0         0         0         0         0         0         0         0
         0         0         0         0         0         0         0         0
         0         0         0         0         0         0         0         0
         0         0         0         0         0         0         0         0
         0         0         0         0         0         0         0         0
         0         0         0         0         0         0         0         0
         0         0         0         0         0         0         0         0
         0         0         0         0         0         0         0         0
         0         0         0         0         0         0         0         0
         0         0         0         0         0         0         0         0
         0         0         0         0         0         0         0         0
         0         0         0         0         0         0         0         0
         0         0         0         0         0         0         0         0
         0         0         0         0         0         0         0         0
         0         0         0         0         0         0         0         0
         0         0         0         0         0         0         0         0
         0         0         0         0         0         0         0         0
         0         0         0         0         0         0         0         0
         0         0         0         0         0         0         0         0
         0         0         0         0         0         0         0         0
         0         0         0         0         0         0         0         0
         0         0         0         0         0         0         0         0
         0         0         0         0         0         0         0         0
         0         0         0         0         0         0         0         0
         0         0         0         0         0         0         0         0
         0         0         0         0         0         0         0         0
         0         0         0         0         0         0         0         0
         0         0         0         0         0         0         0         0
         0         0         0         0         0         0         0         0
         0         0         0         0         0         0         0         0
         0         0         0         0         0         0         0         0
         0         0         0         0         0         0         0         0
         0         0         0         0         0         0         0         0
         0         0         0         0         0         0         0         0
         0         0         0         0         0         0         0         0
         0         0         0         0         0         0         0         0
         0         0         0         0         0         0         0         0
         0         0         0         0         0         0         0         0
         0         0         0         0         0         0         0         0
         0         0         0         0         0         0         0         0
         0         0         0         0         0         0         0         0
         0         0         0         0         0         0         0         0
         0         0         0         0         0         0         0         0
         0         0         0         0         0         0         0         0
         0         0         0         0         0         0         0         0
         0         0         0         0         0         0         0         0
         0         0         0         0         0         0         0         0
         0         0         0         0         0         0         0         0
         0         0         0         0         0         0         0         0
         0         0         0         0         0         0         0         0
         0         0         0         0         0         0         0         0
         0         0         0         0         0         0         0         0
         0         0         0         0         0         0         0         0
         0         0         0         0         0         0         0         0
         0         0         0         0         0         0         0         0
         0         0         0         0         0         0         0         0
         0         0         0         0         0         0         0         0
         0         0         0         0         0         0         0         0
         0         0         0         0         0         0         0         0
         0         0         0         0         0         0         0         0
         0         0         0         0         0         0         0         0
         0         0         0         0         0         0         0         0
         0         0         0         0         0         0         0         0
         0         0         0         0         0         0         0         0
         0         0         0         0         0         0         0         0
         0         0         0         0         0         0         0         0
         0         0         0         0         0         0         0         0
         0         0         0         0         0         0         0         0
         0         0         0         0         0         0         0         0
         0         0         0         0         0         0         0         0
         0         0         0         0         0         0         0         0
         0         0         0         0         0         0         0         0
         0         0         0         0         0         0         0         0
         0         0         0         0         0         0         0         0
         0         0         0         0         0         0         0         0
         0         0         0         0         0         0         0         0
         0         0         0         0         0         0         0         0
         0         0         0         0         0         0         0         0
         0         0         0         0         0         0         0         0
         0         0         0         0         0         0         0         0
         0         0         0         0         0         0         0         0
         0         0         0         0         0         0         0         0
         0         0         0         0         0         0         0         0
         0         0         0         0         0         0         0         0
         0         0         0         0         0         0         0         0
         0         0         0         0         0         0         0         0
         0         0         0         0         0         0         0         0
         0         0         0         0         0         0         0         0
         0         0         0         0         0         0         0         0
         0         0         0         0         0         0         0         0
         0         0         0         0         0         0         0         0
         0         0         0         0         0         0         0         0
         0         0         0         0         0         0         0         0
         0         0         0         0         0         0         0         0
         0         0         0         0         0         0         0         0
         0         0         0         0         0         0         0         0
         0         0         0         0         0         0         0         0
         0         0         0         0         0         0         0         0
         0         0         0         0         0         0         0         0
         0         0         0         0         0         0         0         0
         0         0         0         0         0         0         0         0
         0         0         0         0         0         0         0         0
         0         0         0         0         0         0         0         0
         0         0         0         0         0         0         0         0
         0         0         0         0         0         0         0         0
         0         0         0         0         0         0         0         0
         0         0         0         0         0         0         0         0
         0         0         0         0         0         0         0         0
         0         0         0         0         0         0         0         0
         0         0         0         0         0         0         0         0
         0         0         0         0         0         0         0         0
         0         0         0         0         0         0         0         0
         0         0         0         0         0         0         0         0
         0         0         0         0         0         0         0         0
         0         0         0         0         0         0         0         0
         0         0         0         0         0         0         0         0
         0         0         0         0         0         0         0         0
         0         0         0         0         0         0         0         0
         0         0         0         0         0         0         0         0
         0         0         0         0         0         0         0         0
         0         0         0         0         0         0         0         0
         0         0         0         0         0         0         0         0
         0         0         0         0         0         0         0         0
         0         0         0         0         0         0         0         0
         0         0         0         0         0         0         0         0
         0         0         0         0         0         0         0         0
         0         0         0         0         0         0         0         0
         0         0         0         0         0         0         0         0
         0         0         0         0         0         0         0         0
         0         0         0         0         0         0         0         0
         0         0         0         0         0         0         0         0
         0         0         0         0         0         0         0         0
         0         0         0         0         0         0         0         0
         0         0         0         0         0         0         0         0
         0         0         0         0         0         0         0         0
         0         0         0         0         0         0         0         0
         0         0         0         0         0         0         0         0
         0         0         0         0         0         0         0         0
         0         0         0         0         0         0         0         0
         0         0         0         0         0         0         0         0
         0         0         0         0         0         0         0         0
         0         0         0         0         0         0         0         0
         0         0         0         0         0         0         0         0
         0         0         0         0         0         0         0         0
         0         0         0         0         0         0         0         0
         0         0         0         0         0         0         0         0
         0         0         0         0         0         0         0         0
         0         0         0         0         0         0         0         0
         0         0         0         0         0         0         0         0
         0         0         0         0         0         0         0         0
         0         0         0         0         0         0         0         0
         0         0         0         0         0         0         0         0
         0         0         0         0         0         0         0         0
         0         0         0         0         0         0         0         0
         0         0         0         0         0         0         0         0
         0         0         0         0         0         0         0         0
         0         0         0         0         0         0         0         0
         0         0         0         0         0         0         0         0
         0         0         0         0         0         0         0         0
         0         0         0         0         0         0         0         0
         0         0         0         0         0         0         0         0
         0         0         0         0         0         0         0         0
         0         0         0         0         0         0         0         0
         0         0         0         0         0         0         0         0
         0         0         0         0         0         0         0         0
         0         0         0         0         0         0         0         0
         0         0         0         0         0         0         0         0
         0         0         0         0         0         0         0         0
         0         0         0         0         0         0         0         0
         0         0         0         0         0         0         0         0
         0         0         0         0         0         0         0         0
         0         0         0         0         0         0         0         0
         0         0         0         0         0         0         0         0
         0         0         0         0         0         0         0         0
         0         0         0         0         0         0         0         0
         0         0         0         0         0         0         0         0
         0         0         0         0         0         0         0         0
         0         0         0         0         0         0         0         0
         0         0         0         0         0         0         0         0
         0         0         0         0         0         0         0         0
         0         0         0         0         0         0         0         0
         0         0         0         0         0         0         0         0
         0         0         0         0         0         0         0         0
         0         0         0         0         0         0         0         0
         0         0         0         0         0         0         0         0
         0         0         0         0         0         0         0         0
         0         0         0         0         0         0         0         0
         0         0         0         0         0         0         0         0
         0         0         0         0         0         0         0         0
         0         0         0         0         0         0         0         0
         0         0         0         0         0         0         0         0
         0         0         0         0         0         0         0         0
         0         0         0         0         0         0         0         0
         0         0         0         0         0         0         0         0
         0         0         0         0         0         0         0         0
         0         0         0         0         0         0         0         0
         0         0         0         0         0         0         0         0
         0         0         0         0         0         0         0         0
         0         0         0         0         0         0         0         0
         0         0         0         0         0         0         0         0
         0         0         0         0         0         0         0         0
         0         0         0         0         0         0         0         0
         0         0         0         0         0         0         0         0
         0         0         0         0         0         0         0         0
         0         0         0         0         0         0         0         0
         0         0         0         0         0         0         0         0
         0         0         0         0         0         0         0         0
         0         0         0         0         0         0         0         0
         0         0         0         0         0         0         0         0
         0         0         0         0         0         0         0         0
         0         0         0         0         0         0         0         0
         0         0         0         0         0         0         0         0
         0         0         0         0         0         0         0         0
         0         0         0         0         0         0         0         0
         0         0         0         0         0         0         0         0
         0         0         0         0         0         0         0         0
         0         0         0         0         0         0         0         0
         0         0         0         0         0         0         0         0
         0         0         0         0         0         0         0         0
         0         0         0         0         0         0         0         0
         0         0         0         0         0         0         0         0
         0         0         0         0         0         0         0         0
         0         0         0         0         0         0         0         0
         0         0         0         0         0         0         0         0
         0         0         0         0         0         0         0         0
         0         0         0         0         0         0         0         0
         0         0         0         0         0         0         0         0
         0         0         0         0         0         0         0         0
         0         0         0         0         0         0         0         0
         0         0         0         0         0         0         0         0
         0         0         0         0         0         0         0         0
         0         0         0         0         0         0         0         0
         0         0         0         0         0         0         0         0
         0         0         0         0         0         0         0         0
         0         0         0         0         0         0         0         0
         0         0         0         0         0         0         0         0
         0         0         0         0         0         0         0         0
         0         0         0         0         0         0         0         0
         0         0         0         0         0         0         0         0
         0         0         0         0         0         0         0         0
         0         0         0         0         0         0         0         0
         0         0         0         0         0         0         0         0
         0         0         0         0         0         0         0         0
         0         0         0         0         0         0         0         0
         0         0         0         0         0         0         0         0
         0         0         0         0         0         0         0         0
         0         0         0         0         0         0         0         0
         0         0         0         0         0         0         0         0
         0         0         0         0         0         0         0         0
         0         0         0         0         0         0         0         0
         0         0         0         0         0         0         0         0
         0         0         0         0         0         0         0         0
         0         0         0         0         0         0         0         0
         0         0         0         0         0         0         0         0
         0         0         0         0         0         0         0         0
         0         0         0         0         0         0         0         0
         0         0         0         0         0         0         0         0
         0         0         0         0         0         0         0         0
         0         0         0         0         0         0         0         0
         0         0         0         0         0         0         0         0
         0         0         0         0         0         0         0         0
         0         0         0         0         0         0         0         0
         0         0         0         0         0         0         0         0
         0         0         0         0         0         0         0         0
         0         0         0         0         0         0         0         0
         0         0         0         0         0         0         0         0
         0         0         0         0         0         0         0         0
         0         0         0         0         0         0         0         0
         0         0         0         0         0         0         0         0
         0         0         0         0         0         0         0         0
         0         0         0         0         0         0         0         0
         0         0         0         0         0         0         0         0
         0         0         0         0         0         0         0         0
         0         0         0         0         0         0         0         0
         0         0         0         0         0         0         0         0
         0         0         0         0         0         0         0         0
         0         0         0         0         0         0         0         0
         0         0         0         0         0         0         0         0
         0         0         0         0         0         0         0         0
         0         0         0         0         0         0         0         0
         0         0         0         0         0         0         0         0
         0         0         0         0         0         0         0         0
         0         0         0         0         0         0         0         0
         0         0         0         0         0         0         0         0
         0         0         0         0         0         0         0         0
         0         0         0         0         0         0         0         0
         0         0         0         0         0         0         0         0
         0         0         0         0         0         0         0         0
         0         0         0         0         0         0         0         0
         0         0         0         0         0         0         0         0
         0         0         0         0         0         0         0         0
         0         0         0         0         0         0         0         0
         0         0         0         0         0         0         0         0
         0         0         0         0         0         0         0         0
         0         0         0         0         0         0         0         0
         0         0         0         0         0         0         0         0
         0         0         0         0         0         0         0         0
         0         0         0         0         0         0         0         0
         0         0         0         0         0         0         0         0
         0         0         0         0         0         0         0         0
         0         0         0         0         0         0         0         0
         0         0         0         0         0         0         0         0
         0         0         0         0         0         0         0         0
         0         0         0         0         0         0         0         0
         0         0         0         0         0         0         0         0
         0         0         0         0         0         0         0         0
         0         0         0         0         0         0         0         0
         0         0         0         0         0         0         0         0
         0         0         0         0         0         0         0         0
         0         0         0         0         0         0         0         0
         0         0         0         0         0         0         0         0
         0         0         0         0         0         0         0         0
         0         0         0         0         0         0         0         0
         0         0         0         0         0         0         0         0
         0         0         0         0         0         0         0         0
         0         0         0         0         0         0         0         0
         0         0         0         0         0         0         0         0
         0         0         0         0         0         0         0         0
         0         0         0         0         0         0         0         0
         0         0         0         0         0         0         0         0
         0         0         0         0         0         0         0         0
         0         0         0         0         0         0         0         0
         0         0         0         0         0         0         0         0
         0         0         0         0         0         0         0         0
         0         0         0         0         0         0         0         0
         0         0         0         0         0         0         0         0
         0         0         0         0         0         0         0         0
         0         0         0         0         0         0         0         0
         0         0         0         0         0         0         0         0
         0         0         0         0         0         0         0         0
         0         0         0         0         0         0         0         0
         0         0         0         0         0         0         0         0
         0         0         0         0         0         0         0         0
         0         0         0         0         0         0         0         0
         0         0         0         0         0         0         0         0
         0         0         0         0         0         0         0         0
         0         0         0         0         0         0         0         0
         0         0         0         0         0         0         0         0
         0         0         0         0         0         0         0         0
         0         0         0         0         0         0         0         0
         0         0         0         0         0         0         0         0
         0         0         0         0         0         0         0         0
         0         0         0         0         0         0         0         0
         0         0         0         0         0         0         0         0
         0         0         0         0         0         0         0         0
         0         0         0         0         0         0         0         0
         0         0         0         0         0         0         0         0
         0         0         0         0         0         0         0         0
         0         0         0         0         0         0         0         0
         0         0         0         0         0         0         0         0
         0         0         0         0         0         0         0         0
         0         0         0         0         0         0         0         0
         0         0         0         0         0         0         0         0
         0         0         0         0         0         0         0         0
         0         0         0         0         0         0         0         0
         0         0         0         0         0         0         0         0
         0         0         0         0         0         0         0         0
         0         0         0         0         0         0         0         0
         0         0         0         0         0         0         0         0
         0         0         0         0         0         0         0         0
         0         0         0         0         0         0         0         0
         0         0         0         0         0         0         0         0
         0         0         0         0         0         0         0         0
         0         0         0         0         0         0         0         0
         0         0         0         0         0         0         0         0
         0         0         0         0         0         0         0         0
         0         0         0         0         0         0         0         0
         0         0         0         0         0         0         0         0
         0         0         0         0         0         0         0         0
         0         0         0         0         0         0         0         0
         0         0         0         0         0         0         0         0
         0         0         0         0         0         0         0         0
         0         0         0         0         0         0         0         0
         0         0         0         0         0         0         0         0
         0         0         0         0         0         0         0         0
         0         0         0         0         0         0         0         0
         0         0         0         0         0         0         0         0
         0         0         0         0         0         0         0         0
         0         0         0         0         0         0         0         0
         0         0         0         0         0         0         0         0
         0         0         0         0         0         0         0         0
         0         0         0         0         0         0         0         0
         0         0         0         0         0         0         0         0
         0         0         0         0         0         0         0         0
         0         0         0         0         0         0         0         0
         0         0         0         0         0         0         0         0
         0         0         0         0         0         0         0         0
         0         0         0         0         0         0         0         0
         0         0         0         0         0         0         0         0
         0         0         0         0         0         0         0         0
         0         0         0         0         0         0         0         0
         0         0         0         0         0         0         0         0
         0         0         0         0         0         0         0         0
         0         0         0         0         0         0         0         0
         0         0         0         0         0         0         0         0
         0         0         0         0         0         0         0         0
         0         0         0         0         0         0         0         0
         0         0         0         0         0         0         0         0
         0         0         0         0         0         0         0         0
         0         0         0         0         0         0         0         0
         0         0         0         0         0         0         0         0
         0         0         0         0         0         0         0         0
         0         0         0         0         0         0         0         0
         0         0         0         0         0         0         0         0
         0         0         0         0         0         0         0         0
         0         0         0         0         0         0         0         0
         0         0         0         0         0         0         0         0
         0         0         0         0         0         0         0         0
         0         0         0         0         0         0         0         0
         0         0         0         0         0         0         0         0
         0         0         0         0         0         0         0         0
         0         0         0         0         0         0         0         0
         0         0         0         0         0         0         0         0
         0         0         0         0         0         0         0         0
         0         0         0         0         0         0         0         0
         0         0         0         0         0         0         0         0
         0         0         0         0         0         0         0         0
         0         0         0         0         0         0         0         0
         0         0         0         0         0         0         0         0
         0         0         0         0         0         0         0         0
         0         0         0         0         0         0         0         0
         0         0         0         0         0         0         0         0
         0         0         0         0         0         0         0         0
         0         0         0         0         0         0         0         0
         0         0         0         0         0         0         0         0
         0         0         0         0         0         0         0         0
         0         0         0         0         0         0         0         0
         0         0         0         0         0         0         0         0
         0         0         0         0         0         0         0         0
         0         0         0         0         0         0         0         0
         0         0         0         0         0         0         0         0
         0         0         0         0         0         0         0         0
         0         0         0         0         0         0         0         0
         0         0         0         0         0         0         0         0
         0         0         0         0         0         0         0         0
         0         0         0         0         0         0         0         0
         0         0         0         0         0         0         0         0
         0         0         0         0         0         0         0         0
         0         0         0         0         0         0         0         0
         0         0         0         0         0         0         0         0
         0         0         0         0         0         0         0         0
         0         0         0         0         0         0         0         0
         0         0         0         0         0         0         0         0
         0         0         0         0         0         0         0         0
         0         0         0         0         0         0         0         0
         0         0         0         0         0         0         0         0
         0         0         0         0         0         0         0         0
         0         0         0         0         0         0         0         0
         0         0         0         0         0         0         0         0
         0         0         0         0         0         0         0         0
         0         0         0         0         0         0         0         0
         0         0         0         0         0         0         0         0
         0         0         0         0         0         0         0         0
         0         0         0         0         0         0         0         0
         0         0         0         0         0         0         0         0
         0         0         0         0         0         0         0         0
         0         0         0         0         0         0         0         0
         0         0         0         0         0         0         0         0
         0         0         0         0         0         0         0         0
         0         0         0         0         0         0         0         0
         0         0         0         0         0         0         0         0
         0         0         0         0         0         0         0         0
         0         0         0         0         0         0         0         0
         0         0         0         0         0         0         0         0
         0         0         0         0         0         0         0         0
         0         0         0         0         0         0         0         0
         0         0         0         0         0         0         0         0
         0         0         0         0         0         0         0         0
         0         0         0         0         0         0         0         0
         0         0         0         0         0         0         0         0
         0         0         0         0         0         0         0         0
         0         0         0         0         0         0         0         0
         0         0         0         0         0         0         0         0
         0         0         0         0         0         0         0         0
         0         0         0         0         0         0         0         0
         0         0         0         0         0         0         0         0
         0         0         0         0         0         0         0         0
         0         0         0         0         0         0         0         0
         0         0         0         0         0         0         0         0
         0         0         0         0         0         0         0         0
         0         0         0         0         0         0         0         0
         0         0         0         0         0         0         0         0
         0         0         0         0         0         0         0         0
         0         0         0         0         0         0         0         0
         0         0         0         0         0         0         0         0
         0         0         0         0         0         0         0         0
         0         0         0         0         0         0         0         0
         0         0         0         0         0         0         0         0
         0         0         0         0         0         0         0         0
         0         0         0         0         0         0         0         0
         0         0         0         0         0         0         0         0
         0         0         0         0         0         0         0         0
         0         0         0         0         0         0         0         0
         0         0         0         0         0         0         0         0
         0         0         0         0         0         0         0         0
         0         0         0         0         0         0         0         0
         0         0         0         0         0         0         0         0
         0         0         0         0         0         0         0         0
         0         0         0         0         0         0         0         0
         0         0         0         0         0         0         0         0
         0         0         0         0         0         0         0         0
         0         0         0         0         0         0         0         0
         0         0         0         0         0         0         0         0
         0         0         0         0         0         0         0         0
         0         0         0         0         0         0         0         0
         0         0         0         0         0         0         0         0
         0         0         0         0         0         0         0         0
         0         0         0         0         0         0         0         0
         0         0         0         0         0         0         0         0
         0         0         0         0         0         0         0         0
         0         0         0         0         0         0         0         0
         0         0         0         0         0         0         0         0
         0         0         0         0         0         0         0         0
         0         0         0         0         0         0         0         0
         0         0         0         0         0         0         0         0
         0         0         0         0         0         0         0         0
         0         0         0         0         0         0         0         0
         0         0         0         0         0         0         0         0
         0         0         0         0         0         0         0         0
         0         0         0         0         0         0         0         0
         0         0         0         0         0         0         0         0
         0         0         0         0         0         0         0         0
         0         0         0         0         0         0         0         0
         0         0         0         0         0         0         0         0
         0         0         0         0         0         0         0         0
         0         0         0         0         0         0         0         0
         0         0         0         0         0         0         0         0
         0         0         0         0         0         0         0         0
         0         0         0         0         0         0         0         0
         0         0         0         0         0         0         0         0
         0         0         0         0         0         0         0         0
         0         0         0         0         0         0         0         0
         0         0         0         0         0         0         0         0
         0         0         0         0         0         0         0         0
         0         0         0         0         0         0         0         0
         0         0         0         0         0         0         0         0
         0         0         0         0         0         0         0         0
         0         0         0         0         0         0         0         0
         0         0         0         0         0         0         0         0
         0         0         0         0         0         0         0         0
         0         0         0         0         0         0         0         0
         0         0         0         0         0         0         0         0
         0         0         0         0         0         0         0         0
         0         0         0         0         0         0         0         0
         0         0         0         0         0         0         0         0
         0         0         0         0         0         0         0         0
         0         0         0         0         0         0         0         0
         0         0         0         0         0         0         0         0
         0         0         0         0         0         0         0         0
         0         0         0         0         0         0         0         0
         0         0         0         0         0         0         0         0
         0         0         0         0         0         0         0         0
         0         0         0         0         0         0         0         0
         0         0         0         0         0         0         0         0
         0         0         0         0         0         0         0         0
         0         0         0         0         0         0         0         0
         0         0         0         0         0         0         0         0
         0         0         0         0         0         0         0         0
         0         0         0         0         0         0         0         0
         0         0         0         0         0         0         0         0
         0         0         0         0         0         0         0         0
         0         0         0         0         0         0         0         0
         0         0         0         0         0         0         0         0
         0         0         0         0         0         0         0         0
         0         0         0         0         0         0         0         0
         0         0         0         0         0         0         0         0
         0         0         0         0         0         0         0         0
         0         0         0         0         0         0         0         0
         0         0         0         0         0         0         0         0
         0         0         0         0         0         0         0         0
         0         0         0         0         0         0         0         0
         0         0         0         0         0         0         0         0
         0         0         0         0         0         0         0         0
         0         0         0         0         0         0         0         0
         0         0         0         0         0         0         0         0
         0         0         0         0         0         0         0         0
         0         0         0         0         0         0         0         0
         0         0         0         0         0         0         0         0
         0         0         0         0         0         0         0         0
         0         0         0         0         0         0         0         0
         0         0         0         0         0         0         0         0
         0         0         0         0         0         0         0         0
         0         0         0         0         0         0         0         0
         0         0         0         0         0         0         0         0
         0         0         0         0         0         0         0         0
         0         0         0         0         0         0         0         0
         0         0         0         0         0         0         0         0
         0         0         0         0         0         0         0         0
         0         0         0         0         0         0         0         0
         0         0         0         0         0         0         0         0
         0         0         0         0         0         0         0         0
         0         0         0         0         0         0         0         0
         0         0         0         0         0         0         0         0
         0         0         0         0         0         0         0         0
         0         0         0         0         0         0         0         0
         0         0         0         0         0         0         0         0
         0         0         0         0         0         0         0         0
         0         0         0         0         0         0         0         0
         0         0         0         0         0         0         0         0
         0         0         0         0         0         0         0         0
         0         0         0         0         0         0         0         0
         0         0         0         0         0         0         0         0
         0         0         0         0         0         0         0         0
         0         0         0         0         0         0         0         0
         0         0         0         0         0         0         0         0
         0         0         0         0         0         0         0         0
         0         0         0         0         0         0         0         0
         0         0         0         0         0         0         0         0
         0         0         0         0         0         0         0         0
         0         0         0         0         0         0         0         0
         0         0         0         0         0         0         0         0
         0         0         0         0         0         0         0         0
         0         0         0         0         0         0         0         0
         0         0         0         0         0         0         0         0
         0         0         0         0         0         0         0         0
         0         0         0         0         0         0         0         0
         0         0         0         0         0         0         0         0
         0         0         0         0         0         0         0         0
         0         0         0         0         0         0         0         0
         0         0         0         0         0         0         0         0
         0         0         0         0         0         0         0         0
         0         0         0         0         0         0         0         0
         0         0         0         0         0         0         0         0
         0         0         0         0         0         0         0         0
         0         0         0         0         0         0         0         0
         0         0         0         0         0         0         0         0
         0         0         0         0         0         0         0         0
         0         0         0         0         0         0         0         0
         0         0         0         0         0         0         0         0
         0         0         0         0         0         0         0         0
         0         0         0         0         0         0         0         0
         0         0         0         0         0         0         0         0
         0         0         0         0         0         0         0         0
         0         0         0         0         0         0         0         0
         0         0         0         0         0         0         0         0
         0         0         0         0         0         0         0         0
         0         0         0         0         0         0         0         0
         0         0         0         0         0         0         0         0
         0         0         0         0         0         0         0         0
         0         0         0         0         0         0         0         0
         0         0         0         0         0         0         0         0
         0         0         0         0         0         0         0         0
         0         0         0         0         0         0         0         0
         0         0         0         0         0         0         0         0
         0         0         0         0         0         0         0         0
         0         0         0         0         0         0         0         0
         0         0         0         0         0         0         0         0
         0         0         0         0         0         0         0         0
         0         0         0         0         0         0         0         0
         0         0         0         0         0         0         0         0
         0         0         0         0         0         0         0         0
         0         0         0         0         0         0         0         0
         0         0         0         0         0         0         0         0
         0         0         0         0         0         0         0         0
         0         0         0         0         0         0         0         0
         0         0         0         0         0         0         0         0
         0         0         0         0         0         0         0         0
         0         0         0         0         0         0         0         0
         0         0         0         0         0         0         0         0
         0         0         0         0         0         0         0         0
         0         0         0         0         0         0         0         0
         0         0         0         0         0         0         0         0
         0         0         0         0         0         0         0         0
         0         0         0         0         0         0         0         0
         0         0         0         0         0         0         0         0
         0         0         0         0         0         0         0         0
         0         0         0         0         0         0         0         0
         0         0         0         0         0         0         0         0
         0         0         0         0         0         0         0         0
         0         0         0         0         0         0         0         0
         0         0         0         0         0         0         0         0
         0         0         0         0         0         0         0         0
         0         0         0         0         0         0         0         0
         0         0         0         0         0         0         0         0
         0         0         0         0         0         0         0         0
         0         0         0         0         0         0         0         0
         0         0         0         0         0         0         0         0
         0         0         0         0         0         0         0         0
         0         0         0         0         0         0         0         0
         0         0         0         0         0         0         0         0
         0         0         0         0         0         0         0         0
         0         0         0         0         0         0         0         0
         0         0         0         0         0         0         0         0
         0         0         0         0         0         0         0         0
         0         0         0         0         0         0         0         0
         0         0         0         0         0         0         0         0
         0         0         0         0         0         0         0         0
         0         0         0         0         0         0         0         0
         0         0         0         0         0         0         0         0
         0         0         0         0         0         0         0         0
         0         0         0         0         0         0         0         0
         0         0         0         0         0         0         0         0
         0         0         0         0         0         0         0         0
         0         0         0         0         0         0         0         0
         0         0         0         0         0         0         0         0
         0         0         0         0         0         0         0         0
         0         0         0         0         0         0         0         0
         0         0         0         0         0         0         0         0
         0         0         0         0         0         0         0         0
         0         0         0         0         0         0         0         0
         0         0         0         0         0         0         0         0
         0         0         0         0         0         0         0         0
         0         0         0         0         0         0         0         0
         0         0         0         0         0         0         0         0
         0         0         0         0         0         0         0         0
         0         0         0         0         0         0         0         0
         0         0         0         0         0         0         0         0
         0         0         0         0         0         0         0         0
         0         0         0         0         0         0         0         0
         0         0         0         0         0         0         0         0
         0         0         0         0         0         0         0         0
         0         0         0         0         0         0         0         0
         0         0         0         0         0         0         0         0
         0         0         0         0         0         0         0         0
         0         0         0         0         0         0         0         0
         0         0         0         0         0         0         0         0
         0         0         0         0         0         0         0         0
         0         0         0         0         0         0         0         0
         0         0         0         0         0         0         0         0
         0         0         0         0         0         0         0         0
         0         0         0         0         0         0         0         0
         0         0         0         0         0         0         0         0
         0         0         0         0         0         0         0         0
         0         0         0         0         0         0         0         0
         0         0         0         0         0         0         0         0
         0         0         0         0         0         0         0         0
         0         0         0         0         0         0         0         0
         0         0         0         0         0         0         0         0
         0         0         0         0         0         0         0         0
         0         0         0         0         0         0         0         0
         0         0         0         0         0         0         0         0
         0         0         0         0         0         0         0         0
         0         0         0         0         0         0         0         0
         0         0         0         0         0         0         0         0
         0         0         0         0         0         0         0         0
         0         0         0         0         0         0         0         0
         0         0         0         0         0         0         0         0
         0         0         0         0         0         0         0         0
         0         0         0         0         0         0         0         0
         0         0         0         0         0         0         0         0
         0         0         0         0         0         0         0         0
         0         0         0         0         0         0         0         0
         0         0         0         0         0         0         0         0
         0         0         0         0         0         0         0         0
         0         0         0         0         0         0         0         0
         0         0         0         0         0         0         0         0
         0         0         0         0         0         0         0         0
         0         0         0         0         0         0         0         0
         0         0         0         0         0         0         0         0
         0         0         0         0         0         0         0         0
         0         0         0         0         0         0         0         0
         0         0         0         0         0         0         0         0
         0         0         0         0         0         0         0         0
         0         0         0         0         0         0         0         0
         0         0         0         0         0         0         0         0
         0         0         0         0         0         0         0         0
         0         0         0         0         0         0         0         0
         0         0         0         0         0         0         0         0
         0         0         0         0         0         0         0         0
         0         0         0         0         0         0         0         0
         0         0         0         0         0         0         0         0
         0         0         0         0         0         0         0         0
         0         0         0         0         0         0         0         0
         0         0         0         0         0         0         0         0
         0         0         0         0         0         0         0         0
         0         0         0         0         0         0         0         0
         0         0         0         0         0         0         0         0
         0         0         0         0         0         0         0         0
         0         0         0         0         0         0         0         0
         0         0         0         0         0         0         0         0
         0         0         0         0         0         0         0         0
         0         0         0         0         0         0         0         0
         0         0         0         0         0         0         0         0
         0         0         0         0         0         0         0         0
         0         0         0         0         0         0         0         0
         0         0         0         0         0         0         0         0
         0         0         0         0         0         0         0         0
         0         0         0         0         0         0         0         0
         0         0         0         0         0         0         0         0
         0         0         0         0         0         0         0         0
         0         0         0         0         0         0         0         0
         0         0         0         0         0         0         0         0
         0         0         0         0         0         0         0         0
         0         0         0         0         0         0         0         0
         0         0         0         0         0         0         0         0
         0         0         0         0         0         0         0         0
         0         0         0         0         0         0         0         0
         0         0         0         0         0         0         0         0
         0         0         0         0         0         0         0         0
         0         0         0         0         0         0         0         0
         0         0         0         0         0         0         0         0
         0         0         0         0         0         0         0         0
         0         0         0         0         0         0         0         0
         0         0         0         0         0         0         0         0
         0         0         0         0         0         0         0         0
         0         0         0         0         0         0         0         0
         0         0         0         0         0         0         0         0
         0         0         0         0         0         0         0         0
         0         0         0         0         0         0         0         0
         0         0         0         0         0         0         0         0
         0         0         0         0         0         0         0         0
         0         0         0         0         0         0         0         0
         0         0         0         0         0         0         0         0
         0         0         0         0         0         0         0         0
         0         0         0         0         0         0         0         0
         0         0         0         0         0         0         0         0
         0         0         0         0         0         0         0         0
         0         0         0         0         0         0         0         0
         0         0         0         0         0         0         0         0
         0         0         0         0         0         0         0         0
         0         0         0         0         0         0         0         0
         0         0         0         0         0         0         0         0
         0         0         0         0         0         0         0         0
         0         0         0         0         0         0         0         0
         0         0         0         0         0         0         0         0
         0         0         0         0         0         0         0         0
         0         0         0         0         0         0         0         0
         0         0         0         0         0         0         0         0
         0         0         0         0         0         0         0         0
         0         0         0         0         0         0         0         0
         0         0         0         0         0         0         0         0
         0         0         0         0         0         0         0         0
         0         0         0         0         0         0         0         0
         0         0         0         0         0         0         0         0
         0         0         0         0         0         0         0         0
         0         0         0         0         0         0         0         0
         0         0         0         0         0         0         0         0
         0         0         0         0         0         0         0         0
         0         0         0         0         0         0         0         0
         0         0         0         0         0         0         0         0
         0         0         0         0         0         0         0         0
         0         0         0         0         0         0         0         0
         0         0         0         0         0         0         0         0
         0         0         0         0         0         0         0         0
         0         0         0         0         0         0         0         0
         0         0         0         0         0         0         0         0
         0         0         0         0         0         0         0         0
         0         0         0         0         0         0         0         0
         0         0         0         0         0         0         0         0
         0         0         0         0         0         0         0         0
         0         0         0         0         0         0         0         0
         0         0         0         0         0         0         0         0
         0         0         0         0         0         0         0         0
         0         0         0         0         0         0         0         0
         0         0         0         0         0         0         0         0
         0         0         0         0         0         0         0         0
         0         0         0         0         0         0         0         0
         0         0         0         0         0         0         0         0
         0         0         0         0         0         0         0         0
         0         0         0         0         0         0         0         0
         0         0         0         0         0         0         0         0
         0         0         0         0         0         0         0         0
         0         0         0         0         0         0         0         0
         0         0         0         0         0         0         0         0
         0         0         0         0         0         0         0         0
         0         0         0         0         0         0         0         0
         0         0         0         0         0         0         0         0
         0         0         0         0         0         0         0         0
         0         0         0         0         0         0         0         0
         0         0         0         0         0         0         0         0
         0         0         0         0         0         0         0         0
         0         0         0         0         0         0         0         0
         0         0         0         0         0         0         0         0
         0         0         0         0         0         0         0         0
         0         0         0         0         0         0         0         0
         0         0         0         0         0         0         0         0
         0         0         0         0         0         0         0         0
         0         0         0         0         0         0         0         0
         0         0         0         0         0         0         0         0
         0         0         0         0         0         0         0         0
         0         0         0         0         0         0         0         0
         0         0         0         0         0         0         0         0
         0         0         0         0         0         0         0         0
         0         0         0         0         0         0         0         0
         0         0         0         0         0         0         0         0
         0         0         0         0         0         0         0         0
         0         0         0         0         0         0         0         0
         0         0         0         0         0         0         0         0
         0         0         0         0         0         0         0         0
         0         0         0         0         0         0         0         0
         0         0         0         0         0         0         0         0
         0         0         0         0         0         0         0         0
         0         0         0         0         0         0         0         0
         0         0         0         0         0         0         0         0
         0         0         0         0         0         0         0         0
         0         0         0         0         0         0         0         0
         0         0         0         0         0         0         0         0
         0         0         0         0         0         0         0         0
         0         0         0         0         0         0         0         0
         0         0         0         0         0         0         0         0
         0         0         0         0         0         0         0         0
         0         0         0         0         0         0         0         0
         0         0         0         0         0         0         0         0
         0         0         0         0         0         0         0         0
         0         0         0         0         0         0         0         0
         0         0         0         0         0         0         0         0
         0         0         0         0         0         0         0         0
         0         0         0         0         0         0         0         0
         0         0         0         0         0         0         0         0
         0         0         0         0         0         0         0         0
         0         0         0         0         0         0         0         0
         0         0         0         0         0         0         0         0
         0         0         0         0         0         0         0         0
         0         0         0         0         0         0         0         0
         0         0         0         0         0         0         0         0
         0         0         0         0         0         0         0         0
         0         0         0         0         0         0         0         0
         0         0         0         0         0         0         0         0
         0         0         0         0         0         0         0         0
         0         0         0         0         0         0         0         0
         0         0         0         0         0         0         0         0
         0         0         0         0         0         0         0         0
         0         0         0         0         0         0         0         0
         0         0         0         0         0         0         0         0
         0         0         0         0         0         0         0         0
         0         0         0         0         0         0         0         0
         0         0         0         0         0         0         0         0
         0         0         0         0         0         0         0         0
         0         0         0         0         0         0         0         0
         0         0         0         0         0         0         0         0
         0         0         0         0         0         0         0         0
         0         0         0         0         0         0         0         0
         0         0         0         0         0         0         0         0
         0         0         0         0         0         0         0         0
         0         0         0         0         0         0         0         0
         0         0         0         0         0         0         0         0
         0         0         0         0         0         0         0         0
         0         0         0         0         0         0         0         0
         0         0         0         0         0         0         0         0
         0         0         0         0         0         0         0         0
         0         0         0         0         0         0         0         0
         0         0         0         0         0         0         0         0
         0         0         0         0         0         0         0         0
         0         0         0         0         0         0         0         0
         0         0         0         0         0         0         0         0
         0         0         0         0         0         0         0         0
         0         0         0         0         0         0         0         0
         0         0         0         0         0         0         0         0
         0         0         0         0         0         0         0         0
         0         0         0         0         0         0         0         0
         0         0         0         0         0         0         0         0
         0         0         0         0         0         0         0         0
         0         0         0         0         0         0         0         0
         0         0         0         0         0         0         0         0
         0         0         0         0         0         0         0         0
         0         0         0         0         0         0         0         0
         0         0         0         0         0         0         0         0
         0         0         0         0         0         0         0         0
         0         0         0         0         0         0         0         0
         0         0         0         0         0         0         0         0
         0         0         0         0         0         0         0         0
         0         0         0         0         0         0         0         0
         0         0         0         0         0         0         0         0
         0         0         0         0         0         0         0         0
         0         0         0         0         0         0         0         0
         0         0         0         0         0         0         0         0
         0         0         0         0         0         0         0         0
         0         0         0         0         0         0         0         0
         0         0         0         0         0         0         0         0
         0         0         0         0         0         0         0         0
         0         0         0         0         0         0         0         0
         0         0         0         0         0         0         0         0
         0         0         0         0         0         0         0         0
         0         0         0         0         0         0         0         0
         0         0         0         0         0         0         0         0
         0         0         0         0         0         0         0         0
         0         0         0         0         0         0         0         0
         0         0         0         0         0         0         0         0
         0         0         0         0         0         0         0         0
         0         0         0         0         0         0         0         0
         0         0         0         0         0         0         0         0
         0         0         0         0         0         0         0         0
         0         0         0         0         0         0         0         0
         0         0         0         0         0         0         0         0
         0         0         0         0         0         0         0         0
         0         0         0         0         0         0         0         0
         0         0         0         0         0         0         0         0
         0         0         0         0         0         0         0         0
         0         0         0         0         0         0         0         0
         0         0         0         0         0         0         0         0
         0         0         0         0         0         0         0         0
         0         0         0         0         0         0         0         0
         0         0         0         0         0         0         0         0
         0         0         0         0         0         0         0         0
         0         0         0         0         0         0         0         0
         0         0         0         0         0         0         0         0
         0         0         0         0         0         0         0         0
         0         0         0         0         0         0         0         0
         0         0         0         0         0         0         0         0
         0         0         0         0         0         0         0         0
         0         0         0         0         0         0         0         0
         0         0         0         0         0         0         0         0
         0         0         0         0         0         0         0         0
         0         0         0         0         0         0         0         0
         0         0         0         0         0         0         0         0
         0         0         0         0         0         0         0         0
         0         0         0         0         0         0         0         0
         0         0         0         0         0         0         0         0
         0         0         0         0         0         0         0         0
         0         0         0         0         0         0         0         0
         0         0         0         0         0         0         0         0
         0         0         0         0         0         0         0         0
         0         0         0         0         0         0         0         0
         0         0         0         0         0         0         0         0
         0         0         0         0         0         0         0         0
         0         0         0         0         0         0         0         0
         0         0         0         0         0         0         0         0
         0         0         0         0         0         0         0         0
         0         0         0         0         0         0         0         0
         0         0         0         0         0         0         0         0
         0         0         0         0         0         0         0         0
         0         0         0         0         0         0         0         0
         0         0         0         0         0         0         0         0
         0         0         0         0         0         0         0         0
         0         0         0         0         0         0         0         0
         0         0         0         0         0         0         0         0
         0         0         0         0         0         0         0         0
         0         0         0         0         0         0         0         0
         0         0         0         0         0         0         0         0
         0         0         0         0         0         0         0         0
         0         0         0         0         0         0         0         0
         0         0         0         0         0         0         0         0
         0         0         0         0         0         0         0         0
         0         0         0         0         0         0         0         0
         0         0         0         0         0         0         0         0
         0         0         0         0         0         0         0         0
         0         0         0         0         0         0         0         0
         0         0         0         0         0         0         0         0
         0         0         0         0         0         0         0         0
         0         0         0         0         0         0         0         0
         0         0         0         0         0         0         0         0
         0         0         0         0         0         0         0         0
         0         0         0         0         0         0         0         0
         0         0         0         0         0         0         0         0
         0         0         0         0         0         0         0         0
         0         0         0         0         0         0         0         0
         0         0         0         0         0         0         0         0
         0         0         0         0         0         0         0         0
         0         0         0         0         0         0         0         0
         0         0         0         0         0         0         0         0
         0         0         0         0         0         0         0         0
         0         0         0         0         0         0         0         0
         0         0         0         0         0         0         0         0
         0         0         0         0         0         0         0         0
         0         0         0         0         0         0         0         0
         0         0         0         0         0         0         0         0
         0         0         0         0         0         0         0         0
         0         0         0         0         0         0         0         0
         0         0         0         0         0         0         0         0
         0         0         0         0         0         0         0         0
         0         0         0         0         0         0         0         0
         0         0         0         0         0         0         0         0
         0         0         0         0         0         0         0         0
         0         0         0         0         0         0         0         0
         0         0         0         0         0         0         0         0
         0         0         0         0         0         0         0         0
         0         0         0         0         0         0         0         0
         0         0         0         0         0         0         0         0
         0         0         0         0         0         0         0         0
         0         0         0         0         0         0         0         0
         0         0         0         0         0         0         0         0
         0         0         0         0         0         0         0         0
         0         0         0         0         0         0         0         0
         0         0         0         0         0         0         0         0
         0         0         0         0         0         0         0         0
         0         0         0         0         0         0         0         0
         0         0         0         0         0         0         0         0
         0         0         0         0         0         0         0         0
         0         0         0         0         0         0         0         0
         0         0         0         0         0         0         0         0
         0         0         0         0         0         0         0         0
         0         0         0         0         0         0         0         0
         0         0         0         0         0         0         0         0
         0         0         0         0         0         0         0         0
         0         0         0         0         0         0         0         0
         0         0         0         0         0         0         0         0
         0         0         0         0         0         0         0         0
         0         0         0         0         0         0         0         0
         0         0         0         0         0         0         0         0
         0         0         0         0         0         0         0         0
         0         0         0         0         0         0         0         0
         0         0         0         0         0         0         0         0
         0         0         0         0         0         0         0         0
         0         0         0         0         0         0         0         0
         0         0         0         0         0         0         0         0
         0         0         0         0         0         0         0         0
         0         0         0         0         0         0         0         0
         0         0         0         0         0         0         0         0
         0         0         0         0         0         0         0         0
         0         0         0         0         0         0         0         0
         0         0         0         0         0         0         0         0
         0         0         0         0         0         0         0         0
         0         0         0         0         0         0         0         0
         0         0         0         0         0         0         0         0
         0         0         0         0         0         0         0         0
         0         0         0         0         0         0         0         0
         0         0         0         0         0         0         0         0
         0         0         0         0         0         0         0         0
         0         0         0         0         0         0         0         0
         0         0         0         0         0         0         0         0
         0         0         0         0         0         0         0         0
         0         0         0         0         0         0         0         0
         0         0         0         0         0         0         0         0
         0         0         0         0         0         0         0         0
         0         0         0         0         0         0         0         0
         0         0         0         0         0         0         0         0
         0         0         0         0         0         0         0         0
         0         0         0         0         0         0         0         0
         0         0         0         0         0         0         0         0
         0         0         0         0         0         0         0         0
         0         0         0         0         0         0         0         0
         0         0         0         0         0         0         0         0
         0         0         0         0         0         0         0         0
         0         0         0         0         0         0         0         0
         0         0         0         0         0         0         0         0
         0         0         0         0         0         0         0         0
         0         0         0         0         0         0         0         0
         0         0         0         0         0         0         0         0
         0         0         0         0         0         0         0         0
         0         0         0         0         0         0         0         0
         0         0         0         0         0         0         0         0
         0         0         0         0         0         0         0         0
         0         0         0         0         0         0         0         0
         0         0         0         0         0         0         0         0
         0         0         0         0         0         0         0         0
         0         0         0         0         0         0         0         0
         0         0         0         0         0         0         0         0
         0         0         0         0         0         0         0         0
         0         0         0         0         0         0         0         0
         0         0         0         0         0         0         0         0
         0         0         0         0         0         0         0         0
         0         0         0         0         0         0         0         0
         0         0         0         0         0         0         0         0
         0         0         0         0         0         0         0         0
         0         0         0         0         0         0         0         0
         0         0         0         0         0         0         0         0
         0         0         0         0         0         0         0         0
         0         0         0         0         0         0         0         0
         0         0         0         0         0         0         0         0
         0         0         0         0         0         0         0         0
         0         0         0         0         0         0         0         0
         0         0         0         0         0         0         0         0
         0         0         0         0         0         0         0         0
         0         0         0         0         0         0         0         0
         0         0         0         0         0         0         0         0
         0         0         0         0         0         0         0         0
         0         0         0         0         0         0         0         0
         0         0         0         0         0         0         0         0
         0         0         0         0         0         0         0         0
         0         0         0         0         0         0         0         0
         0         0         0         0         0         0         0         0
         0         0         0         0         0         0         0         0
         0         0         0         0         0         0         0         0
         0         0         0         0         0         0         0         0
         0         0         0         0         0         0         0         0
         0         0         0         0         0         0         0         0
         0         0         0         0         0         0         0         0
         0         0         0         0         0         0         0         0
         0         0         0         0         0         0         0         0
         0         0         0         0         0         0         0         0
         0         0         0         0         0         0         0         0
         0         0         0         0         0         0         0         0
         0         0         0         0         0         0         0         0
         0         0         0         0         0         0         0         0
         0         0         0         0         0         0         0         0
         0         0         0         0         0         0         0         0
         0         0         0         0         0         0         0         0
         0         0         0         0         0         0         0         0
         0         0         0         0         0         0         0         0
         0         0         0         0         0         0         0         0
         0         0         0         0         0         0         0         0
         0         0         0         0         0         0         0         0
         0         0         0         0         0         0         0         0
         0         0         0         0         0         0         0         0
         0         0         0         0         0         0         0         0
         0         0         0         0         0         0         0         0
         0         0         0         0         0         0         0         0
         0         0         0         0         0         0         0         0
         0         0         0         0         0         0         0         0
         0         0         0         0         0         0         0         0
         0         0         0         0         0         0         0         0
         0         0         0         0         0         0         0         0
         0         0         0         0         0         0         0         0
         0         0         0         0         0         0         0         0
         0         0         0         0         0         0         0         0
         0         0         0         0         0         0         0         0
         0         0         0         0         0         0         0         0
         0         0         0         0         0         0         0         0
         0         0         0         0         0         0         0         0
         0         0         0         0         0         0         0         0
         0         0         0         0         0         0         0         0
         0         0         0         0         0         0         0         0
         0         0         0         0         0         0         0         0
         0         0         0         0         0         0         0         0
         0         0         0         0         0         0         0         0
         0         0         0         0         0         0         0         0
         0         0         0         0         0         0         0         0
         0         0         0         0         0         0         0         0
         0         0         0         0         0         0         0         0
         0         0         0         0         0         0         0         0
         0         0         0         0         0         0         0         0
         0         0         0         0         0         0         0         0
         0         0         0         0         0         0         0         0
         0         0         0         0         0         0         0         0
         0         0         0         0         0         0         0         0
         0         0         0         0         0         0         0         0
         0         0         0         0         0         0         0         0
         0         0         0         0         0         0         0         0
         0         0         0         0         0         0         0         0
         0         0         0         0         0         0         0         0
         0         0         0         0         0         0         0         0
         0         0         0         0         0         0         0         0
         0         0         0         0         0         0         0         0
         0         0         0         0         0         0         0         0
         0         0         0         0         0         0         0         0
         0         0         0         0         0         0         0         0
         0         0         0         0         0         0         0         0
         0         0         0         0         0         0         0         0
         0         0         0         0         0         0         0         0
         0         0         0         0         0         0         0         0
         0         0         0         0         0         0         0         0
         0         0         0         0         0         0         0         0
         0         0         0         0         0         0         0         0
         0         0         0         0         0         0         0         0
         0         0         0         0         0         0         0         0
         0         0         0         0         0         0         0         0
         0         0         0         0         0         0         0         0
         0         0         0         0         0         0         0         0
         0         0         0         0         0         0         0         0
         0         0         0         0         0         0         0         0
         0         0         0         0         0         0         0         0
         0         0         0         0         0         0         0         0
         0         0         0         0         0         0         0         0
         0         0         0         0         0         0         0         0
         0         0         0         0         0         0         0         0
         0         0         0         0         0         0         0         0
         0         0         0         0         0         0         0         0
         0         0         0         0         0         0         0         0
         0         0         0         0         0         0         0         0
         0         0         0         0         0         0         0         0
         0         0         0         0         0         0         0         0
         0         0         0         0         0         0         0         0
         0         0         0         0         0         0         0         0
         0         0         0         0         0         0         0         0
         0         0         0         0         0         0         0         0
         0         0         0         0         0         0         0         0
         0         0         0         0         0         0         0         0
         0         0         0         0         0         0         0         0
         0         0         0         0         0         0         0         0
         0         0         0         0         0         0         0         0
         0         0         0         0         0         0         0         0
         0         0         0         0         0         0         0         0
         0         0         0         0         0         0         0         0
         0         0         0         0         0         0         0         0
         0         0         0         0         0         0         0         0
         0         0         0         0         0         0         0         0
         0         0         0         0         0         0         0         0
         0         0         0         0         0         0         0         0
         0         0         0         0         0         0         0         0
         0         0         0         0         0         0         0         0
         0         0         0         0         0         0         0         0
         0         0         0         0         0         0         0         0
         0         0         0         0         0         0         0         0
         0         0         0         0         0         0         0         0
         0         0         0         0         0         0         0         0
         0         0         0         0         0         0         0         0
         0         0         0         0         0         0         0         0
         0         0         0         0         0         0         0         0
         0         0         0         0         0         0         0         0
         0         0         0         0         0         0         0         0
         0         0         0         0         0         0         0         0
         0         0         0         0         0         0         0         0
         0         0         0         0         0         0         0         0
         0         0         0         0         0         0         0         0
         0         0         0         0         0         0         0         0
         0         0         0         0         0         0         0         0
         0         0         0         0         0         0         0         0
         0         0         0         0         0         0         0         0
         0         0         0         0         0         0         0         0
         0         0         0         0         0         0         0         0
         0         0         0         0         0         0         0         0
         0         0         0         0         0         0         0         0
         0         0         0         0         0         0         0         0
         0         0         0         0         0         0         0         0
         0         0         0         0         0         0         0         0
         0         0         0         0         0         0         0         0
         0         0         0         0         0         0         0         0
         0         0         0         0         0         0         0         0
         0         0         0         0         0         0         0         0
         0         0         0         0         0         0         0         0
         0         0         0         0         0         0         0         0
         0         0         0         0         0         0         0         0
         0         0         0         0         0         0         0         0
         0         0         0         0         0         0         0         0
         0         0         0         0         0         0         0         0
         0         0         0         0         0         0         0         0
         0         0         0         0         0         0         0         0
         0         0         0         0         0         0         0         0
         0         0         0         0         0         0         0         0
         0         0         0         0         0         0         0         0
         0         0         0         0         0         0         0         0
         0         0         0         0         0         0         0         0
         0         0         0         0         0         0         0         0
         0         0         0         0         0         0         0         0
         0         0         0         0         0         0         0         0
         0         0         0         0         0         0         0         0
         0         0         0         0         0         0         0         0
         0         0         0         0         0         0         0         0
         0         0         0         0         0         0         0         0
         0         0         0         0         0         0         0         0
         0         0         0         0         0         0         0         0
         0         0         0         0         0         0         0         0
         0         0         0         0         0         0         0         0
         0         0         0         0         0         0         0         0
         0         0         0         0         0         0         0         0
         0         0         0         0         0         0         0         0
         0         0         0         0         0         0         0         0
         0         0         0         0         0         0         0         0
         0         0         0         0         0         0         0         0
         0         0         0         0         0         0         0         0
         0         0         0         0         0         0         0         0
         0         0         0         0         0         0         0         0
         0         0         0         0         0         0         0         0
         0         0         0         0         0         0         0         0
         0         0         0         0         0         0         0         0
         0         0         0         0         0         0         0         0
         0         0         0         0         0         0         0         0
         0         0         0         0         0         0         0         0
         0         0         0         0         0         0         0         0
         0         0         0         0         0         0         0         0
         0         0         0         0         0         0         0         0
         0         0         0         0         0         0         0         0
         0         0         0         0         0         0         0         0
         0         0         0         0         0         0         0         0
         0         0         0         0         0         0         0         0
         0         0         0         0         0         0         0         0
         0         0         0         0         0         0         0         0
         0         0         0         0         0         0         0         0
         0         0         0         0         0         0         0         0
         0         0         0         0         0         0         0         0
         0         0         0         0         0         0         0         0
         0         0         0         0         0         0         0         0
         0         0         0         0         0         0         0         0
         0         0         0         0         0         0         0         0
         0         0         0         0         0         0         0         0
         0         0         0         0         0         0         0         0
         0         0         0         0         0         0         0         0
         0         0         0         0         0         0         0         0
         0         0         0         0         0         0         0         0
         0         0         0         0         0         0         0         0
         0         0         0         0         0         0         0         0
         0         0         0         0         0         0         0         0
         0         0         0         0         0         0         0         0
         0         0         0         0         0         0         0         0
         0         0         0         0         0         0         0         0
         0         0         0         0         0         0         0         0
         0         0         0         0         0         0         0         0
         0         0         0         0         0         0         0         0
         0         0         0         0         0         0         0         0
         0         0         0         0         0         0         0         0
         0         0         0         0         0         0         0         0
         0         0         0         0         0         0         0         0
         0         0         0         0         0         0         0         0
         0         0         0         0         0         0         0         0
         0         0         0         0         0         0         0         0
         0         0         0         0         0         0         0         0
         0         0         0         0         0         0         0         0
         0         0         0         0         0         0         0         0
         0         0         0         0         0         0         0         0
         0         0         0         0         0         0         0         0
         0         0         0         0         0         0         0         0
         0         0         0         0         0         0         0         0
         0         0         0         0         0         0         0         0
         0         0         0         0         0         0         0         0
         0         0         0         0         0         0         0         0
         0         0         0         0         0         0         0         0
         0         0         0         0         0         0         0         0
         0         0         0         0         0         0         0         0
         0         0         0         0         0         0         0         0
         0         0         0         0         0         0         0         0
         0         0         0         0         0         0         0         0
         0         0         0         0         0         0         0         0
         0         0         0         0         0         0         0         0
         0         0         0         0         0         0         0         0
         0         0         0         0         0         0         0         0
         0         0         0         0         0         0         0         0
         0         0         0         0         0         0         0         0
         0         0         0         0         0         0         0         0
         0         0         0         0         0         0         0         0
         0         0         0         0         0         0         0         0
         0         0         0         0         0         0         0         0
         0         0         0         0         0         0         0         0
         0         0         0         0         0         0         0         0
         0         0         0         0         0         0         0         0
         0         0         0         0         0         0         0         0
         0         0         0         0         0         0         0         0
         0         0         0         0         0         0         0         0
         0         0         0         0         0         0         0         0
         0         0         0         0         0         0         0         0
         0         0         0         0         0         0         0         0
         0         0         0         0         0         0         0         0
         0         0         0         0         0         0         0         0
         0         0         0         0         0         0         0         0
         0         0         0         0         0         0         0         0
         0         0         0         0         0         0         0         0
         0         0         0         0         0         0         0         0
         0         0         0         0         0         0         0         0
         0         0         0         0         0         0         0         0
         0         0         0         0         0         0         0         0
         0         0         0         0         0         0         0         0
         0         0         0         0         0         0         0         0
         0         0         0         0         0         0         0         0
         0         0         0         0         0         0         0         0
         0         0         0         0         0         0         0         0
         0         0         0         0         0         0         0         0
         0         0         0         0         0         0         0         0
         0         0         0         0         0         0         0         0
         0         0         0         0         0         0         0         0
         0         0         0         0         0         0         0         0
         0         0         0         0         0         0         0         0
         0         0         0         0         0         0         0         0
         0         0         0         0         0         0         0         0
         0         0         0         0         0         0         0         0
         0         0         0         0         0         0         0         0
         0         0         0         0         0         0         0         0
         0         0         0         0         0         0         0         0
         0         0         0         0         0         0         0         0
         0         0         0         0         0         0         0         0
         0         0         0         0         0         0         0         0
         0         0         0         0         0         0         0         0
         0         0         0         0         0         0         0         0
         0         0         0         0         0         0         0         0
         0         0         0         0         0         0         0         0
         0         0         0         0         0         0         0         0
         0         0         0         0         0         0         0         0
         0         0         0         0         0         0         0         0
         0         0         0         0         0         0         0         0
         0         0         0         0         0         0         0         0
         0         0         0         0         0         0         0         0
         0         0         0         0         0         0         0         0
         0         0         0         0         0         0         0         0
         0         0         0         0         0         0         0         0
         0         0         0         0         0         0         0         0
         0         0         0         0         0         0         0         0
         0         0         0         0         0         0         0         0
         0         0         0         0         0         0         0         0
         0         0         0         0         0         0         0         0
         0         0         0         0         0         0         0         0
         0         0         0         0         0         0         0         0
         0         0         0         0         0         0         0         0
         0         0         0         0         0         0         0         0
         0         0         0         0         0         0         0         0
         0         0         0         0         0         0         0         0
         0         0         0         0         0         0         0         0
         0         0         0         0         0         0         0         0
         0         0         0         0         0         0         0         0
         0         0         0         0         0         0         0         0
         0         0         0         0         0         0         0         0
         0         0         0         0         0         0         0         0
         0         0         0         0         0         0         0         0
         0         0         0         0         0         0         0         0
         0         0         0         0         0         0         0         0
         0         0         0         0         0         0         0         0
         0         0         0         0         0         0         0         0
         0         0         0         0         0         0         0         0
         0         0         0         0         0         0         0         0
         0         0         0         0         0         0         0         0
         0         0         0         0         0         0         0         0
         0         0         0         0         0         0         0         0
         0         0         0         0         0         0         0         0
         0         0         0         0         0         0         0         0
         0         0         0         0         0         0         0         0
         0         0         0         0         0         0         0         0
         0         0         0         0         0         0         0         0
         0         0         0         0         0         0         0         0
         0         0         0         0         0         0         0         0
         0         0         0         0         0         0         0         0
         0         0         0         0         0         0         0         0
         0         0         0         0         0         0         0         0
         0         0         0         0         0         0         0         0
         0         0         0         0         0         0         0         0
         0         0         0         0         0         0         0         0
         0         0         0         0         0         0         0         0
         0         0         0         0         0         0         0         0
         0         0         0         0         0         0         0         0
         0         0         0         0         0         0         0         0
         0         0         0         0         0         0         0         0
         0         0         0         0         0         0         0         0
         0         0         0         0         0         0         0         0
         0         0         0         0         0         0         0         0
         0         0         0         0         0         0         0         0
         0         0         0         0         0         0         0         0
         0         0         0         0         0         0         0         0
         0         0         0         0         0         0         0         0
         0         0         0         0         0         0         0         0
         0         0         0         0         0         0         0         0
         0         0         0         0         0         0         0         0
         0         0         0         0         0         0         0         0
         0         0         0         0         0         0         0         0
         0         0         0         0         0         0         0         0
         0         0         0         0         0         0         0         0
         0         0         0         0         0         0         0         0
         0         0         0         0         0         0         0         0
         0         0         0         0         0         0         0         0
         0         0         0         0         0         0         0         0
         0         0         0         0         0         0         0         0
         0         0         0         0         0         0         0         0
         0         0         0         0         0         0         0         0
         0         0         0         0         0         0         0         0
         0         0         0         0         0         0         0         0
         0         0         0         0         0         0         0         0
         0         0         0         0         0         0         0         0
         0         0         0         0         0         0         0         0
         0         0         0         0         0         0         0         0
         0         0         0         0         0         0         0         0
         0         0         0         0         0         0         0         0
         0         0         0         0         0         0         0         0
         0         0         0         0         0         0         0         0
         0         0         0         0         0         0         0         0
         0         0         0         0         0         0         0         0
         0         0         0         0         0         0         0         0
         0         0         0         0         0         0         0         0
         0         0         0         0         0         0         0         0
         0         0         0         0         0         0         0         0
         0         0         0         0         0         0         0         0
         0         0         0         0         0         0         0         0
         0         0         0         0         0         0         0         0
         0         0         0         0         0         0         0         0
         0         0         0         0         0         0         0         0
         0         0         0         0         0         0         0         0
         0         0         0         0         0         0         0         0
         0         0         0         0         0         0         0         0
         0         0         0         0         0         0         0         0
         0         0         0         0         0         0         0         0
         0         0         0         0         0         0         0         0
         0         0         0         0         0         0         0         0
         0         0         0         0         0         0         0         0
         0         0         0         0         0         0         0         0
         0         0         0         0         0         0         0         0
         0         0         0         0         0         0         0         0
         0         0         0         0         0         0         0         0
         0         0         0         0         0         0         0         0
         0         0         0         0         0         0         0         0
         0         0         0         0         0         0         0         0
         0         0         0         0         0         0         0         0
         0         0         0         0         0         0         0         0
         0         0         0         0         0         0         0         0
         0         0         0         0         0         0         0         0
         0         0         0         0         0         0         0         0
         0         0         0         0         0         0         0         0
         0         0         0         0         0         0         0         0
         0         0         0         0         0         0         0         0
         0         0         0         0         0         0         0         0
         0         0         0         0         0         0         0         0
         0         0         0         0         0         0         0         0
         0         0         0         0         0         0         0         0
         0         0         0         0         0         0         0         0
         0         0         0         0         0         0         0         0
         0         0         0         0         0         0         0         0
         0         0         0         0         0         0         0         0
         0         0         0         0         0         0         0         0
         0         0         0         0         0         0         0         0
         0         0         0         0         0         0         0         0
         0         0         0         0         0         0         0         0
         0         0         0         0         0         0         0         0
         0         0         0         0         0         0         0         0
         0         0         0         0         0         0         0         0
         0         0         0         0         0         0         0         0
         0         0         0         0         0         0         0         0
         0         0         0         0         0         0         0         0
         0         0         0         0         0         0         0         0
         0         0         0         0         0         0         0         0
         0         0         0         0         0         0         0         0
         0         0         0         0         0         0         0         0
         0         0         0         0         0         0         0         0
         0         0         0         0         0         0         0         0
         0         0         0         0         0         0         0         0
         0         0         0         0         0         0         0         0
         0         0         0         0         0         0         0         0
         0         0         0         0         0         0         0         0
         0         0         0         0         0         0         0         0
         0         0         0         0         0         0         0         0
         0         0         0         0         0         0         0         0
         0         0         0         0         0         0         0         0
         0         0         0         0         0         0         0         0
         0         0         0         0         0         0         0         0
         0         0         0         0         0         0         0         0
         0         0         0         0         0         0         0         0
         0         0         0         0         0         0         0         0
         0         0         0         0         0         0         0         0
         0         0         0         0         0         0         0         0
         0         0         0         0         0         0         0         0
         0         0         0         0         0         0         0         0
         0         0         0         0         0         0         0         0
         0         0         0         0         0         0         0         0
         0         0         0         0         0         0         0         0
         0         0         0         0         0         0         0         0
         0         0         0         0         0         0         0         0
         0         0         0         0         0         0         0         0
         0         0         0         0         0         0         0         0
         0         0         0         0         0         0         0         0
         0         0         0         0         0         0         0         0
         0         0         0         0         0         0         0         0
         0         0         0         0         0         0         0         0
         0         0         0         0         0         0         0         0
         0         0         0         0         0         0         0         0
         0         0         0         0         0         0         0         0
         0         0         0         0         0         0         0         0
         0         0         0         0         0         0         0         0
         0         0         0         0         0         0         0         0
         0         0         0         0         0         0         0         0
         0         0         0         0         0         0         0         0
         0         0         0         0         0         0         0         0
         0         0         0         0         0         0         0         0
         0         0         0         0         0         0         0         0
         0         0         0         0         0         0         0         0
         0         0         0         0         0         0         0         0
         0         0         0         0         0         0         0         0
         0         0         0         0         0         0         0         0
         0         0         0         0         0         0         0         0
         0         0         0         0         0         0         0         0
         0         0         0         0         0         0         0         0
         0         0         0         0         0         0         0         0
         0         0         0         0         0         0         0         0
         0         0         0         0         0         0         0         0
         0         0         0         0         0         0         0         0
         0         0         0         0         0         0         0         0
         0         0         0         0         0         0         0         0
         0         0         0         0         0         0         0         0
         0         0         0         0         0         0         0         0
         0         0         0         0         0         0         0         0
         0         0         0         0         0         0         0         0
         0         0         0         0         0         0         0         0
         0         0         0         0         0         0         0         0
         0         0         0         0         0         0         0         0
         0         0         0         0         0         0         0         0
         0         0         0         0         0         0         0         0
         0         0         0         0         0         0         0         0
         0         0         0         0         0         0         0         0
         0         0         0         0         0         0         0         0
         0         0         0         0         0         0         0         0
         0         0         0         0         0         0         0         0
         0         0         0         0         0         0         0         0
         0         0         0         0         0         0         0         0
         0         0         0         0         0         0         0         0
         0         0         0         0         0         0         0         0
         0         0         0         0         0         0         0         0
         0         0         0         0         0         0         0         0
         0         0         0         0         0         0         0         0
         0         0         0         0         0         0         0         0
         0         0         0         0         0         0         0         0
         0         0         0         0         0         0         0         0
         0         0         0         0         0         0         0         0
         0         0         0         0         0         0         0         0
         0         0         0         0         0         0         0         0
         0         0         0         0         0         0         0         0
         0         0         0         0         0         0         0         0
         0         0         0         0         0         0         0         0
         0         0         0         0         0         0         0         0
         0         0         0         0         0         0         0         0
         0         0         0         0         0         0         0         0
         0         0         0         0         0         0         0         0
         0         0         0         0         0         0         0         0
         0         0         0         0         0         0         0         0
         0         0         0         0         0         0         0         0
         0         0         0         0         0         0         0         0
         0         0         0         0         0         0         0         0
         0         0         0         0         0         0         0         0
         0         0         0         0         0         0         0         0
         0         0         0         0         0         0         0         0
         0         0         0         0         0         0         0         0
         0         0         0         0         0         0         0         0
         0         0         0         0         0         0         0         0
         0         0         0         0         0         0         0         0
         0         0         0         0         0         0         0         0
         0         0         0         0         0         0         0         0
         0         0         0         0         0         0         0         0
         0         0         0         0         0         0         0         0
         0         0         0         0         0         0         0         0
         0         0         0         0         0         0         0         0
         0         0         0         0         0         0         0         0
         0         0         0         0         0         0         0         0
         0         0         0         0         0         0         0         0
         0         0         0         0         0         0         0         0
         0         0         0         0         0         0         0         0
         0         0         0         0         0         0         0         0
         0         0         0         0         0         0         0         0
         0         0         0         0         0         0         0         0
         0         0         0         0         0         0         0         0
         0         0         0         0         0         0         0         0
         0         0         0         0         0         0         0         0
         0         0         0         0         0         0         0         0
         0         0         0         0         0         0         0         0
         0         0         0         0         0         0         0         0
         0         0         0         0         0         0         0         0
         0         0         0         0         0         0         0         0
         0         0         0         0         0         0         0         0
         0         0         0         0         0         0         0         0
         0         0         0         0         0         0         0         0
         0         0         0         0         0         0         0         0
         0         0         0         0         0         0         0         0
         0         0         0         0         0         0         0         0
         0         0         0         0         0         0         0         0
         0         0         0         0         0         0         0         0
         0         0         0         0         0         0         0         0
         0         0         0         0         0         0         0         0
         0         0         0         0         0         0         0         0
         0         0         0         0         0         0         0         0
         0         0         0         0         0         0         0         0
         0         0         0         0         0         0         0         0
         0         0         0         0         0         0         0         0
         0         0         0         0         0         0         0         0
         0         0         0         0         0         0         0         0
         0         0         0         0         0         0         0         0
         0         0         0         0         0         0         0         0
         0         0         0         0         0         0         0         0
         0         0         0         0         0         0         0         0
         0         0         0         0         0         0         0         0
         0         0         0         0         0         0         0         0
         0         0         0         0         0         0         0         0
         0         0         0         0         0         0         0         0
         0         0         0         0         0         0         0         0
         0         0         0         0         0         0         0         0
         0         0         0         0         0         0         0         0
         0         0         0         0         0         0         0         0
         0         0         0         0         0         0         0         0
         0         0         0         0         0         0         0         0
         0         0         0         0         0         0         0         0
         0         0         0         0         0         0         0         0
         0         0         0         0         0         0         0         0
         0         0         0         0         0         0         0         0
         0         0         0         0         0         0         0         0
         0         0         0         0         0         0         0         0
         0         0         0         0         0         0         0         0
         0         0         0         0         0         0         0         0
         0         0         0         0         0         0         0         0
         0         0         0         0         0         0         0         0
         0         0         0         0         0         0         0         0
         0         0         0         0         0         0         0         0
         0         0         0         0         0         0         0         0
         0         0         0         0         0         0         0         0
         0         0         0         0         0         0         0         0
         0         0         0         0         0         0         0         0
         0         0         0         0         0         0         0         0
         0         0         0         0         0         0         0         0
         0         0         0         0         0         0         0         0
         0         0         0         0         0         0         0         0
         0         0         0         0         0         0         0         0
         0         0         0         0         0         0         0         0
         0         0         0         0         0         0         0         0
         0         0         0         0         0         0         0         0
         0         0         0         0         0         0         0         0
         0         0         0         0         0         0         0         0
         0         0         0         0         0         0         0         0
         0         0         0         0         0         0         0         0
         0         0         0         0         0         0         0         0
         0         0         0         0         0         0         0         0
         0         0         0         0         0         0         0         0
         0         0         0         0         0         0         0         0
         0         0         0         0         0         0         0         0
         0         0         0         0         0         0         0         0
         0         0         0         0         0         0         0         0
         0         0         0         0         0         0         0         0
         0         0         0         0         0         0         0         0
         0         0         0         0         0         0         0         0
         0         0         0         0         0         0         0         0
         0         0         0         0         0         0         0         0
         0         0         0         0         0         0         0         0
         0         0         0         0         0         0         0         0
         0         0         0         0         0         0         0         0
         0         0         0         0         0         0         0         0
         0         0         0         0         0         0         0         0
         0         0         0         0         0         0         0         0
         0         0         0         0         0         0         0         0
         0         0         0         0         0         0         0         0
         0         0         0         0         0         0         0         0
         0         0         0         0         0         0         0         0
         0         0         0         0         0         0         0         0
         0         0         0         0         0         0         0         0
         0         0         0         0         0         0         0         0
         0         0         0         0         0         0         0         0
         0         0         0         0         0         0         0         0
         0         0         0         0         0         0         0         0
         0         0         0         0         0         0         0         0
         0         0         0         0         0         0         0         0
         0         0         0         0         0         0         0         0
         0         0         0         0         0         0         0         0
         0         0         0         0         0         0         0         0
         0         0         0         0         0         0         0         0
         0         0         0         0         0         0         0         0
         0         0         0         0         0         0         0         0
         0         0         0         0         0         0         0         0
         0         0         0         0         0         0         0         0
         0         0         0         0         0         0         0         0
         0         0         0         0         0         0         0         0
         0         0         0         0         0         0         0         0
         0         0         0         0         0         0         0         0
         0         0         0         0         0         0         0         0
         0         0         0         0         0         0         0         0
         0         0         0         0         0         0         0         0
         0         0         0         0         0         0         0         0
         0         0         0         0         0         0         0         0
         0         0         0         0         0         0         0         0
         0         0         0         0         0         0         0         0
         0         0         0         0         0         0         0         0
         0         0         0         0         0         0         0         0
         0         0         0         0         0         0         0         0
         0         0         0         0         0         0         0         0
         0         0         0         0         0         0         0         0
         0         0         0         0         0         0         0         0
         0         0         0         0         0         0         0         0
         0         0         0         0         0         0         0         0
         0         0         0         0         0         0         0         0
         0         0         0         0         0         0         0         0
         0         0         0         0         0         0         0         0
         0         0         0         0         0         0         0         0
         0         0         0         0         0         0         0         0
         0         0         0         0         0         0         0         0
         0         0         0         0         0         0         0         0
         0         0         0         0         0         0         0         0
         0         0         0         0         0         0         0         0
         0         0         0         0         0         0         0         0
         0         0         0         0         0         0         0         0
         0         0         0         0         0         0         0         0
         0         0         0         0         0         0         0         0
         0         0         0         0         0         0         0         0
         0         0         0         0         0         0         0         0
         0         0         0         0         0         0         0         0
         0         0         0         0         0         0         0         0
         0         0         0         0         0         0         0         0
         0         0         0         0         0         0         0         0
         0         0         0         0         0         0         0         0
         0         0         0         0         0         0         0         0
         0         0         0         0         0         0         0         0
         0         0         0         0         0         0         0         0
         0         0         0         0         0         0         0         0
         0         0         0         0         0         0         0         0
         0         0         0         0         0         0         0         0
         0         0         0         0         0         0         0         0
         0         0         0         0         0         0         0         0
         0         0         0         0         0         0         0         0
         0         0         0         0         0         0         0         0
         0         0         0         0         0         0         0         0
         0         0         0         0         0         0         0         0
         0         0         0         0         0         0         0         0
         0         0         0         0         0         0         0         0
         0         0         0         0         0         0         0         0
         0         0         0         0         0         0         0         0
         0         0         0         0         0         0         0         0
         0         0         0         0         0         0         0         0
         0         0         0         0         0         0         0         0
         0         0         0         0         0         0         0         0
         0         0         0         0         0         0         0         0
         0         0         0         0         0         0         0         0
         0         0         0         0         0         0         0         0
         0         0         0         0         0         0         0         0
         0         0         0         0         0         0         0         0
         0         0         0         0         0         0         0         0
         0         0         0         0         0         0         0         0
         0         0         0         0         0         0         0         0
         0         0         0         0         0         0         0         0
         0         0         0         0         0         0         0         0
         0         0         0         0         0         0         0         0
         0         0         0         0         0         0         0         0
         0         0         0         0         0         0         0         0
         0         0         0         0         0         0         0         0
         0         0         0         0         0         0         0         0
         0         0         0         0         0         0         0         0
         0         0         0         0         0         0         0         0
         0         0         0         0         0         0         0         0
         0         0         0         0         0         0         0         0
         0         0         0         0         0         0         0         0
         0         0         0         0         0         0         0         0
         0         0         0         0         0         0         0         0
         0         0         0         0         0         0         0         0
         0         0         0         0         0         0         0         0
         0         0         0         0         0         0         0         0
         0         0         0         0         0         0         0         0
         0         0         0         0         0         0         0         0
         0         0         0         0         0         0         0         0
         0         0         0         0         0         0         0         0
         0         0         0         0         0         0         0         0
         0         0         0         0         0         0         0         0
         0         0         0         0         0         0         0         0
         0         0         0         0         0         0         0         0
         0         0         0         0         0         0         0         0
         0         0         0         0         0         0         0         0
         0         0         0         0         0         0         0         0
         0         0         0         0         0         0         0         0
         0         0         0         0         0         0         0         0
         0         0         0         0         0         0         0         0
         0         0         0         0         0         0         0         0
         0         0         0         0         0         0         0         0
         0         0         0         0         0         0         0         0
         0         0         0         0         0         0         0         0
         0         0         0         0         0         0         0         0
         0         0         0         0         0         0         0         0
         0         0         0         0         0         0         0         0
         0         0         0         0         0         0         0         0
         0         0         0         0         0         0         0         0
         0         0         0         0         0         0         0         0
         0         0         0         0         0         0         0         0
         0         0         0         0         0         0         0         0
         0         0         0         0         0         0         0         0
         0         0         0         0         0         0         0         0
         0         0         0         0         0         0         0         0
         0         0         0         0         0         0         0         0
         0         0         0         0         0         0         0         0
         0         0         0         0         0         0         0         0
         0         0         0         0         0         0         0         0
         0         0         0         0         0         0         0         0
         0         0         0         0         0         0         0         0
         0         0         0         0         0         0         0         0
         0         0         0         0         0         0         0         0
         0         0         0         0         0         0         0         0
         0         0         0         0         0         0         0         0
         0         0         0         0         0         0         0         0
         0         0         0         0         0         0         0         0
         0         0         0         0         0         0         0         0
         0         0         0         0         0         0         0         0
         0         0         0         0         0         0         0         0
         0         0         0         0         0         0         0         0
         0         0         0         0         0         0         0         0
         0         0         0         0         0         0         0         0
         0         0         0         0         0         0         0         0
         0         0         0         0         0         0         0         0
         0         0         0         0         0         0         0         0
         0         0         0         0         0         0         0         0
         0         0         0         0         0         0         0         0
         0         0         0         0         0         0         0         0
         0         0         0         0         0         0         0         0
         0         0         0         0         0         0         0         0
         0         0         0         0         0         0         0         0
         0         0         0         0         0         0         0         0
         0         0         0         0         0         0         0         0
         0         0         0         0         0         0         0         0
         0         0         0         0         0         0         0         0
         0         0         0         0         0         0         0         0
         0         0         0         0         0         0         0         0
         0         0         0         0         0         0         0         0
         0         0         0         0         0         0         0         0
         0         0         0         0         0         0         0         0
         0         0         0         0         0         0         0         0
         0         0         0         0         0         0         0         0
         0         0         0         0         0         0         0         0
         0         0         0         0         0         0         0         0
         0         0         0         0         0         0         0         0
         0         0         0         0         0         0         0         0
         0         0         0         0         0         0         0         0
         0         0         0         0         0         0         0         0
         0         0         0         0         0         0         0         0
         0         0         0         0         0         0         0         0
         0         0         0         0         0         0         0         0
         0         0         0         0         0         0         0         0
         0         0         0         0         0         0         0         0
         0         0         0         0         0         0         0         0
         0         0         0         0         0         0         0         0
         0         0         0         0         0         0         0         0
         0         0         0         0         0         0         0         0
         0         0         0         0         0         0         0         0
         0         0         0         0         0         0         0         0
         0         0         0         0         0         0         0         0
         0         0         0         0         0         0         0         0
         0         0         0         0         0         0         0         0
         0         0         0         0         0         0         0         0
         0         0         0         0         0         0         0         0
         0         0         0         0         0         0         0         0
         0         0         0         0         0         0         0         0
         0         0         0         0         0         0         0         0
         0         0         0         0         0         0         0         0
         0         0         0         0         0         0         0         0
         0         0         0         0         0         0         0         0
         0         0         0         0         0         0         0         0
         0         0         0         0         0         0         0         0
         0         0         0         0         0         0         0         0
         0         0         0         0         0         0         0         0
         0         0         0         0         0         0         0         0
         0         0         0         0         0         0         0         0
         0         0         0         0         0         0         0         0
         0         0         0         0         0         0         0         0
         0         0         0         0         0         0         0         0
         0         0         0         0         0         0         0         0
         0         0         0         0         0         0         0         0
         0         0         0         0         0         0         0         0
         0         0         0         0         0         0         0         0
         0         0         0         0         0         0         0         0
         0         0         0         0         0         0         0         0
         0         0         0         0         0         0         0         0
         0         0         0         0         0         0         0         0
         0         0         0         0         0         0         0         0
         0         0         0         0         0         0         0         0
         0         0         0         0         0         0         0         0
         0         0         0         0         0         0         0         0
         0         0         0         0         0         0         0         0
         0         0         0         0         0         0         0         0
         0         0         0         0         0         0         0         0
         0         0         0         0         0         0         0         0
         0         0         0         0         0         0         0         0
         0         0         0         0         0         0         0         0
         0         0         0         0         0         0         0         0
         0         0         0         0         0         0         0         0
         0         0         0         0         0         0         0         0
         0         0         0         0         0         0         0         0
         0         0         0         0         0         0         0         0
         0         0         0         0         0         0         0         0
         0         0         0         0         0         0         0         0
         0         0         0         0         0         0         0         0
         0         0         0         0         0         0         0         0
         0         0         0         0         0         0         0         0
         0         0         0         0         0         0         0         0
         0         0         0         0         0         0         0         0
         0         0         0         0         0         0         0         0
         0         0         0         0         0         0         0         0
         0         0         0         0         0         0         0         0
         0         0         0         0         0         0         0         0
         0         0         0         0         0         0         0         0
         0         0         0         0         0         0         0         0
         0         0         0         0         0         0         0         0
         0         0         0         0         0         0         0         0
         0         0         0         0         0         0         0         0
         0         0         0         0         0         0         0         0
         0         0         0         0         0         0         0         0
         0         0         0         0         0         0         0         0
         0         0         0         0         0         0         0         0
         0         0         0         0         0         0         0         0
         0         0         0         0         0         0         0         0
         0         0         0         0         0         0         0         0
         0         0         0         0         0         0         0         0
         0         0         0         0         0         0         0         0
         0         0         0         0         0         0         0         0
         0         0         0         0         0         0         0         0
         0         0         0         0         0         0         0         0
         0         0         0         0         0         0         0         0
         0         0         0         0         0         0         0         0
         0         0         0         0         0         0         0         0
         0         0         0         0         0         0         0         0
         0         0         0         0         0         0         0         0
         0         0         0         0         0         0         0         0
         0         0         0         0         0         0         0         0
         0         0         0         0         0         0         0         0
         0         0         0         0         0         0         0         0
         0         0         0         0         0         0         0         0
         0         0         0         0         0         0         0         0
         0         0         0         0         0         0         0         0
         0         0         0         0         0         0         0         0
         0         0         0         0         0         0         0         0
         0         0         0         0         0         0         0         0
         0         0         0         0         0         0         0         0
         0         0         0         0         0         0         0         0
         0         0         0         0         0         0         0         0
         0         0         0         0         0         0         0         0
         0         0         0         0         0         0         0         0
         0         0         0         0         0         0         0         0
         0         0         0         0         0         0         0         0
         0         0         0         0         0         0         0         0
         0         0         0         0         0         0         0         0
         0         0         0         0         0         0         0         0
         0         0         0         0         0         0         0         0
         0         0         0         0         0         0         0         0
         0         0         0         0         0         0         0         0
         0         0         0         0         0         0         0         0
         0         0         0         0         0         0         0         0
         0         0         0         0         0         0         0         0
         0         0         0         0         0         0         0         0
         0         0         0         0         0         0         0         0
         0         0         0         0         0         0         0         0
         0         0         0         0         0         0         0         0
         0         0         0         0         0         0         0         0
         0         0         0         0         0         0         0         0
         0         0         0         0         0         0         0         0
         0         0         0         0         0         0         0         0
         0         0         0         0         0         0         0         0
         0         0         0         0         0         0         0         0
         0         0         0         0         0         0         0         0
         0         0         0         0         0         0         0         0
         0         0         0         0         0         0         0         0
         0         0         0         0         0         0         0         0
         0         0         0         0         0         0         0         0
         0         0         0         0         0         0         0         0
         0         0         0         0         0         0         0         0
         0         0         0         0         0         0         0         0
         0         0         0         0         0         0         0         0
         0         0         0         0         0         0         0         0
         0         0         0         0         0         0         0         0
         0         0         0         0         0         0         0         0
         0         0         0         0         0         0         0         0
         0         0         0         0         0         0         0         0
         0         0         0         0         0         0         0         0
         0         0         0         0         0         0         0         0
         0         0         0         0         0         0         0         0
         0         0         0         0         0         0         0         0
         0         0         0         0         0         0         0         0
         0         0         0         0         0         0         0         0
         0         0         0         0         0         0         0         0
         0         0         0         0         0         0         0         0
         0         0         0         0         0         0         0         0
         0         0         0         0         0         0         0         0
         0         0         0         0         0         0         0         0
         0         0         0         0         0         0         0         0
         0         0         0         0         0         0         0         0
         0         0         0         0         0         0         0         0
         0         0         0         0         0         0         0         0
         0         0         0         0         0         0         0         0
         0         0         0         0         0         0         0         0
         0         0         0         0         0         0         0         0
         0         0         0         0         0         0         0         0
         0         0         0         0         0         0         0         0
         0         0         0         0         0         0         0         0
         0         0         0         0         0         0         0         0
         0         0         0         0         0         0         0         0
         0         0         0         0         0         0         0         0
         0         0         0         0         0         0         0         0
         0         0         0         0         0         0         0         0
         0         0         0         0         0         0         0         0
         0         0         0         0         0         0         0         0
         0         0         0         0         0         0         0         0
         0         0         0         0         0         0         0         0
         0         0         0         0         0         0         0         0
         0         0         0         0         0         0         0         0
         0         0         0         0         0         0         0         0
         0         0         0         0         0         0         0         0
         0         0         0         0         0         0         0         0
         0         0         0         0         0         0         0         0
         0         0         0         0         0         0         0         0
         0         0         0         0         0         0         0         0
         0         0         0         0         0         0         0         0
         0         0         0         0         0         0         0         0
         0         0         0         0         0         0         0         0
         0         0         0         0         0         0         0         0
         0         0         0         0         0         0         0         0
         0         0         0         0         0         0         0         0
         0         0         0         0         0         0         0         0
         0         0         0         0         0         0         0         0
         0         0         0         0         0         0         0         0
         0         0         0         0         0         0         0         0
         0         0         0         0         0         0         0         0
         0         0         0         0         0         0         0         0
         0         0         0         0         0         0         0         0
         0         0         0         0         0         0         0         0
         0         0         0         0         0         0         0         0
         0         0         0         0         0         0         0         0
         0         0         0         0         0         0         0         0
         0         0         0         0         0         0         0         0
         0         0         0         0         0         0         0         0
         0         0         0         0         0         0         0         0
         0         0         0         0         0         0         0         0
         0         0         0         0         0         0         0         0
         0         0         0         0         0         0         0         0
         0         0         0         0         0         0         0         0
         0         0         0         0         0         0         0         0
         0         0         0         0         0         0         0         0
         0         0         0         0         0         0         0         0
         0         0         0         0         0         0         0         0
         0         0         0         0         0         0         0         0
         0         0         0         0         0         0         0         0
         0         0         0         0         0         0         0         0
         0         0         0         0         0         0         0         0
         0         0         0         0         0         0         0         0
         0         0         0         0         0         0         0         0
         0         0         0         0         0         0         0         0
         0         0         0         0         0         0         0         0
         0         0         0         0         0         0         0         0
         0         0         0         0         0         0         0         0
         0         0         0         0         0         0         0         0
         0         0         0         0         0         0         0         0
         0         0         0         0         0         0         0         0
         0         0         0         0         0         0         0         0
         0         0         0         0         0         0         0         0
         0         0         0         0         0         0         0         0
         0         0         0         0         0         0         0         0
         0         0         0         0         0         0         0         0
         0         0         0         0         0         0         0         0
         0         0         0         0         0         0         0         0
         0         0         0         0         0         0         0         0
         0         0         0         0         0         0         0         0
         0         0         0         0         0         0         0         0
         0         0         0         0         0         0         0         0
         0         0         0         0         0         0         0         0
         0         0         0         0         0         0         0         0
         0         0         0         0         0         0         0         0
         0         0         0         0         0         0         0         0
         0         0         0         0         0         0         0         0
         0         0         0         0         0         0         0         0
         0         0         0         0         0         0         0         0
         0         0         0         0         0         0         0         0
         0         0         0         0         0         0         0         0
         0         0         0         0         0         0         0         0
         0         0         0         0         0         0         0         0
         0         0         0         0         0         0         0         0
         0         0         0         0         0         0         0         0
         0         0         0         0         0         0         0         0
         0         0         0         0         0         0         0         0
         0         0         0         0         0         0         0         0
         0         0         0         0         0         0         0         0
         0         0         0         0         0         0         0         0
         0         0         0         0         0         0         0         0
         0         0         0         0         0         0         0         0
         0         0         0         0         0         0         0         0
         0         0         0         0         0         0         0         0
         0         0         0         0         0         0         0         0
         0         0         0         0         0         0         0         0
         0         0         0         0         0         0         0         0
         0         0         0         0         0         0         0         0
         0         0         0         0         0         0         0         0
         0         0         0         0         0         0         0         0
         0         0         0         0         0         0         0         0
         0         0         0         0         0         0         0         0
         0         0         0         0         0         0         0         0
         0         0         0         0         0         0         0         0
         0         0         0         0         0         0         0         0
         0         0         0         0         0         0         0         0
         0         0         0         0         0         0         0         0
         0         0         0         0         0         0         0         0
         0         0         0         0         0         0         0         0
         0         0         0         0         0         0         0         0
         0         0         0         0         0         0         0         0
         0         0         0         0         0         0         0         0
         0         0         0         0         0         0         0         0
         0         0         0         0         0         0         0         0
         0         0         0         0         0         0         0         0
         0         0         0         0         0         0         0         0
         0         0         0         0         0         0         0         0
         0         0         0         0         0         0         0         0
         0         0         0         0         0         0         0         0
         0         0         0         0         0         0         0         0
         0         0         0         0         0         0         0         0
         0         0         0         0         0         0         0         0
         0         0         0         0         0         0         0         0
         0         0         0         0         0         0         0         0
         0         0         0         0         0         0         0         0
         0         0         0         0         0         0         0         0
         0         0         0         0         0         0         0         0
         0         0         0         0         0         0         0         0
         0         0         0         0         0         0         0         0
         0         0         0         0         0         0         0         0
         0         0         0         0         0         0         0         0
         0         0         0         0         0         0         0         0
         0         0         0         0         0         0         0         0
         0         0         0         0         0         0         0         0
         0         0         0         0         0         0         0         0
         0         0         0         0         0         0         0         0
         0         0         0         0         0         0         0         0
         0         0         0         0         0         0         0         0
         0         0         0         0         0         0         0         0
         0         0         0         0         0         0         0         0
         0         0         0         0         0         0         0         0
         0         0         0         0         0         0         0         0
         0         0         0         0         0         0         0         0
         0         0         0         0         0         0         0         0
         0         0         0         0         0         0         0         0
         0         0         0         0         0         0         0         0
         0         0         0         0         0         0         0         0
         0         0         0         0         0         0         0         0
         0         0         0         0         0         0         0         0
         0         0         0         0         0         0         0         0
         0         0         0         0         0         0         0         0
         0         0         0         0         0         0         0         0
         0         0         0         0         0         0         0         0
         0         0         0         0         0         0         0         0
         0         0         0         0         0         0         0         0
         0         0         0         0         0         0         0         0
         0         0         0         0         0         0         0         0
         0         0         0         0         0         0         0         0
         0         0         0         0         0         0         0         0
         0         0         0         0         0         0         0         0
         0         0         0         0         0         0         0         0
         0         0         0         0         0         0         0         0
         0         0         0         0         0         0         0         0
         0         0         0         0         0         0         0         0
         0         0         0         0         0         0         0         0
         0         0         0         0         0         0         0         0
         0         0         0         0         0         0         0         0
         0         0         0         0         0         0         0         0
         0         0         0         0         0         0         0         0
         0         0         0         0         0         0         0         0
         0         0         0         0         0         0         0         0
         0         0         0         0         0         0         0         0
         0         0         0         0         0         0         0         0
         0         0         0         0         0         0         0         0
         0         0         0         0         0         0         0         0
         0         0         0         0         0         0         0         0
         0         0         0         0         0         0         0         0
         0         0         0         0         0         0         0         0
         0         0         0         0         0         0         0         0
         0         0         0         0         0         0         0         0
         0         0         0         0         0         0         0         0
         0         0         0         0         0         0         0         0
         0         0         0         0         0         0         0         0
         0         0         0         0         0         0         0         0
         0         0         0         0         0         0         0         0
         0         0         0         0         0         0         0         0
         0         0         0         0         0         0         0         0
         0         0         0         0         0         0         0         0
         0         0         0         0         0         0         0         0
         0         0         0         0         0         0         0         0
         0         0         0         0         0         0         0         0
         0         0         0         0         0         0         0         0
         0         0         0         0         0         0         0         0
         0         0         0         0         0         0         0         0
         0         0         0         0         0         0         0         0
         0         0         0         0         0         0         0         0
         0         0         0         0         0         0         0         0
         0         0         0         0         0         0         0         0
         0         0         0         0         0         0         0         0
         0         0         0         0         0         0         0         0
         0         0         0         0         0         0         0         0
         0         0         0         0         0         0         0         0
         0         0         0         0         0         0         0         0
         0         0         0         0         0         0         0         0
         0         0         0         0         0         0         0         0
         0         0         0         0         0         0         0         0
         0         0         0         0         0         0         0         0
         0         0         0         0         0         0         0         0
         0         0         0         0         0         0         0         0
         0         0         0         0         0         0         0         0
         0         0         0         0         0         0         0         0
         0         0         0         0         0         0         0         0
         0         0         0         0         0         0         0         0
         0         0         0         0         0         0         0         0
         0         0         0         0         0         0         0         0
         0         0         0         0         0         0         0         0
         0         0         0         0         0         0         0         0
         0         0         0         0         0         0         0         0
         0         0         0         0         0         0         0         0
         0         0         0         0         0         0         0         0
         0         0         0         0         0         0         0         0
         0         0         0         0         0         0         0         0
         0         0         0         0         0         0         0         0
         0         0         0         0         0         0         0         0
         0         0         0         0         0         0         0         0
         0         0         0         0         0         0         0         0
         0         0         0         0         0         0         0         0
         0         0         0         0         0         0         0         0
         0         0         0         0         0         0         0         0
         0         0         0         0         0         0         0         0
         0         0         0         0         0         0         0         0
         0         0         0         0         0         0         0         0
         0         0         0         0         0         0         0         0
         0         0         0         0         0         0         0         0
         0         0         0         0         0         0         0         0
         0         0         0         0         0         0         0         0
         0         0         0         0         0         0         0         0
         0         0         0         0         0         0         0         0
         0         0         0         0         0         0         0         0
         0         0         0         0         0         0         0         0
         0         0         0         0         0         0         0         0
         0         0         0         0         0         0         0         0
         0         0         0         0         0         0         0         0
         0         0         0         0         0         0         0         0
         0         0         0         0         0         0         0         0
         0         0         0         0         0         0         0         0
         0         0         0         0         0         0         0         0
         0         0         0         0         0         0         0         0
         0         0         0         0         0         0         0         0
         0         0         0         0         0         0         0         0
         0         0         0         0         0         0         0         0
         0         0         0         0         0         0         0         0
         0         0         0         0         0         0         0         0
         0         0         0         0         0         0         0         0
         0         0         0         0         0         0         0         0
         0         0         0         0         0         0         0         0
         0         0         0         0         0         0         0         0
         0         0         0         0         0         0         0         0
         0         0         0         0         0         0         0         0
         0         0         0         0         0         0         0         0
         0         0         0         0         0         0         0         0
         0         0         0         0         0         0         0         0
         0         0         0         0         0         0         0         0
         0         0         0         0         0         0         0         0
         0         0         0         0         0         0         0         0
         0         0         0         0         0         0         0         0
         0         0         0         0         0         0         0         0
         0         0         0         0         0         0         0         0
         0         0         0         0         0         0         0         0
         0         0         0         0         0         0         0         0
         0         0         0         0         0         0         0         0
         0         0         0         0         0         0         0         0
         0         0         0         0         0         0         0         0
         0         0         0         0         0         0         0         0
         0         0         0         0         0         0         0         0
         0         0         0         0         0         0         0         0
         0         0         0         0         0         0         0         0
         0         0         0         0         0         0         0         0
         0         0         0         0         0         0         0         0
         0         0         0         0         0         0         0         0
         0         0         0         0         0         0         0         0
         0         0         0         0         0         0         0         0
         0         0         0         0         0         0         0         0
         0         0         0         0         0         0         0         0
         0         0         0         0         0         0         0         0
         0         0         0         0         0         0         0         0
         0         0         0         0         0         0         0         0
         0         0         0         0         0         0         0         0
         0         0         0         0         0         0         0         0
         0         0         0         0         0         0         0         0
         0         0         0         0         0         0         0         0
         0         0         0         0         0         0         0         0
         0         0         0         0         0         0         0         0
         0         0         0         0         0         0         0         0
         0         0         0         0         0         0         0         0
         0         0         0         0         0         0         0         0
         0         0         0         0         0         0         0         0
         0         0         0         0         0         0         0         0
         0         0         0         0         0         0         0         0
         0         0         0         0         0         0         0         0
         0         0         0         0         0         0         0         0
         0         0         0         0         0         0         0         0
         0         0         0         0         0         0         0         0
         0         0         0         0         0         0         0         0
         0         0         0         0         0         0         0         0
         0         0         0         0         0         0         0         0
         0         0         0         0         0         0         0         0
         0         0         0         0         0         0         0         0
         0         0         0         0         0         0         0         0
         0         0         0         0         0         0         0         0
         0         0         0         0         0         0         0         0
         0         0         0         0         0         0         0         0
         0         0         0         0         0         0         0         0
         0         0         0         0         0         0         0         0
         0         0         0         0         0         0         0         0
         0         0         0         0         0         0         0         0
         0         0         0         0         0         0         0         0
         0         0         0         0         0         0         0         0
         0         0         0         0         0         0         0         0
         0         0         0         0         0         0         0         0
         0         0         0         0         0         0         0         0
         0         0         0         0         0         0         0         0
         0         0         0         0         0         0         0         0
         0         0         0         0         0         0         0         0
         0         0         0         0         0         0         0         0
         0         0         0         0         0         0         0         0
         0         0         0         0         0         0         0         0
         0         0         0         0         0         0         0         0
         0         0         0         0         0         0         0         0
         0         0         0         0         0         0         0         0
         0         0         0         0         0         0         0         0
         0         0         0         0         0         0         0         0
         0         0         0         0         0         0         0         0
         0         0         0         0         0         0         0         0
         0         0         0         0         0         0         0         0
         0         0         0         0         0         0         0         0
         0         0         0         0         0         0         0         0
         0         0         0         0         0         0         0         0
         0         0         0         0         0         0         0         0
         0         0         0         0         0         0         0         0
         0         0         0         0         0         0         0         0
         0         0         0         0         0         0         0         0
         0         0         0         0         0         0         0         0
         0         0         0         0         0         0         0         0
         0         0         0         0         0         0         0         0
         0         0         0         0         0         0         0         0
         0         0         0         0         0         0         0         0
         0         0         0         0         0         0         0         0
         0         0         0         0         0         0         0         0
         0         0         0         0         0         0         0         0
         0         0         0         0         0         0         0         0
         0         0         0         0         0         0         0         0
         0         0         0         0         0         0         0         0
         0         0         0         0         0         0         0         0
         0         0         0         0         0         0         0         0
         0         0         0         0         0         0         0         0
         0         0         0         0         0         0         0         0
         0         0         0         0         0         0         0         0
         0         0         0         0         0         0         0         0
         0         0         0         0         0         0         0         0
         0         0         0         0         0         0         0         0
         0         0         0         0         0         0         0         0
         0         0         0         0         0         0         0         0
         0         0         0         0         0         0         0         0
         0         0         0         0         0         0         0         0
         0         0         0         0         0         0         0         0
         0         0         0         0         0         0         0         0
         0         0         0         0         0         0         0         0
         0         0         0         0         0         0         0         0
         0         0         0         0         0         0         0         0
         0         0         0         0         0         0         0         0
         0         0         0         0         0         0         0         0
         0         0         0         0         0         0         0         0
         0         0         0         0         0         0         0         0
         0         0         0         0         0         0         0         0
         0         0         0         0         0         0         0         0
         0         0         0         0         0         0         0         0
         0         0         0         0         0         0         0         0
         0         0         0         0         0         0         0         0
         0         0         0         0         0         0         0         0
         0         0         0         0         0         0         0         0
         0         0         0         0         0         0         0         0
         0         0         0         0         0         0         0         0
         0         0         0         0         0         0         0         0
         0         0         0         0         0         0         0         0
         0         0         0         0         0         0         0         0
         0         0         0         0         0         0         0         0
         0         0         0         0         0         0         0         0
         0         0         0         0         0         0         0         0
         0         0         0         0         0         0         0         0
         0         0         0         0         0         0         0         0
         0         0         0         0         0         0         0         0
         0         0         0         0         0         0         0         0
         0         0         0         0         0         0         0         0
         0         0         0         0         0         0         0         0
         0         0         0         0         0         0         0         0
         0         0         0         0         0         0         0         0
         0         0         0         0         0         0         0         0
         0         0         0         0         0         0         0         0
         0         0         0         0         0         0         0         0
         0         0         0         0         0         0         0         0
         0         0         0         0         0         0         0         0
         0         0         0         0         0         0         0         0
         0         0         0         0         0         0         0         0
         0         0         0         0         0         0         0         0
         0         0         0         0         0         0         0         0
         0         0         0         0         0         0         0         0
         0         0         0         0         0         0         0         0
         0         0         0         0         0         0         0         0
         0         0         0         0         0         0         0         0
         0         0         0         0         0         0         0         0
         0         0         0         0         0         0         0         0
         0         0         0         0         0         0         0         0
         0         0         0         0         0         0         0         0
         0         0         0         0         0         0         0         0
         0         0         0         0         0         0         0         0
         0         0         0         0         0         0         0         0
         0         0         0         0         0         0         0         0
         0         0         0         0         0         0         0         0
         0         0         0         0         0         0         0         0
         0         0         0         0         0         0         0         0
         0         0         0         0         0         0         0         0
         0         0         0         0         0         0         0         0
         0         0         0         0         0         0         0         0
         0         0         0         0         0         0         0         0
         0         0         0         0         0         0         0         0
         0         0         0         0         0         0         0         0
         0         0         0         0         0         0         0         0
         0         0         0         0         0         0         0         0
         0         0         0         0         0         0         0         0
         0         0         0         0         0         0         0         0
         0         0         0         0         0         0         0         0
         0         0         0         0         0         0         0         0
         0         0         0         0         0         0         0         0
         0         0         0         0         0         0         0         0
         0         0         0         0         0         0         0         0
         0         0         0         0         0         0         0         0
         0         0         0         0         0         0         0         0
         0         0         0         0         0         0         0         0
         0         0         0         0         0         0         0         0
         0         0         0         0         0         0         0         0
         0         0         0         0         0         0         0         0
         0         0         0         0         0         0         0         0
         0         0         0         0         0         0         0         0
         0         0         0         0         0         0         0         0
         0         0         0         0         0         0         0         0
         0         0         0         0         0         0         0         0
         0         0         0         0         0         0         0         0
         0         0         0         0         0         0         0         0
         0         0         0         0         0         0         0         0
         0         0         0         0         0         0         0         0
         0         0         0         0         0         0         0         0
         0         0         0         0         0         0         0         0
         0         0         0         0         0         0         0         0
         0         0         0         0         0         0         0         0
         0         0         0         0         0         0         0         0
         0         0         0         0         0         0         0         0
         0         0         0         0         0         0         0         0
         0         0         0         0         0         0         0         0
         0         0         0         0         0         0         0         0
         0         0         0         0         0         0         0         0
         0         0         0         0         0         0         0         0
         0         0         0         0         0         0         0         0
         0         0         0         0         0         0         0         0
         0         0         0         0         0         0         0         0
         0         0         0         0         0         0         0         0
         0         0         0         0         0         0         0         0
         0         0         0         0         0         0         0         0
         0         0         0         0         0         0         0         0
         0         0         0         0         0         0         0         0
         0         0         0         0         0         0         0         0
         0         0         0         0         0         0         0         0
         0         0         0         0         0         0         0         0
         0         0         0         0         0         0         0         0
         0         0         0         0         0         0         0         0
         0         0         0         0         0         0         0         0
         0         0         0         0         0         0         0         0
         0         0         0         0         0         0         0         0
         0         0         0         0         0         0         0         0
         0         0         0         0         0         0         0         0
         0         0         0         0         0         0         0         0
         0         0         0         0         0         0         0         0
         0         0         0         0         0         0         0         0
         0         0         0         0         0         0         0         0
         0         0         0         0         0         0         0         0
         0         0         0         0         0         0         0         0
         0         0         0         0         0         0         0         0
         0         0         0         0         0         0         0         0
         0         0         0         0         0         0         0         0
         0         0         0         0         0         0         0         0
         0         0         0         0         0         0         0         0
         0         0         0         0         0         0         0         0
         0         0         0         0         0         0         0         0
         0         0         0         0         0         0         0         0
         0         0         0         0         0         0         0         0
         0         0         0         0         0         0         0         0
         0         0         0         0         0         0         0         0
         0         0         0         0         0         0         0         0
         0         0         0         0         0         0         0         0
         0         0         0         0         0         0         0         0
         0         0         0         0         0         0         0         0
         0         0         0         0         0         0         0         0
         0         0         0         0         0         0         0         0
         0         0         0         0         0         0         0         0
         0         0         0         0         0         0         0         0
         0         0         0         0         0         0         0         0
         0         0         0         0         0         0         0         0
         0         0         0         0         0         0         0         0
         0         0         0         0         0         0         0         0
         0         0         0         0         0         0         0         0
         0         0         0         0         0         0         0         0
         0         0         0         0         0         0         0         0
         0         0         0         0         0         0         0         0
         0         0         0         0         0         0         0         0
         0         0         0         0         0         0         0         0
         0         0         0         0         0         0         0         0
         0         0         0         0         0         0         0         0
         0         0         0         0         0         0         0         0
         0         0         0         0         0         0         0         0
         0         0         0         0         0         0         0         0
         0         0         0         0         0         0         0         0
         0         0         0         0         0         0         0         0
         0         0         0         0         0         0         0         0
         0         0         0         0         0         0         0         0
         0         0         0         0         0         0         0         0
         0         0         0         0         0         0         0         0
         0         0         0         0         0         0         0         0
         0         0         0         0         0         0         0         0
         0         0         0         0         0         0         0         0
         0         0         0         0         0         0         0         0
         0         0         0         0         0         0         0         0
         0         0         0         0         0         0         0         0
         0         0         0         0         0         0         0         0
         0         0         0         0         0         0         0         0
         0         0         0         0         0         0         0         0
         0         0         0         0         0         0         0         0
         0         0         0         0         0         0         0         0
         0         0         0         0         0         0         0         0
         0         0         0         0         0         0         0         0
         0         0         0         0         0         0         0         0
         0         0         0         0         0         0         0         0
         0         0         0         0         0         0         0         0
         0         0         0         0         0         0         0         0
         0         0         0         0         0         0         0         0
         0         0         0         0         0         0         0         0
         0         0         0         0         0         0         0         0
         0         0         0         0         0         0         0         0
         0         0         0         0         0         0         0         0
         0         0         0         0         0         0         0         0
         0         0         0         0         0         0         0         0
         0         0         0         0         0         0         0         0
         0         0         0         0         0         0         0         0
         0         0         0         0         0         0         0         0
         0         0         0         0         0         0         0         0
         0         0         0         0         0         0         0         0
         0         0         0         0         0         0         0         0
         0         0         0         0         0         0         0         0
         0         0         0         0         0         0         0         0
         0         0         0         0         0         0         0         0
         0         0         0         0         0         0         0         0
         0         0         0         0         0         0         0         0
         0         0         0         0         0         0         0         0
         0         0         0         0         0         0         0         0
         0         0         0         0         0         0         0         0
         0         0         0         0         0         0         0         0
         0         0         0         0         0         0         0         0
         0         0         0         0         0         0         0         0
         0         0         0         0         0         0         0         0
         0         0         0         0         0         0         0         0
         0         0         0         0         0         0         0         0
         0         0         0         0         0         0         0         0
         0         0         0         0         0         0         0         0
         0         0         0         0         0         0         0         0
         0         0         0         0         0         0         0         0
         0         0         0         0         0         0         0         0
         0         0         0         0         0         0         0         0
         0         0         0         0         0         0         0         0
         0         0         0         0         0         0         0         0
         0         0         0         0         0         0         0         0
         0         0         0         0         0         0         0         0
         0         0         0         0         0         0         0         0
         0         0         0         0         0         0         0         0
         0         0         0         0         0         0         0         0
         0         0         0         0         0         0         0         0
         0         0         0         0         0         0         0         0
         0         0         0         0         0         0         0         0
         0         0         0         0         0         0         0         0
         0         0         0         0         0         0         0         0
         0         0         0         0         0         0         0         0
         0         0         0         0         0         0         0         0
         0         0         0         0         0         0         0         0
         0         0         0         0         0         0         0         0
         0         0         0         0         0         0         0         0
         0         0         0         0         0         0         0         0
         0         0         0         0         0         0         0         0
         0         0         0         0         0         0         0         0
         0         0         0         0         0         0         0         0
         0         0         0         0         0         0         0         0
         0         0         0         0         0         0         0         0
         0         0         0         0         0         0         0         0
         0         0         0         0         0         0         0         0
         0         0         0         0         0         0         0         0
         0         0         0         0         0         0         0         0
         0         0         0         0         0         0         0         0
         0         0         0         0         0         0         0         0
         0         0         0         0         0         0         0         0
         0         0         0         0         0         0         0         0
         0         0         0         0         0         0         0         0
         0         0         0         0         0         0         0         0
         0         0         0         0         0         0         0         0
         0         0         0         0         0         0         0         0
         0         0         0         0         0         0         0         0
         0         0         0         0         0         0         0         0
         0         0         0         0         0         0         0         0
         0         0         0         0         0         0         0         0
         0         0         0         0         0         0         0         0
         0         0         0         0         0         0         0         0
         0         0         0         0         0         0         0         0
         0         0         0         0         0         0         0         0
         0         0         0         0         0         0         0         0
         0         0         0         0         0         0         0         0
         0         0         0         0         0         0         0         0
         0         0         0         0         0         0         0         0
         0         0         0         0         0         0         0         0
         0         0         0         0         0         0         0         0
         0         0         0         0         0         0         0         0
         0         0         0         0         0         0         0         0
         0         0         0         0         0         0         0         0
         0         0         0         0         0         0         0         0
         0         0         0         0         0         0         0         0
         0         0         0         0         0         0         0         0
         0         0         0         0         0         0         0         0
         0         0         0         0         0         0         0         0
         0         0         0         0         0         0         0         0
         0         0         0         0         0         0         0         0
         0         0         0         0         0         0         0         0
         0         0         0         0         0         0         0         0
         0         0         0         0         0         0         0         0
         0         0         0         0         0         0         0         0
         0         0         0         0         0         0         0         0
         0         0         0         0         0         0         0         0
         0         0         0         0         0         0         0         0
         0         0         0         0         0         0         0         0
         0         0         0         0         0         0         0         0
         0         0         0         0         0         0         0         0
         0         0         0         0         0         0         0         0
         0         0         0         0         0         0         0         0
         0         0         0         0         0         0         0         0
         0         0         0         0         0         0         0         0
         0         0         0         0         0         0         0         0
         0         0         0         0         0         0         0         0
         0         0         0         0         0         0         0         0
         0         0         0         0         0         0         0         0
         0         0         0         0         0         0         0         0
         0         0         0         0         0         0         0         0
         0         0         0         0         0         0         0         0
         0         0         0         0         0         0         0         0
         0         0         0         0         0         0         0         0
         0         0         0         0         0         0         0         0
         0         0         0         0         0         0         0         0
         0         0         0         0         0         0         0         0
         0         0         0         0         0         0         0         0
         0         0         0         0         0         0         0         0
         0         0         0         0         0         0         0         0
         0         0         0         0         0         0         0         0
         0         0         0         0         0         0         0         0
         0         0         0         0         0         0         0         0
         0         0         0         0         0         0         0         0
         0         0         0         0         0         0         0         0
         0         0         0         0         0         0         0         0
         0         0         0         0         0         0         0         0
         0         0         0         0         0         0         0         0
         0         0         0         0         0         0         0         0
         0         0         0         0         0         0         0         0
         0         0         0         0         0         0         0         0
         0         0         0         0         0         0         0         0
         0         0         0         0         0         0         0         0
         0         0         0         0         0         0         0         0
         0         0         0         0         0         0         0         0
         0         0         0         0         0         0         0         0
         0         0         0         0         0         0         0         0
         0         0         0         0         0         0         0         0
         0         0         0         0         0         0         0         0
         0         0         0         0         0         0         0         0
         0         0         0         0         0         0         0         0
         0         0         0         0         0         0         0         0
         0         0         0         0         0         0         0         0
         0         0         0         0         0         0         0         0
         0         0         0         0         0         0         0         0
         0         0         0         0         0         0         0         0
         0         0         0         0         0         0         0         0
         0         0         0         0         0         0         0         0
         0         0         0         0         0         0         0         0
         0         0         0         0         0         0         0         0
         0         0         0         0         0         0         0         0
         0         0         0         0         0         0         0         0
         0         0         0         0         0         0         0         0
         0         0         0         0         0         0         0         0
         0         0         0         0         0         0         0         0
         0         0         0         0         0         0         0         0
         0         0         0         0         0         0         0         0
         0         0         0         0         0         0         0         0
         0         0         0         0         0         0         0         0
         0         0         0         0         0         0         0         0
         0         0         0         0         0         0         0         0
         0         0         0         0         0         0         0         0
         0         0         0         0         0         0         0         0
         0         0         0         0         0         0         0         0
         0         0         0         0         0         0         0         0
         0         0         0         0         0         0         0         0
         0         0         0         0         0         0         0         0
         0         0         0         0         0         0         0         0
         0         0         0         0         0         0         0         0
         0         0         0         0         0         0         0         0
         0         0         0         0         0         0         0         0
         0         0         0         0         0         0         0         0
         0         0         0         0         0         0         0         0
         0         0         0         0         0         0         0         0
         0         0         0         0         0         0         0         0
         0         0         0         0         0         0         0         0
         0         0         0         0         0         0         0         0
         0         0         0         0         0         0         0         0
         0         0         0         0         0         0         0         0
         0         0         0         0         0         0         0         0
         0         0         0         0         0         0         0         0
         0         0         0         0         0         0         0         0
         0         0         0         0         0         0         0         0
         0         0         0         0         0         0         0         0
         0         0         0         0         0         0         0         0
         0         0         0         0         0         0         0         0
         0         0         0         0         0         0         0         0
         0         0         0         0         0         0         0         0
         0         0         0         0         0         0         0         0
         0         0         0         0         0         0         0         0
         0         0         0         0         0         0         0         0
         0         0         0         0         0         0         0         0
         0         0         0         0         0         0         0         0
         0         0         0         0         0         0         0         0
         0         0         0         0         0         0         0         0
         0         0         0         0         0         0         0         0
         0         0         0         0         0         0         0         0
         0         0         0         0         0         0         0         0
         0         0         0         0         0         0         0         0
         0         0         0         0         0         0         0         0
         0         0         0         0         0         0         0         0
         0         0         0         0         0         0         0         0
         0         0         0         0         0         0         0         0
         0         0         0         0         0         0         0         0
         0         0         0         0         0         0         0         0
         0         0         0         0         0         0         0         0
         0         0         0         0         0         0         0         0
         0         0         0         0         0         0         0         0
         0         0         0         0         0         0         0         0
         0         0         0         0         0         0         0         0
         0         0         0         0         0         0         0         0
         0         0         0         0         0         0         0         0
         0         0         0         0         0         0         0         0
         0         0         0         0         0         0         0         0
         0         0         0         0         0         0         0         0
         0         0         0         0         0         0         0         0
         0         0         0         0         0         0         0         0
         0         0         0         0         0         0         0         0
         0         0         0         0         0         0         0         0
         0         0         0         0         0         0         0         0
         0         0         0         0         0         0         0         0
         0         0         0         0         0         0         0         0
         0         0         0         0         0         0         0         0
         0         0         0         0         0         0         0         0
         0         0         0         0         0         0         0         0
         0         0         0         0         0         0         0         0
         0         0         0         0         0         0         0         0
         0         0         0         0         0         0         0         0
         0         0         0         0         0         0         0         0
         0         0         0         0         0         0         0         0
         0         0         0         0         0         0         0         0
         0         0         0         0         0         0         0         0
         0         0         0         0         0         0         0         0
         0         0         0         0         0         0         0         0
         0         0         0         0         0         0         0         0
         0         0         0         0         0         0         0         0
         0         0         0         0         0         0         0         0
         0         0         0         0         0         0         0         0
         0         0         0         0         0         0         0         0
         0         0         0         0         0         0         0         0
         0         0         0         0         0         0         0         0
         0         0         0         0         0         0         0         0
         0         0         0         0         0         0         0         0
         0         0         0         0         0         0         0         0
         0         0         0         0         0         0         0         0
         0         0         0         0         0         0         0         0
         0         0         0         0         0         0         0         0
         0         0         0         0         0         0         0         0
         0         0         0         0         0         0         0         0
         0         0         0         0         0         0         0         0
         0         0         0         0         0         0         0         0
         0         0         0         0         0         0         0         0
         0         0         0         0         0         0         0         0
         0         0         0         0         0         0         0         0
         0         0         0         0         0         0         0         0
         0         0         0         0         0         0         0         0
         0         0         0         0         0         0         0         0
         0         0         0         0         0         0         0         0
         0         0         0         0         0         0         0         0
         0         0         0         0         0         0         0         0
         0         0         0         0         0         0         0         0
         0         0         0         0         0         0         0         0
         0         0         0         0         0         0         0         0
         0         0         0         0         0         0         0         0
         0         0         0         0         0         0         0         0
         0         0         0         0         0         0         0         0
         0         0         0         0         0         0         0         0
         0         0         0         0         0         0         0         0
         0         0         0         0         0         0         0         0
         0         0         0         0         0         0         0         0
         0         0         0         0         0         0         0         0
         0         0         0         0         0         0         0         0
         0         0         0         0         0         0         0         0
         0         0         0         0         0         0         0         0
         0         0         0         0         0         0         0         0
         0         0         0         0         0         0         0         0
         0         0         0         0         0         0         0         0
         0         0         0         0         0         0         0         0
         0         0         0         0         0         0         0         0
         0         0         0         0         0         0         0         0
         0         0         0         0         0         0         0         0
         0         0         0         0         0         0         0         0
         0         0         0         0         0         0         0         0
         0         0         0         0         0         0         0         0
         0         0         0         0         0         0         0         0
         0         0         0         0         0         0         0         0
         0         0         0         0         0         0         0         0
         0         0         0         0         0         0         0         0
         0         0         0         0         0         0         0         0
         0         0         0         0         0         0         0         0
         0         0         0         0         0         0         0         0
         0         0         0         0         0         0         0         0
         0         0         0         0         0         0         0         0
         0         0         0         0         0         0         0         0
         0         0         0         0         0         0         0         0
         0         0         0         0         0         0         0         0
         0         0         0         0         0         0         0         0
         0         0         0         0         0         0         0         0
         0         0         0         0         0         0         0         0
         0         0         0         0         0         0         0         0
         0         0         0         0         0         0         0         0
         0         0         0         0         0         0         0         0
         0         0         0         0         0         0         0         0
         0         0         0         0         0         0         0         0
         0         0         0         0         0         0         0         0
         0         0         0         0         0         0         0         0
         0         0         0         0         0         0         0         0
         0         0         0         0         0         0         0         0
         0         0         0         0         0         0         0         0
         0         0         0         0         0         0         0         0
         0         0         0         0         0         0         0         0
         0         0         0         0         0         0         0         0
         0         0         0         0         0         0         0         0
         0         0         0         0         0         0         0         0
         0         0         0         0         0         0         0         0
         0         0         0         0         0         0         0         0
         0         0         0         0         0         0         0         0
         0         0         0         0         0         0         0         0
         0         0         0         0         0         0         0         0
         0         0         0         0         0         0         0         0
         0         0         0         0         0         0         0         0
         0         0         0         0         0         0         0         0
         0         0         0         0         0         0         0         0
         0         0         0         0         0         0         0         0
         0         0         0         0         0         0         0         0
         0         0         0         0         0         0         0         0
         0         0         0         0         0         0         0         0
         0         0         0         0         0         0         0         0
         0         0         0         0         0         0         0         0
         0         0         0         0         0         0         0         0
         0         0         0         0         0         0         0         0
         0         0         0         0         0         0         0         0
         0         0         0         0         0         0         0         0
         0         0         0         0         0         0         0         0
         0         0         0         0         0         0         0         0
         0         0         0         0         0         0         0         0
         0         0         0         0         0         0         0         0
         0         0         0         0         0         0         0         0
         0         0         0         0         0         0         0         0
         0         0         0         0         0         0         0         0
         0         0         0         0         0         0         0         0
         0         0         0         0         0         0         0         0
         0         0         0         0         0         0         0         0
         0         0         0         0         0         0         0         0
         0         0         0         0         0         0         0         0
         0         0         0         0         0         0         0         0
         0         0         0         0         0         0         0         0
         0         0         0         0         0         0         0         0
         0         0         0         0         0         0         0         0
         0         0         0         0         0         0         0         0
         0         0         0         0         0         0         0         0
         0         0         0         0         0         0         0         0
         0         0         0         0         0         0         0         0
         0         0         0         0         0         0         0         0
         0         0         0         0         0         0         0         0
         0         0         0         0         0         0         0         0
         0         0         0         0         0         0         0         0
         0         0         0         0         0         0         0         0
         0         0         0         0         0         0         0         0
         0         0         0         0         0         0         0         0
         0         0         0         0         0         0         0         0
         0         0         0         0         0         0         0         0
         0         0         0         0         0         0         0         0
         0         0         0         0         0         0         0         0
         0         0         0         0         0         0         0         0
         0         0         0         0         0         0         0         0
         0         0         0         0         0         0         0         0
         0         0         0         0         0         0         0         0
         0         0         0         0         0         0         0         0
         0         0         0         0         0         0         0         0
         0         0         0         0         0         0         0         0
         0         0         0         0         0         0         0         0
         0         0         0         0         0         0         0         0
         0         0         0         0         0         0         0         0
         0         0         0         0         0         0         0         0
         0         0         0         0         0         0         0         0
         0         0         0         0         0         0         0         0
         0         0         0         0         0         0         0         0
         0         0         0         0         0         0         0         0
         0         0         0         0         0         0         0         0
         0         0         0         0         0         0         0         0
         0         0         0         0         0         0         0         0
         0         0         0         0         0         0         0         0
         0         0         0         0         0         0         0         0
         0         0         0         0         0         0         0         0
         0         0         0         0         0         0         0         0
         0         0         0         0         0         0         0         0
         0         0         0         0         0         0         0         0
         0         0         0         0         0         0         0         0
         0         0         0         0         0         0         0         0
         0         0         0         0         0         0         0         0
         0         0         0         0         0         0         0         0
         0         0         0         0         0         0         0         0
         0         0         0         0         0         0         0         0
         0         0         0         0         0         0         0         0
         0         0         0         0         0         0         0         0
         0         0         0         0         0         0         0         0
         0         0         0         0         0         0         0         0
         0         0         0         0         0         0         0         0
         0         0         0         0         0         0         0         0
         0         0         0         0         0         0         0         0
         0         0         0         0         0         0         0         0
         0         0         0         0         0         0         0         0
         0         0         0         0         0         0         0         0
         0         0         0         0         0         0         0         0
         0         0         0         0         0         0         0         0
         0         0         0         0         0         0         0         0
         0         0         0         0         0         0         0         0
         0         0         0         0         0         0         0         0
         0         0         0         0         0         0         0         0
         0         0         0         0         0         0         0         0
         0         0         0         0         0         0         0         0
         0         0         0         0         0         0         0         0
         0         0         0         0         0         0         0         0
         0         0         0         0         0         0         0         0
         0         0         0         0         0         0         0         0
         0         0         0         0         0         0         0         0
         0         0         0         0         0         0         0         0
         0         0         0         0         0         0         0         0
         0         0         0         0         0         0         0         0
         0         0         0         0         0         0         0         0
         0         0         0         0         0         0         0         0
         0         0         0         0         0         0         0         0
         0         0         0         0         0         0         0         0
         0         0         0         0         0         0         0         0
         0         0         0         0         0         0         0         0
         0         0         0         0         0         0         0         0
         0         0         0         0         0         0         0         0
         0         0         0         0         0         0         0         0
         0         0         0         0         0         0         0         0
         0         0         0         0         0         0         0         0
         0         0         0         0         0         0         0         0
         0         0         0         0         0         0         0         0
         0         0         0         0         0         0         0         0
         0         0         0         0         0         0         0         0
         0         0         0         0         0         0         0         0
         0         0         0         0         0         0         0         0
         0         0         0         0         0         0         0         0
         0         0         0         0         0         0         0         0
         0         0         0         0         0         0         0         0
         0         0         0         0         0         0         0         0
         0         0         0         0         0         0         0         0
         0         0         0         0         0         0         0         0
         0         0         0         0         0         0         0         0
         0         0         0         0         0         0         0         0
         0         0         0         0         0         0         0         0
         0         0         0         0         0         0         0         0
         0         0         0         0         0         0         0         0
         0         0         0         0         0         0         0         0
         0         0         0         0         0         0         0         0
         0         0         0         0         0         0         0         0
         0         0         0         0         0         0         0         0
         0         0         0         0         0         0         0         0
         0         0         0         0         0         0         0         0
         0         0         0         0         0         0         0         0
         0         0         0         0         0         0         0         0
         0         0         0         0         0         0         0         0
         0         0         0         0         0         0         0         0
         0         0         0         0         0         0         0         0
         0         0         0         0         0         0         0         0
         0         0         0         0         0         0         0         0
         0         0         0         0         0         0         0         0
         0         0         0         0         0         0         0         0
         0         0         0         0         0         0         0         0
         0         0         0         0         0         0         0         0
         0         0         0         0         0         0         0         0
         0         0         0         0         0         0         0         0
         0         0         0         0         0         0         0         0
         0         0         0         0         0         0         0         0
         0         0         0         0         0         0         0         0
         0         0         0         0         0         0         0         0
         0         0         0         0         0         0         0         0
         0         0         0         0         0         0         0         0
         0         0         0         0         0         0         0         0
         0         0         0         0         0         0         0         0
         0         0         0         0         0         0         0         0
         0         0         0         0         0         0         0         0
         0         0         0         0         0         0         0         0
         0         0         0         0         0         0         0         0
         0         0         0         0         0         0         0         0
         0         0         0         0         0         0         0         0
         0         0         0         0         0         0         0         0
         0         0         0         0         0         0         0         0
         0         0         0         0         0         0         0         0
         0         0         0         0         0         0         0         0
         0         0         0         0         0         0         0         0
         0         0         0         0         0         0         0         0
         0         0         0         0         0         0         0         0
         0         0         0         0         0         0         0         0
         0         0         0         0         0         0         0         0
         0         0         0         0         0         0         0         0
         0         0         0         0         0         0         0         0
         0         0         0         0         0         0         0         0
         0         0         0         0         0         0         0         0
         0         0         0         0         0         0         0         0
         0         0         0         0         0         0         0         0
         0         0         0         0         0         0         0         0
         0         0         0         0         0         0         0         0
         0         0         0         0         0         0         0         0
         0         0         0         0         0         0         0         0
         0         0         0         0         0         0         0         0
         0         0         0         0         0         0         0         0
         0         0         0         0         0         0         0         0
         0         0         0         0         0         0         0         0
         0         0         0         0         0         0         0         0
         0         0         0         0         0         0         0         0
         0         0         0         0         0         0         0         0
         0         0         0         0         0         0         0         0
         0         0         0         0         0         0         0         0
         0         0         0         0         0         0         0         0
         0         0         0         0         0         0         0         0
         0         0         0         0         0         0         0         0
         0         0         0         0         0         0         0         0
         0         0         0         0         0         0         0         0
         0         0         0         0         0         0         0         0
         0         0         0         0         0         0         0         0
         0         0         0         0         0         0         0         0
         0         0         0         0         0         0         0         0
         0         0         0         0         0         0         0         0
         0         0         0         0         0         0         0         0
         0         0         0         0         0         0         0         0
         0         0         0         0         0         0         0         0
         0         0         0         0         0         0         0         0
         0         0         0         0         0         0         0         0
         0         0         0         0         0         0         0         0
         0         0         0         0         0         0         0         0
         0         0         0         0         0         0         0         0
         0         0         0         0         0         0         0         0
         0         0         0         0         0         0         0         0
         0         0         0         0         0         0         0         0
         0         0         0         0         0         0         0         0
         0         0         0         0         0         0         0         0
         0         0         0         0         0         0         0         0
         0         0         0         0         0         0         0         0
         0         0         0         0         0         0         0         0
         0         0         0         0         0         0         0         0
         0         0         0         0         0         0         0         0
         0         0         0         0         0         0         0         0
         0         0         0         0         0         0         0         0
         0         0         0         0         0         0         0         0
         0         0         0         0         0         0         0         0
         0         0         0         0         0         0         0         0
         0         0         0         0         0         0         0         0
         0         0         0         0         0         0         0         0
         0         0         0         0         0         0         0         0
         0         0         0         0         0         0         0         0
         0         0         0         0         0         0         0         0
         0         0         0         0         0         0         0         0
         0         0         0         0         0         0         0         0
         0         0         0         0         0         0         0         0
         0         0         0         0         0         0         0         0
         0         0         0         0         0         0         0         0
         0         0         0         0         0         0         0         0
         0         0         0         0         0         0         0         0
         0         0         0         0         0         0         0         0
         0         0         0         0         0         0         0         0
         0         0         0         0         0         0         0         0
         0         0         0         0         0         0         0         0
         0         0         0         0         0         0         0         0
         0         0         0         0         0         0         0         0
         0         0         0         0         0         0         0         0
         0         0         0         0         0         0         0         0
         0         0         0         0         0         0         0         0
         0         0         0         0         0         0         0         0
         0         0         0         0         0         0         0         0
         0         0         0         0         0         0         0         0
         0         0         0         0         0         0         0         0
         0         0         0         0         0         0         0         0
         0         0         0         0         0         0         0         0
         0         0         0         0         0         0         0         0
         0         0         0         0         0         0         0         0
         0         0         0         0         0         0         0         0
         0         0         0         0         0         0         0         0
         0         0         0         0         0         0         0         0
         0         0         0         0         0         0         0         0
         0         0         0         0         0         0         0         0
         0         0         0         0         0         0         0         0
         0         0         0         0         0         0         0         0
         0         0         0         0         0         0         0         0
         0         0         0         0         0         0         0         0
         0         0         0         0         0         0         0         0
         0         0         0         0         0         0         0         0
         0         0         0         0         0         0         0         0
         0         0         0         0         0         0         0         0
         0         0         0         0         0         0         0         0
         0         0         0         0         0         0         0         0
         0         0         0         0         0         0         0         0
         0         0         0         0         0         0         0         0
         0         0         0         0         0         0         0         0
         0         0         0         0         0         0         0         0
         0         0         0         0         0         0         0         0
         0         0         0         0         0         0         0         0
         0         0         0         0         0         0         0         0
         0         0         0         0         0         0         0         0
         0         0         0         0         0         0         0         0
         0         0         0         0         0         0         0         0
         0         0         0         0         0         0         0         0
         0         0         0         0         0         0         0         0
         0         0         0         0         0         0         0         0
         0         0         0         0         0         0         0         0
         0         0         0         0         0         0         0         0
         0         0         0         0         0         0         0         0
         0         0         0         0         0         0         0         0
         0         0         0         0         0         0         0         0
         0         0         0         0         0         0         0         0
         0         0         0         0         0         0         0         0
         0         0         0         0         0         0         0         0
         0         0         0         0         0         0         0         0
         0         0         0         0         0         0         0         0
         0         0         0         0         0         0         0         0
         0         0         0         0         0         0         0         0
         0         0         0         0         0         0         0         0
         0         0         0         0         0         0         0         0
         0         0         0         0         0         0         0         0
         0         0         0         0         0         0         0         0
         0         0         0         0         0         0         0         0
         0         0         0         0         0         0         0         0
         0         0         0         0         0         0         0         0
         0         0         0         0         0         0         0         0
         0         0         0         0         0         0         0         0
         0         0         0         0         0         0         0         0
         0         0         0         0         0         0         0         0
         0         0         0         0         0         0         0         0
         0         0         0         0         0         0         0         0
         0         0         0         0         0         0         0         0
         0         0         0         0         0         0         0         0
         0         0         0         0         0         0         0         0
         0         0         0         0         0         0         0         0
         0         0         0         0         0         0         0         0
         0         0         0         0         0         0         0         0
         0         0         0         0         0         0         0         0
         0         0         0         0         0         0         0         0
         0         0         0         0         0         0         0         0
         0         0         0         0         0         0         0         0
         0         0         0         0         0         0         0         0
         0         0         0         0         0         0         0         0
         0         0         0         0         0         0         0         0
         0         0         0         0         0         0         0         0
         0         0         0         0         0         0         0         0
         0         0         0         0         0         0         0         0
         0         0         0         0         0         0         0         0
         0         0         0         0         0         0         0         0
         0         0         0         0         0         0         0         0
         0         0         0         0         0         0         0         0
         0         0         0         0         0         0         0         0
         0         0         0         0         0         0         0         0
         0         0         0         0         0         0         0         0
         0         0         0         0         0         0         0         0
         0         0         0         0         0         0         0         0
         0         0         0         0         0         0         0         0
         0         0         0         0         0         0         0         0
         0         0         0         0         0         0         0         0
         0         0         0         0         0         0         0         0
         0         0         0         0         0         0         0         0
         0         0         0         0         0         0         0         0
         0         0         0         0         0         0         0         0
         0         0         0         0         0         0         0         0
         0         0         0         0         0         0         0         0
         0         0         0         0         0         0         0         0
         0         0         0         0         0         0         0         0
         0         0         0         0         0         0         0         0
         0         0         0         0         0         0         0         0
         0         0         0         0         0         0         0         0
         0         0         0         0         0         0         0         0
         0         0         0         0         0         0         0         0
         0         0         0         0         0         0         0         0
         0         0         0         0         0         0         0         0
         0         0         0         0         0         0         0         0
         0         0         0         0         0         0         0         0
         0         0         0         0         0         0         0         0
         0         0         0         0         0         0         0         0
         0         0         0         0         0         0         0         0
         0         0         0         0         0         0         0         0
         0         0         0         0         0         0         0         0
         0         0         0         0         0         0         0         0
         0         0         0         0         0         0         0         0
         0         0         0         0         0         0         0         0
         0         0         0         0         0         0         0         0
         0         0         0         0         0         0         0         0
         0         0         0         0         0         0         0         0
         0         0         0         0         0         0         0         0
         0         0         0         0         0         0         0         0
         0         0         0         0         0         0         0         0
         0         0         0         0         0         0         0         0
         0         0         0         0         0         0         0         0
         0         0         0         0         0         0         0         0
         0         0         0         0         0         0         0         0
         0         0         0         0         0         0         0         0
         0         0         0         0         0         0         0         0
         0         0         0         0         0         0         0         0
         0         0         0         0         0         0         0         0
         0         0         0         0         0         0         0         0
         0         0         0         0         0         0         0         0
         0         0         0         0         0         0         0         0
         0         0         0         0         0         0         0         0
         0         0         0         0         0         0         0         0
         0         0         0         0         0         0         0         0
         0         0         0         0         0         0         0         0
         0         0         0         0         0         0         0         0
         0         0         0         0         0         0         0         0
         0         0         0         0         0         0         0         0
         0         0         0         0         0         0         0         0
         0         0         0         0         0         0         0         0
         0         0         0         0         0         0         0         0
         0         0         0         0         0         0         0         0
         0         0         0         0         0         0         0         0
         0         0         0         0         0         0         0         0
         0         0         0         0         0         0         0         0
         0         0         0         0         0         0         0         0
         0         0         0         0         0         0         0         0
         0         0         0         0         0         0         0         0
         0         0         0         0         0         0         0         0
         0         0         0         0         0         0         0         0
         0         0         0         0         0         0         0         0
         0         0         0         0         0         0         0         0
         0         0         0         0         0         0         0         0
         0         0         0         0         0         0         0         0
         0         0         0         0         0         0         0         0
         0         0         0         0         0         0         0         0
         0         0         0         0         0         0         0         0
         0         0         0         0         0         0         0         0
         0         0         0         0         0         0         0         0
         0         0         0         0         0         0         0         0
         0         0         0         0         0         0         0         0
         0         0         0         0         0         0         0         0
         0         0         0         0         0         0         0         0
         0         0         0         0         0         0         0         0
         0         0         0         0         0         0         0         0
         0         0         0         0         0         0         0         0
         0         0         0         0         0         0         0         0
         0         0         0         0         0         0         0         0
         0         0         0         0         0         0         0         0
         0         0         0         0         0         0         0         0
         0         0         0         0         0         0         0         0
         0         0         0         0         0         0         0         0
         0         0         0         0         0         0         0         0
         0         0         0         0         0         0         0         0
         0         0         0         0         0         0         0         0
         0         0         0         0         0         0         0         0
         0         0         0         0         0         0         0         0
         0         0         0         0         0         0         0         0
         0         0         0         0         0         0         0         0
         0         0         0         0         0         0         0         0
         0         0         0         0         0         0         0         0
         0         0         0         0         0         0         0         0
         0         0         0         0         0         0         0         0
         0         0         0         0         0         0         0         0
         0         0         0         0         0         0         0         0
         0         0         0         0         0         0         0         0
         0         0         0         0         0         0         0         0
         0         0         0         0         0         0         0         0
         0         0         0         0         0         0         0         0
         0         0         0         0         0         0         0         0
         0         0         0         0         0         0         0         0
         0         0         0         0         0         0         0         0
         0         0         0         0         0         0         0         0
         0         0         0         0         0         0         0         0
         0         0         0         0         0         0         0         0
         0         0         0         0         0         0         0         0
         0         0         0         0         0         0         0         0
         0         0         0         0         0         0         0         0
         0         0         0         0         0         0         0         0
         0         0         0         0         0         0         0         0
         0         0         0         0         0         0         0         0
         0         0         0         0         0         0         0         0
         0         0         0         0         0         0         0         0
         0         0         0         0         0         0         0         0
         0         0         0         0         0         0         0         0
         0         0         0         0         0         0         0         0
         0         0         0         0         0         0         0         0
         0         0         0         0         0         0         0         0
         0         0         0         0         0         0         0         0
         0         0         0         0         0         0         0         0
         0         0         0         0         0         0         0         0
         0         0         0         0         0         0         0         0
         0         0         0         0         0         0         0         0
         0         0         0         0         0         0         0         0
         0         0         0         0         0         0         0         0
         0         0         0         0         0         0         0         0
         0         0         0         0         0         0         0         0
         0         0         0         0         0         0         0         0
         0         0         0         0         0         0         0         0
         0         0         0         0         0         0         0         0
         0         0         0         0         0         0         0         0
         0         0         0         0         0         0         0         0
         0         0         0         0         0         0         0         0
         0         0         0         0         0         0         0         0
         0         0         0         0         0         0         0         0
         0         0         0         0         0         0         0         0
         0         0         0         0         0         0         0         0
         0         0         0         0         0         0         0         0
         0         0         0         0         0         0         0         0
         0         0         0         0         0         0         0         0
         0         0         0         0         0         0         0         0
         0         0         0         0         0         0         0         0
         0         0         0         0         0         0         0         0
         0         0         0         0         0         0         0         0
         0         0         0         0         0         0         0         0
         0         0         0         0         0         0         0         0
         0         0         0         0         0         0         0         0
         0         0         0         0         0         0         0         0
         0         0         0         0         0         0         0         0
         0         0         0         0         0         0         0         0
         0         0         0         0         0         0         0         0
         0         0         0         0         0         0         0         0
         0         0         0         0         0         0         0         0
         0         0         0         0         0         0         0         0
         0         0         0         0         0         0         0         0
         0         0         0         0         0         0         0         0
         0         0         0         0         0         0         0         0
         0         0         0         0         0         0         0         0
         0         0         0         0         0         0         0         0
         0         0         0         0         0         0         0         0
         0         0         0         0         0         0         0         0
         0         0         0         0         0         0         0         0
         0         0         0         0         0         0         0         0
         0         0         0         0         0         0         0         0
         0         0         0         0         0         0         0         0
         0         0         0         0         0         0         0         0
         0         0         0         0         0         0         0         0
         0         0         0         0         0         0         0         0
         0         0         0         0         0         0         0         0
         0         0         0         0         0         0         0         0
         0         0         0         0         0         0         0         0
         0         0         0         0         0         0         0         0
         0         0         0         0         0         0         0         0
         0         0         0         0         0         0         0         0
         0         0         0         0         0         0         0         0
         0         0         0         0         0         0         0         0
         0         0         0         0         0         0         0         0
         0         0         0         0         0         0         0         0
         0         0         0         0         0         0         0         0
         0         0         0         0         0         0         0         0
         0         0         0         0         0         0         0         0
         0         0         0         0         0         0         0         0
         0         0         0         0         0         0         0         0
         0         0         0         0         0         0         0         0
         0         0         0         0         0         0         0         0
         0         0         0         0         0         0         0         0
         0         0         0         0         0         0         0         0
         0         0         0         0         0         0         0         0
         0         0         0         0         0         0         0         0
         0         0         0         0         0         0         0         0
         0         0         0         0         0         0         0         0
         0         0         0         0         0         0         0         0
         0         0         0         0         0         0         0         0
         0         0         0         0         0         0         0         0
         0         0         0         0         0         0         0         0
         0         0         0         0         0         0         0         0
         0         0         0         0         0         0         0         0
         0         0         0         0         0         0         0         0
         0         0         0         0         0         0         0         0
         0         0         0         0         0         0         0         0
         0         0         0         0         0         0         0         0
         0         0         0         0         0         0         0         0
         0         0         0         0         0         0         0         0
         0         0         0         0         0         0         0         0
         0         0         0         0         0         0         0         0
         0         0         0         0         0         0         0         0
         0         0         0         0         0         0         0         0
         0         0         0         0         0         0         0         0
         0         0         0         0         0         0         0         0
         0         0         0         0         0         0         0         0
         0         0         0         0         0         0         0         0
         0         0         0         0         0         0         0         0
         0         0         0         0         0         0         0         0
         0         0         0         0         0         0         0         0
         0         0         0         0         0         0         0         0
         0         0         0         0         0         0         0         0
         0         0         0         0         0         0         0         0
         0         0         0         0         0         0         0         0
         0         0         0         0         0         0         0         0
         0         0         0         0         0         0         0         0
         0         0         0         0         0         0         0         0
         0         0         0         0         0         0         0         0
         0         0         0         0         0         0         0         0
         0         0         0         0         0         0         0         0
         0         0         0         0         0         0         0         0
         0         0         0         0         0         0         0         0
         0         0         0         0         0         0         0         0
         0         0         0         0         0         0         0         0
         0         0         0         0         0         0         0         0
         0         0         0         0         0         0         0         0
         0         0         0         0         0         0         0         0
         0         0         0         0         0         0         0         0
         0         0         0         0         0         0         0         0
         0         0         0         0         0         0         0         0
         0         0         0         0         0         0         0         0
         0         0         0         0         0         0         0         0
         0         0         0         0         0         0         0         0
         0         0         0         0         0         0         0         0
         0         0         0         0         0         0         0         0
         0         0         0         0         0         0         0         0
         0         0         0         0         0         0         0         0
         0         0         0         0         0         0         0         0
         0         0         0         0         0         0         0         0
         0         0         0         0         0         0         0         0
         0         0         0         0         0         0         0         0
         0         0         0         0         0         0         0         0
         0         0         0         0         0         0         0         0
         0         0         0         0         0         0         0         0
         0         0         0         0         0         0         0         0
         0         0         0         0         0         0         0         0
         0         0         0         0         0         0         0         0
         0         0         0         0         0         0         0         0
         0         0         0         0         0         0         0         0
         0         0         0         0         0         0         0         0
         0         0         0         0         0         0         0         0
         0         0         0         0         0         0         0         0
         0         0         0         0         0         0         0         0
         0         0         0         0         0         0         0         0
         0         0         0         0         0         0         0         0
         0         0         0         0         0         0         0         0
         0         0         0         0         0         0         0         0
         0         0         0         0         0         0         0         0
         0         0         0         0         0         0         0         0
         0         0         0         0         0         0         0         0
         0         0         0         0         0         0         0         0
         0         0         0         0         0         0         0         0
         0         0         0         0         0         0         0         0
         0         0         0         0         0         0         0         0
         0         0         0         0         0         0         0         0
         0         0         0         0         0         0         0         0
         0         0         0         0         0         0         0         0
         0         0         0         0         0         0         0         0
         0         0         0         0         0         0         0         0
         0         0         0         0         0         0         0         0
         0         0         0         0         0         0         0         0
         0         0         0         0         0         0         0         0
         0         0         0         0         0         0         0         0
         0         0         0         0         0         0         0         0
         0         0         0         0         0         0         0         0
         0         0         0         0         0         0         0         0
         0         0         0         0         0         0         0         0
         0         0         0         0         0         0         0         0
         0         0         0         0         0         0         0         0
         0         0         0         0         0         0         0         0
         0         0         0         0         0         0         0         0
         0         0         0         0         0         0         0         0
         0         0         0         0         0         0         0         0
         0         0         0         0         0         0         0         0
         0         0         0         0         0         0         0         0
         0         0         0         0         0         0         0         0
         0         0         0         0         0         0         0         0
         0         0         0         0         0         0         0         0
         0         0         0         0         0         0         0         0
         0         0         0         0         0         0         0         0
         0         0         0         0         0         0         0         0
         0         0         0         0         0         0         0         0
         0         0         0         0         0         0         0         0
         0         0         0         0         0         0         0         0
         0         0         0         0         0         0         0         0
         0         0         0         0         0         0         0         0
         0         0         0         0         0         0         0         0
         0         0         0         0         0         0         0         0
         0         0         0         0         0         0         0         0
         0         0         0         0         0         0         0         0
         0         0         0         0         0         0         0         0
         0         0         0         0         0         0         0         0
         0         0         0         0         0         0         0         0
         0         0         0         0         0         0         0         0
         0         0         0         0         0         0         0         0
         0         0         0         0         0         0         0         0
         0         0         0         0         0         0         0         0
         0         0         0         0         0         0         0         0
         0         0         0         0         0         0         0         0
         0         0         0         0         0         0         0         0
         0         0         0         0         0         0         0         0
         0         0         0         0         0         0         0         0
         0         0         0         0         0         0         0         0
         0         0         0         0         0         0         0         0
         0         0         0         0         0         0         0         0
         0         0         0         0         0         0         0         0
         0         0         0         0         0         0         0         0
         0         0         0         0         0         0         0         0
         0         0         0         0         0         0         0         0
         0         0         0         0         0         0         0         0
         0         0         0         0         0         0         0         0
         0         0         0         0         0         0         0         0
         0         0         0         0         0         0         0         0
         0         0         0         0         0         0         0         0
         0         0         0         0         0         0         0         0
         0         0         0         0         0         0         0         0
         0         0         0         0         0         0         0         0
         0         0         0         0         0         0         0         0
         0         0         0         0         0         0         0         0
         0         0         0         0         0         0         0         0
         0         0         0         0         0         0         0         0
         0         0         0         0         0         0         0         0
         0         0         0         0         0         0         0         0
         0         0         0         0         0         0         0         0
         0         0         0         0         0         0         0         0
         0         0         0         0         0         0         0         0
         0         0         0         0         0         0         0         0
         0         0         0         0         0         0         0         0
         0         0         0         0         0         0         0         0
         0         0         0         0         0         0         0         0
         0         0         0         0         0         0         0         0
         0         0         0         0         0         0         0         0
         0         0         0         0         0         0         0         0
         0         0         0         0         0         0         0         0
         0         0         0         0         0         0         0         0
         0         0         0         0         0         0         0         0
         0         0         0         0         0         0         0         0
         0         0         0         0         0         0         0         0
         0         0         0         0         0         0         0         0
         0         0         0         0         0         0         0         0
         0         0         0         0         0         0         0         0
         0         0         0         0         0         0         0         0
         0         0         0         0         0         0         0         0
         0         0         0         0         0         0         0         0
         0         0         0         0         0         0         0         0
         0         0         0         0         0         0         0         0
         0         0         0         0         0         0         0         0
         0         0         0         0         0         0         0         0
         0         0         0         0         0         0         0         0
         0         0         0         0         0         0         0         0
         0         0         0         0         0         0         0         0
         0         0         0         0         0         0         0         0
         0         0         0         0         0         0         0         0
         0         0         0         0         0         0         0         0
         0         0         0         0         0         0         0         0
         0         0         0         0         0         0         0         0
         0         0         0         0         0         0         0         0
         0         0         0         0         0         0         0         0
         0         0         0         0         0         0         0         0
         0         0         0         0         0         0         0         0
         0         0         0         0         0         0         0         0
         0         0         0         0         0         0         0         0
         0         0         0         0         0         0         0         0
         0         0         0         0         0         0         0         0
         0         0         0         0         0         0         0         0
         0         0         0         0         0         0         0         0
         0         0         0         0         0         0         0         0
         0         0         0         0         0         0         0         0
         0         0         0         0         0         0         0         0
         0         0         0         0         0         0         0         0
         0         0         0         0         0         0         0         0
         0         0         0         0         0         0         0         0
         0         0         0         0         0         0         0         0
         0         0         0         0         0         0         0         0
         0         0         0         0         0         0         0         0
         0         0         0         0         0         0         0         0
         0         0         0         0         0         0         0         0
         0         0         0         0         0         0         0         0
         0         0         0         0         0         0         0         0
         0         0         0         0         0         0         0         0
         0         0         0         0         0         0         0         0
         0         0         0         0         0         0         0         0
         0         0         0         0         0         0         0         0
         0         0         0         0         0         0         0         0
         0         0         0         0         0         0         0         0
         0         0         0         0         0         0         0         0
         0         0         0         0         0         0         0         0
         0         0         0         0         0         0         0         0
         0         0         0         0         0         0         0         0
         0         0         0         0         0         0         0         0
         0         0         0         0         0         0         0         0
         0         0         0         0         0         0         0         0
         0         0         0         0         0         0         0         0
         0         0         0         0         0         0         0         0
         0         0         0         0         0         0         0         0
         0         0         0         0         0         0         0         0
         0         0         0         0         0         0         0         0
         0         0         0         0         0         0         0         0
         0         0         0         0         0         0         0         0
         0         0         0         0         0         0         0         0
         0         0         0         0         0         0         0         0
         0         0         0         0         0         0         0         0
         0         0         0         0         0         0         0         0
         0         0         0         0         0         0         0         0
         0         0         0         0         0         0         0         0
         0         0         0         0         0         0         0         0
         0         0         0         0         0         0         0         0
         0         0         0         0         0         0         0         0
         0         0         0         0         0         0         0         0
         0         0         0         0         0         0         0         0
         0         0         0         0         0         0         0         0
         0         0         0         0         0         0         0         0
         0         0         0         0         0         0         0         0
         0         0         0         0         0         0         0         0
         0         0         0         0         0         0         0         0
         0         0         0         0         0         0         0         0
         0         0         0         0         0         0         0         0
         0         0         0         0         0         0         0         0
         0         0         0         0         0         0         0         0
         0         0         0         0         0         0         0         0
         0         0         0         0         0         0         0         0
         0         0         0         0         0         0         0         0
         0         0         0         0         0         0         0         0
         0         0         0         0         0         0         0         0
         0         0         0         0         0         0         0         0
         0         0         0         0         0         0         0         0
         0         0         0         0         0         0         0         0
         0         0         0         0         0         0         0         0
         0         0         0         0         0         0         0         0
         0         0         0         0         0         0         0         0
         0         0         0         0         0         0         0         0
         0         0         0         0         0         0         0         0
         0         0         0         0         0         0         0         0
         0         0         0         0         0         0         0         0
         0         0         0         0         0         0         0         0
         0         0         0         0         0         0         0         0
         0         0         0         0         0         0         0         0
         0         0         0         0         0         0         0         0
         0         0         0         0         0         0         0         0
         0         0         0         0         0         0         0         0
         0         0         0         0         0         0         0         0
         0         0         0         0         0         0         0         0
         0         0         0         0         0         0         0         0
         0         0         0         0         0         0         0         0
         0         0         0         0         0         0         0         0
         0         0         0         0         0         0         0         0
         0         0         0         0         0         0         0         0
         0         0         0         0         0         0         0         0
         0         0         0         0         0         0         0         0
         0         0         0         0         0         0         0         0
         0         0         0         0         0         0         0         0
         0         0         0         0         0         0         0         0
         0         0         0         0         0         0         0         0
         0         0         0         0         0         0         0         0
         0         0         0         0         0         0         0         0
         0         0         0         0         0         0         0         0
         0         0         0         0         0         0         0         0
         0         0         0         0         0         0         0         0
         0         0         0         0         0         0         0         0
         0         0         0         0         0         0         0         0
         0         0         0         0         0         0         0         0
         0         0         0         0         0         0         0         0
         0         0         0         0         0         0         0         0
         0         0         0         0         0         0         0         0
         0         0         0         0         0         0         0         0
         0         0         0         0         0         0         0         0
         0         0         0         0         0         0         0         0
         0         0         0         0         0         0         0         0
         0         0         0         0         0         0         0         0
         0         0         0         0         0         0         0         0
         0         0         0         0         0         0         0         0
         0         0         0         0         0         0         0         0
         0         0         0         0         0         0         0         0
         0         0         0         0         0         0         0         0
         0         0         0         0         0         0         0         0
         0         0         0         0         0         0         0         0
         0         0         0         0         0         0         0         0
         0         0         0         0         0         0         0         0
         0         0         0         0         0         0         0         0
         0         0         0         0         0         0         0         0
         0         0         0         0         0         0         0         0
         0         0         0         0         0         0         0         0
         0         0         0         0         0         0         0         0
         0         0         0         0         0         0         0         0
         0         0         0         0         0         0         0         0
         0         0         0         0         0         0         0         0
         0         0         0         0         0         0         0         0
         0         0         0         0         0         0         0         0
         0         0         0         0         0         0         0         0
         0         0         0         0         0         0         0         0
         0         0         0         0         0         0         0         0
         0         0         0         0         0         0         0         0
         0         0         0         0         0         0         0         0
         0         0         0         0         0         0         0         0
         0         0         0         0         0         0         0         0
         0         0         0         0         0         0         0         0
         0         0         0         0         0         0         0         0
         0         0         0         0         0         0         0         0
         0         0         0         0         0         0         0         0
         0         0         0         0         0         0         0         0
         0         0         0         0         0         0         0         0
         0         0         0         0         0         0         0         0
         0         0         0         0         0         0         0         0
         0         0         0         0         0         0         0         0
         0         0         0         0         0         0         0         0
         0         0         0         0         0         0         0         0
         0         0         0         0         0         0         0         0
         0         0         0         0         0         0         0         0
         0         0         0         0         0         0         0         0
         0         0         0         0         0         0         0         0
         0         0         0         0         0         0         0         0
         0         0         0         0         0         0         0         0
         0         0         0         0         0         0         0         0
         0         0         0         0         0         0         0         0
         0         0         0         0         0         0         0         0
         0         0         0         0         0         0         0         0
         0         0         0         0         0         0         0         0
         0         0         0         0         0         0         0         0
         0         0         0         0         0         0         0         0
         0         0         0         0         0         0         0         0
         0         0         0         0         0         0         0         0
         0         0         0         0         0         0         0         0
         0         0         0         0         0         0         0         0
         0         0         0         0         0         0         0         0
         0         0         0         0         0         0         0         0
         0         0         0         0         0         0         0         0
         0         0         0         0         0         0         0         0
         0         0         0         0         0         0         0         0
         0         0         0         0         0         0         0         0
         0         0         0         0         0         0         0         0
         0         0         0         0         0         0         0         0
         0         0         0         0         0         0         0         0
         0         0         0         0         0         0         0         0
         0         0         0         0         0         0         0         0
         0         0         0         0         0         0         0         0
         0         0         0         0         0         0         0         0
         0         0         0         0         0         0         0         0
         0         0         0         0         0         0         0         0
         0         0         0         0         0         0         0         0
         0         0         0         0         0         0         0         0
         0         0         0         0         0         0         0         0
         0         0         0         0         0         0         0         0
         0         0         0         0         0         0         0         0
         0         0         0         0         0         0         0         0
         0         0         0         0         0         0         0         0
         0         0         0         0         0         0         0         0
         0         0         0         0         0         0         0         0
         0         0         0         0         0         0         0         0
         0         0         0         0         0         0         0         0
         0         0         0         0         0         0         0         0
         0         0         0         0         0         0         0         0
         0         0         0         0         0         0         0         0
         0         0         0         0         0         0         0         0
         0         0         0         0         0         0         0         0
         0         0         0         0         0         0         0         0
         0         0         0         0         0         0         0         0
         0         0         0         0         0         0         0         0
         0         0         0         0         0         0         0         0
         0         0         0         0         0         0         0         0
         0         0         0         0         0         0         0         0
         0         0         0         0         0         0         0         0
         0         0         0         0         0         0         0         0
         0         0         0         0         0         0         0         0
         0         0         0         0         0         0         0         0
         0         0         0         0         0         0         0         0
         0         0         0         0         0         0         0         0
         0         0         0         0         0         0         0         0
         0         0         0         0         0         0         0         0
         0         0         0         0         0         0         0         0
         0         0         0         0         0         0         0         0
         0         0         0         0         0         0         0         0
         0         0         0         0         0         0         0         0
         0         0         0         0         0         0         0         0
         0         0         0         0         0         0         0         0
         0         0         0         0         0         0         0         0
         0         0         0         0         0         0         0         0
         0         0         0         0         0         0         0         0
         0         0         0         0         0         0         0         0
         0         0         0         0         0         0         0         0
         0         0         0         0         0         0         0         0
         0         0         0         0         0         0         0         0
         0         0         0         0         0         0         0         0
         0         0         0         0         0         0         0         0
         0         0         0         0         0         0         0         0
         0         0         0         0         0         0         0         0
         0         0         0         0         0         0         0         0
         0         0         0         0         0         0         0         0
         0         0         0         0         0         0         0         0
         0         0         0         0         0         0         0         0
         0         0         0         0         0         0         0         0
         0         0         0         0         0         0         0         0
         0         0         0         0         0         0         0         0
         0         0         0         0         0         0         0         0
         0         0         0         0         0         0         0         0
         0         0         0         0         0         0         0         0
         0         0         0         0         0         0         0         0
         0         0         0         0         0         0         0         0
         0         0         0         0         0         0         0         0
         0         0         0         0         0         0         0         0
         0         0         0         0         0         0         0         0
         0         0         0         0         0         0         0         0
         0         0         0         0         0         0         0         0
         0         0         0         0         0         0         0         0
         0         0         0         0         0         0         0         0
         0         0         0         0         0         0         0         0
         0         0         0         0         0         0         0         0
         0         0         0         0         0         0         0         0
         0         0         0         0         0         0         0         0
         0         0         0         0         0         0         0         0
         0         0         0         0         0         0         0         0
         0         0         0         0         0         0         0         0
         0         0         0         0         0         0         0         0
         0         0         0         0         0         0         0         0
         0         0         0         0         0         0         0         0
         0         0         0         0         0         0         0         0
         0         0         0         0         0         0         0         0
         0         0         0         0         0         0         0         0
         0         0         0         0         0         0         0         0
         0         0         0         0         0         0         0         0
         0         0         0         0         0         0         0         0
         0         0         0         0         0         0         0         0
         0         0         0         0         0         0         0         0
         0         0         0         0         0         0         0         0
         0         0         0         0         0         0         0         0
         0         0         0         0         0         0         0         0
         0         0         0         0         0         0         0         0
         0         0         0         0         0         0         0         0
         0         0         0         0         0         0         0         0
         0         0         0         0         0         0         0         0
         0         0         0         0         0         0         0         0
         0         0         0         0         0         0         0         0
         0         0         0         0         0         0         0         0
         0         0         0         0         0         0         0         0
         0         0         0         0         0         0         0         0
         0         0         0         0         0         0         0         0
         0         0         0         0         0         0         0         0
         0         0         0         0         0         0         0         0
         0         0         0         0         0         0         0         0
         0         0         0         0         0         0         0         0
         0         0         0         0         0         0         0         0
         0         0         0         0         0         0         0         0
         0         0         0         0         0         0         0         0
         0         0         0         0         0         0         0         0
         0         0         0         0         0         0         0         0
         0         0         0         0         0         0         0         0
         0         0         0         0         0         0         0         0
         0         0         0         0         0         0         0         0
         0         0         0         0         0         0         0         0
         0         0         0         0         0         0         0         0
         0         0         0         0         0         0         0         0
         0         0         0         0         0         0         0         0
         0         0         0         0         0         0         0         0
         0         0         0         0         0         0         0         0
         0         0         0         0         0         0         0         0
         0         0         0         0         0         0         0         0
         0         0         0         0         0         0         0         0
         0         0         0         0         0         0         0         0
         0         0         0         0         0         0         0         0
         0         0         0         0         0         0         0         0
         0         0         0         0         0         0         0         0
         0         0         0         0         0         0         0         0
         0         0         0         0         0         0         0         0
         0         0         0         0         0         0         0         0
         0         0         0         0         0         0         0         0
         0         0         0         0         0         0         0         0
         0         0         0         0         0         0         0         0
         0         0         0         0         0         0         0         0
         0         0         0         0         0         0         0         0
         0         0         0         0         0         0         0         0
         0         0         0         0         0         0         0         0
         0         0         0         0         0         0         0         0
         0         0         0         0         0         0         0         0
         0         0         0         0         0         0         0         0
         0         0         0         0         0         0         0         0
         0         0         0         0         0         0         0         0
         0         0         0         0         0         0         0         0
         0         0         0         0         0         0         0         0
         0         0         0         0         0         0         0         0
         0         0         0         0         0         0         0         0
         0         0         0         0         0         0         0         0
         0         0         0         0         0         0         0         0
         0         0         0         0         0         0         0         0
         0         0         0         0         0         0         0         0
         0         0         0         0         0         0         0         0
         0         0         0         0         0         0         0         0
         0         0         0         0         0         0         0         0
         0         0         0         0         0         0         0         0
         0         0         0         0         0         0         0         0
         0         0         0         0         0         0         0         0
         0         0         0         0         0         0         0         0
         0         0         0         0         0         0         0         0
         0         0         0         0         0         0         0         0
         0         0         0         0         0         0         0         0
         0         0         0         0         0         0         0         0
         0         0         0         0         0         0         0         0
         0         0         0         0         0         0         0         0
         0         0         0         0         0         0         0         0
         0         0         0         0         0         0         0         0
         0         0         0         0         0         0         0         0
         0         0         0         0         0         0         0         0
         0         0         0         0         0         0         0         0
         0         0         0         0         0         0         0         0
         0         0         0         0         0         0         0         0
         0         0         0         0         0         0         0         0
         0         0         0         0         0         0         0         0
         0         0         0         0         0         0         0         0
         0         0         0         0         0         0         0         0
         0         0         0         0         0         0         0         0
         0         0         0         0         0         0         0         0
         0         0         0         0         0         0         0         0
         0         0         0         0         0         0         0         0
         0         0         0         0         0         0         0         0
         0         0         0         0         0         0         0         0
         0         0         0         0         0         0         0         0
         0         0         0         0         0         0         0         0
         0         0         0         0         0         0         0         0
         0         0         0         0         0         0         0         0
         0         0         0         0         0         0         0         0
         0         0         0         0         0         0         0         0
         0         0         0         0         0         0         0         0
         0         0         0         0         0         0         0         0
         0         0         0         0         0         0         0         0
         0         0         0         0         0         0         0         0
         0         0         0         0         0         0         0         0
         0         0         0         0         0         0         0         0
         0         0         0         0         0         0         0         0
         0         0         0         0         0         0         0         0
         0         0         0         0         0         0         0         0
         0         0         0         0         0         0         0         0
         0         0         0         0         0         0         0         0
         0         0         0         0         0         0         0         0
         0         0         0         0         0         0         0         0
         0         0         0         0         0         0         0         0
         0         0         0         0         0         0         0         0
         0         0         0         0         0         0         0         0
         0         0         0         0         0         0         0         0
         0         0         0         0         0         0         0         0
         0         0         0         0         0         0         0         0
         0         0         0         0         0         0         0         0
         0         0         0         0         0         0         0         0
         0         0         0         0         0         0         0         0
         0         0         0         0         0         0         0         0
         0         0         0         0         0         0         0         0
         0         0         0         0         0         0         0         0
         0         0         0         0         0         0         0         0
         0         0         0         0         0         0         0         0
         0         0         0         0         0         0         0         0
         0         0         0         0         0         0         0         0
         0         0         0         0         0         0         0         0
         0         0         0         0         0         0         0         0
         0         0         0         0         0         0         0         0
         0         0         0         0         0         0         0         0
         0         0         0         0         0         0         0         0
         0         0         0         0         0         0         0         0
         0         0         0         0         0         0         0         0
         0         0         0         0         0         0         0         0
         0         0         0         0         0         0         0         0
         0         0         0         0         0         0         0         0
         0         0         0         0         0         0         0         0
         0         0         0         0         0         0         0         0
         0         0         0         0         0         0         0         0
         0         0         0         0         0         0         0         0
         0         0         0         0         0         0         0         0
         0         0         0         0         0         0         0         0
         0         0         0         0         0         0         0         0
         0         0         0         0         0         0         0         0
         0         0         0         0         0         0         0         0
         0         0         0         0         0         0         0         0
         0         0         0         0         0         0         0         0
         0         0         0         0         0         0         0         0
         0         0         0         0         0         0         0         0
         0         0         0         0         0         0         0         0
         0         0         0         0         0         0         0         0
         0         0         0         0         0         0         0         0
         0         0         0         0         0         0         0         0
         0         0         0         0         0         0         0         0
         0         0         0         0         0         0         0         0
         0         0         0         0         0         0         0         0
         0         0         0         0         0         0         0         0
         0         0         0         0         0         0         0         0
         0         0         0         0         0         0         0         0
         0         0         0         0         0         0         0         0
         0         0         0         0         0         0         0         0
         0         0         0         0         0         0         0         0
         0         0         0         0         0         0         0         0
         0         0         0         0         0         0         0         0
         0         0         0         0         0         0         0         0
         0         0         0         0         0         0         0         0
         0         0         0         0         0         0         0         0
         0         0         0         0         0         0         0         0
         0         0         0         0         0         0         0         0
         0         0         0         0         0         0         0         0
         0         0         0         0         0         0         0         0
         0         0         0         0         0         0         0         0
         0         0         0         0         0         0         0         0
         0         0         0         0         0         0         0         0
         0         0         0         0         0         0         0         0
         0         0         0         0         0         0         0         0
         0         0         0         0         0         0         0         0
         0         0         0         0         0         0         0         0
         0         0         0         0         0         0         0         0
         0         0         0         0         0         0         0         0
         0         0         0         0         0         0         0         0
         0         0         0         0         0         0         0         0
         0         0         0         0         0         0         0         0
         0         0         0         0         0         0         0         0
         0         0         0         0         0         0         0         0
         0         0         0         0         0         0         0         0
         0         0         0         0         0         0         0         0
         0         0         0         0         0         0         0         0
         0         0         0         0         0         0         0         0
         0         0         0         0         0         0         0         0
         0         0         0         0         0         0         0         0
         0         0         0         0         0         0         0         0
         0         0         0         0         0         0         0         0
         0         0         0         0         0         0         0         0
         0         0         0         0         0         0         0         0
         0         0         0         0         0         0         0         0
         0         0         0         0         0         0         0         0
         0         0         0         0         0         0         0         0
         0         0         0         0         0         0         0         0
         0         0         0         0         0         0         0         0
         0         0         0         0         0         0         0         0
         0         0         0         0         0         0         0         0
         0         0         0         0         0         0         0         0
         0         0         0         0         0         0         0         0
         0         0         0         0         0         0         0         0
         0         0         0         0         0         0         0         0
         0         0         0         0         0         0         0         0
         0         0         0         0         0         0         0         0
         0         0         0         0         0         0         0         0
         0         0         0         0         0         0         0         0
         0         0         0         0         0         0         0         0
         0         0         0         0         0         0         0         0
         0         0         0         0         0         0         0         0
         0         0         0         0         0         0         0         0
         0         0         0         0         0         0         0         0
         0         0         0         0         0         0         0         0
         0         0         0         0         0         0         0         0
         0         0         0         0         0         0         0         0
         0         0         0         0         0         0         0         0
         0         0         0         0         0         0         0         0
         0         0         0         0         0         0         0         0
         0         0         0         0         0         0         0         0
         0         0         0         0         0         0         0         0
         0         0         0         0         0         0         0         0
         0         0         0         0         0         0         0         0
         0         0         0         0         0         0         0         0
         0         0         0         0         0         0         0         0
         0         0         0         0         0         0         0         0
         0         0         0         0         0         0         0         0
         0         0         0         0         0         0         0         0
         0         0         0         0         0         0         0         0
         0         0         0         0         0         0         0         0
         0         0         0         0         0         0         0         0
         0         0         0         0         0         0         0         0
         0         0         0         0         0         0         0         0
         0         0         0         0         0         0         0         0
         0         0         0         0         0         0         0         0
         0         0         0         0         0         0         0         0
         0         0         0         0         0         0         0         0
         0         0         0         0         0         0         0         0
         0         0         0         0         0         0         0         0
         0         0         0         0         0         0         0         0
         0         0         0         0         0         0         0         0
         0         0         0         0         0         0         0         0
         0         0         0         0         0         0         0         0
         0         0         0         0         0         0         0         0
         0         0         0         0         0         0         0         0
         0         0         0         0         0         0         0         0
         0         0         0         0         0         0         0         0
         0         0         0         0         0         0         0         0
         0         0         0         0         0         0         0         0
         0         0         0         0         0         0         0         0
         0         0         0         0         0         0         0         0
         0         0         0         0         0         0         0         0
         0         0         0         0         0         0         0         0
         0         0         0         0         0         0         0         0
         0         0         0         0         0         0         0         0
         0         0         0         0         0         0         0         0
         0         0         0         0         0         0         0         0
         0         0         0         0         0         0         0         0
         0         0         0         0         0         0         0         0
         0         0         0         0         0         0         0         0
         0         0         0         0         0         0         0         0
         0         0         0         0         0         0         0         0
         0         0         0         0         0         0         0         0
         0         0         0         0         0         0         0         0
         0         0         0         0         0         0         0         0
         0         0         0         0         0         0         0         0
         0         0         0         0         0         0         0         0
         0         0         0         0         0         0         0         0
         0         0         0         0         0         0         0         0
         0         0         0         0         0         0         0         0
         0         0         0         0         0         0         0         0
         0         0         0         0         0         0         0         0
         0         0         0         0         0         0         0         0
         0         0         0         0         0         0         0         0
         0         0         0         0         0         0         0         0
         0         0         0         0         0         0         0         0
         0         0         0         0         0         0         0         0
         0         0         0         0         0         0         0         0
         0         0         0         0         0         0         0         0
         0         0         0         0         0         0         0         0
         0         0         0         0         0         0         0         0
         0         0         0         0         0         0         0         0
         0         0         0         0         0         0         0         0
         0         0         0         0         0         0         0         0
         0         0         0         0         0         0         0         0
         0         0         0         0         0         0         0         0
         0         0         0         0         0         0         0         0
         0         0         0         0         0         0         0         0
         0         0         0         0         0         0         0         0
         0         0         0         0         0         0         0         0
         0         0         0         0         0         0         0         0
         0         0         0         0         0         0         0         0
         0         0         0         0         0         0         0         0
         0         0         0         0         0         0         0         0
         0         0         0         0         0         0         0         0
         0         0         0         0         0         0         0         0
         0         0         0         0         0         0         0         0
         0         0         0         0         0         0         0         0
         0         0         0         0         0         0         0         0
         0         0         0         0         0         0         0         0
         0         0         0         0         0         0         0         0
         0         0         0         0         0         0         0         0
         0         0         0         0         0         0         0         0
         0         0         0         0         0         0         0         0
         0         0         0         0         0         0         0         0
         0         0         0         0         0         0         0         0
         0         0         0         0         0         0         0         0
         0         0         0         0         0         0         0         0
         0         0         0         0         0         0         0         0
         0         0         0         0         0         0         0         0
         0         0         0         0         0         0         0         0
         0         0         0         0         0         0         0         0
         0         0         0         0         0         0         0         0
         0         0         0         0         0         0         0         0
         0         0         0         0         0         0         0         0
         0         0         0         0         0         0         0         0
         0         0         0         0         0         0         0         0
         0         0         0         0         0         0         0         0
         0         0         0         0         0         0         0         0
         0         0         0         0         0         0         0         0
         0         0         0         0         0         0         0         0
         0         0         0         0         0         0         0         0
         0         0         0         0         0         0         0         0
         0         0         0         0         0         0         0         0
         0         0         0         0         0         0         0         0
         0         0         0         0         0         0         0         0
         0         0         0         0         0         0         0         0
         0         0         0         0         0         0         0         0
         0         0         0         0         0         0         0         0
         0         0         0         0         0         0         0         0
         0         0         0         0         0         0         0         0
         0         0         0         0         0         0         0         0
         0         0         0         0         0         0         0         0
         0         0         0         0         0         0         0         0
         0         0         0         0         0         0         0         0
         0         0         0         0         0         0         0         0
         0         0         0         0         0         0         0         0
         0         0         0         0         0         0         0         0
         0         0         0         0         0         0         0         0
         0         0         0         0         0         0         0         0
         0         0         0         0         0         0         0         0
         0         0         0         0         0         0         0         0
         0         0         0         0         0         0         0         0
         0         0         0         0         0         0         0         0
         0         0         0         0         0         0         0         0
         0         0         0         0         0         0         0         0
         0         0         0         0         0         0         0         0
         0         0         0         0         0         0         0         0
         0         0         0         0         0         0         0         0
         0         0         0         0         0         0         0         0
         0         0         0         0         0         0         0         0
         0         0         0         0         0         0         0         0
         0         0         0         0         0         0         0         0
         0         0         0         0         0         0         0         0
         0         0         0         0         0         0         0         0
         0         0         0         0         0         0         0         0
         0         0         0         0         0         0         0         0
         0         0         0         0         0         0         0         0
         0         0         0         0         0         0         0         0
         0         0         0         0         0         0         0         0
         0         0         0         0         0         0         0         0
         0         0         0         0         0         0         0         0
         0         0         0         0         0         0         0         0
         0         0         0         0         0         0         0         0
         0         0         0         0         0         0         0         0
         0         0         0         0         0         0         0         0
         0         0         0         0         0         0         0         0
         0         0         0         0         0         0         0         0
         0         0         0         0         0         0         0         0
         0         0         0         0         0         0         0         0
         0         0         0         0         0         0         0         0
         0         0         0         0         0         0         0         0
         0         0         0         0         0         0         0         0
         0         0         0         0         0         0         0         0
         0         0         0         0         0         0         0         0
         0         0         0         0         0         0         0         0
         0         0         0         0         0         0         0         0
         0         0         0         0         0         0         0         0
         0         0         0         0         0         0         0         0
         0         0         0         0         0         0         0         0
         0         0         0         0         0         0         0         0
         0         0         0         0         0         0         0         0
         0         0         0         0         0         0         0         0
         0         0         0         0         0         0         0         0
         0         0         0         0         0         0         0         0
         0         0         0         0         0         0         0         0
         0         0         0         0         0         0         0         0
         0         0         0         0         0         0         0         0
         0         0         0         0         0         0         0         0
         0         0         0         0         0         0         0         0
         0         0         0         0         0         0         0         0
         0         0         0         0         0         0         0         0
         0         0         0         0         0         0         0         0
         0         0         0         0         0         0         0         0
         0         0         0         0         0         0         0         0
         0         0         0         0         0         0         0         0
         0         0         0         0         0         0         0         0
         0         0         0         0         0         0         0         0
         0         0         0         0         0         0         0         0
         0         0         0         0         0         0         0         0
         0         0         0         0         0         0         0         0
         0         0         0         0         0         0         0         0
         0         0         0         0         0         0         0         0
         0         0         0         0         0         0         0         0
         0         0         0         0         0         0         0         0
         0         0         0         0         0         0         0         0
         0         0         0         0         0         0         0         0
         0         0         0         0         0         0         0         0
         0         0         0         0         0         0         0         0
         0         0         0         0         0         0         0         0
         0         0         0         0         0         0         0         0
         0         0         0         0         0         0         0         0
         0         0         0         0         0         0         0         0
         0         0         0         0         0         0         0         0
         0         0         0         0         0         0         0         0
         0         0         0         0         0         0         0         0
         0         0         0         0         0         0         0         0
         0         0         0         0         0         0         0         0
         0         0         0         0         0         0         0         0
         0         0         0         0         0         0         0         0
         0         0         0         0         0         0         0         0
         0         0         0         0         0         0         0         0
         0         0         0         0         0         0         0         0
         0         0         0         0         0         0         0         0
         0         0         0         0         0         0         0         0
         0         0         0         0         0         0         0         0
         0         0         0         0         0         0         0         0
         0         0         0         0         0         0         0         0
         0         0         0         0         0         0         0         0
         0         0         0         0         0         0         0         0
         0         0         0         0         0         0         0         0
         0         0         0         0         0         0         0         0
         0         0         0         0         0         0         0         0
         0         0         0         0         0         0         0         0
         0         0         0         0         0         0         0         0
         0         0         0         0         0         0         0         0
         0         0         0         0         0         0         0         0
         0         0         0         0         0         0         0         0
         0         0         0         0         0         0         0         0
         0         0         0         0         0         0         0         0
         0         0         0         0         0         0         0         0
         0         0         0         0         0         0         0         0
         0         0         0         0         0         0         0         0
         0         0         0         0         0         0         0         0
         0         0         0         0         0         0         0         0
         0         0         0         0         0         0         0         0
         0         0         0         0         0         0         0         0
         0         0         0         0         0         0         0         0
         0         0         0         0         0         0         0         0
         0         0         0         0         0         0         0         0
         0         0         0         0         0         0         0         0
         0         0         0         0         0         0         0         0
         0         0         0         0         0         0         0         0
         0         0         0         0         0         0         0         0
         0         0         0         0         0         0         0         0
         0         0         0         0         0         0         0         0
         0         0         0         0         0         0         0         0
         0         0         0         0         0         0         0         0
         0         0         0         0         0         0         0         0
         0         0         0         0         0         0         0         0
         0         0         0         0         0         0         0         0
         0         0         0         0         0         0         0         0
         0         0         0         0         0         0         0         0
         0         0         0         0         0         0         0         0
         0         0         0         0         0         0         0         0
         0         0         0         0         0         0         0         0
         0         0         0         0         0         0         0         0
         0         0         0         0         0         0         0         0
         0         0         0         0         0         0         0         0
         0         0         0         0         0         0         0         0
         0         0         0         0         0         0         0         0
         0         0         0         0         0         0         0         0
         0         0         0         0         0         0         0         0
         0         0         0         0         0         0         0         0
         0         0         0         0         0         0         0         0
         0         0         0         0         0         0         0         0
         0         0         0         0         0         0         0         0
         0         0         0         0         0         0         0         0
         0         0         0         0         0         0         0         0
         0         0         0         0         0         0         0         0
         0         0         0         0         0         0         0         0
         0         0         0         0         0         0         0         0
         0         0         0         0         0         0         0         0
         0         0         0         0         0         0         0         0
         0         0         0         0         0         0         0         0
         0         0         0         0         0         0         0         0
         0         0         0         0         0         0         0         0
         0         0         0         0         0         0         0         0
         0         0         0         0         0         0         0         0
         0         0         0         0         0         0         0         0
         0         0         0         0         0         0         0         0
         0         0         0         0         0         0         0         0
         0         0         0         0         0         0         0         0
         0         0         0         0         0         0         0         0
         0         0         0         0         0         0         0         0
         0         0         0         0         0         0         0         0
         0         0         0         0         0         0         0         0
         0         0         0         0         0         0         0         0
         0         0         0         0         0         0         0         0
         0         0         0         0         0         0         0         0
         0         0         0         0         0         0         0         0
         0         0         0         0         0         0         0         0
         0         0         0         0         0         0         0         0
         0         0         0         0         0         0         0         0
         0         0         0         0         0         0         0         0
         0         0         0         0         0         0         0         0
         0         0         0         0         0         0         0         0
         0         0         0         0         0         0         0         0
         0         0         0         0         0         0         0         0
         0         0         0         0         0         0         0         0
         0         0         0         0         0         0         0         0
         0         0         0         0         0         0         0         0
         0         0         0         0         0         0         0         0
         0         0         0         0         0         0         0         0
         0         0         0         0         0         0         0         0
         0         0         0         0         0         0         0         0
         0         0         0         0         0         0         0         0
         0         0         0         0         0         0         0         0
         0         0         0         0         0         0         0         0
         0         0         0         0         0         0         0         0
         0         0         0         0         0         0         0         0
         0         0         0         0         0         0         0         0
         0         0         0         0         0         0         0         0
         0         0         0         0         0         0         0         0
         0         0         0         0         0         0         0         0
         0         0         0         0         0         0         0         0
         0         0         0         0         0         0         0         0
         0         0         0         0         0         0         0         0
         0         0         0         0         0         0         0         0
         0         0         0         0         0         0         0         0
         0         0         0         0         0         0         0         0
         0         0         0         0         0         0         0         0
         0         0         0         0         0         0         0         0
         0         0         0         0         0         0         0         0
         0         0         0         0         0         0         0         0
         0         0         0         0         0         0         0         0
         0         0         0         0         0         0         0         0
         0         0         0         0         0         0         0         0
         0         0         0         0         0         0         0         0
         0         0         0         0         0         0         0         0
         0         0         0         0         0         0         0         0
         0         0         0         0         0         0         0         0
         0         0         0         0         0         0         0         0
         0         0         0         0         0         0         0         0
         0         0         0         0         0         0         0         0
         0         0         0         0         0         0         0         0
         0         0         0         0         0         0         0         0
         0         0         0         0         0         0         0         0
         0         0         0         0         0         0         0         0
         0         0         0         0         0         0         0         0
         0         0         0         0         0         0         0         0
         0         0         0         0         0         0         0         0
         0         0         0         0         0         0         0         0
         0         0         0         0         0         0         0         0
         0         0         0         0         0         0         0         0
         0         0         0         0         0         0         0         0
         0         0         0         0         0         0         0         0
         0         0         0         0         0         0         0         0
         0         0         0         0         0         0         0         0
         0         0         0         0         0         0         0         0
         0         0         0         0         0         0         0         0
         0         0         0         0         0         0         0         0
         0         0         0         0         0         0         0         0
         0         0         0         0         0         0         0         0
         0         0         0         0         0         0         0         0
         0         0         0         0         0         0         0         0
         0         0         0         0         0         0         0         0
         0         0         0         0         0         0         0         0
         0         0         0         0         0         0         0         0
         0         0         0         0         0         0         0         0
         0         0         0         0         0         0         0         0
         0         0         0         0         0         0         0         0
         0         0         0         0         0         0         0         0
         0         0         0         0         0         0         0         0
         0         0         0         0         0         0         0         0
         0         0         0         0         0         0         0         0
         0         0         0         0         0         0         0         0
         0         0         0         0         0         0         0         0
         0         0         0         0         0         0         0         0
         0         0         0         0         0         0         0         0
         0         0         0         0         0         0         0         0
         0         0         0         0         0         0         0         0
         0         0         0         0         0         0         0         0
         0         0         0         0         0         0         0         0
         0         0         0         0         0         0         0         0
         0         0         0         0         0         0         0         0
         0         0         0         0         0         0         0         0
         0         0         0         0         0         0         0         0
         0         0         0         0         0         0         0         0
         0         0         0         0         0         0         0         0
         0         0         0         0         0         0         0         0
         0         0         0         0         0         0         0         0
         0         0         0         0         0         0         0         0
         0         0         0         0         0         0         0         0
         0         0         0         0         0         0         0         0
         0         0         0         0         0         0         0         0
         0         0         0         0         0         0         0         0
         0         0         0         0         0         0         0         0
         0         0         0         0         0         0         0         0
         0         0         0         0         0         0         0         0
         0         0         0         0         0         0         0         0
         0         0         0         0         0         0         0         0
         0         0         0         0         0         0         0         0
         0         0         0         0         0         0         0         0
         0         0         0         0         0         0         0         0
         0         0         0         0         0         0         0         0
         0         0         0         0         0         0         0         0
         0         0         0         0         0         0         0         0
         0         0         0         0         0         0         0         0
         0         0         0         0         0         0         0         0
         0         0         0         0         0         0         0         0
         0         0         0         0         0         0         0         0
         0         0         0         0         0         0         0         0
         0         0         0         0         0         0         0         0
         0         0         0         0         0         0         0         0
         0         0         0         0         0         0         0         0
         0         0         0         0         0         0         0         0
         0         0         0         0         0         0         0         0
         0         0         0         0         0         0         0         0
         0         0         0         0         0         0         0         0
         0         0         0         0         0         0         0         0
         0         0         0         0         0         0         0         0
         0         0         0         0         0         0         0         0
         0         0         0         0         0         0         0         0
         0         0         0         0         0         0         0         0
         0         0         0         0         0         0         0         0
         0         0         0         0         0         0         0         0
         0         0         0         0         0         0         0         0
         0         0         0         0         0         0         0         0
         0         0         0         0         0         0         0         0
         0         0         0         0         0         0         0         0
         0         0         0         0         0         0         0         0
         0         0         0         0         0         0         0         0
         0         0         0         0         0         0         0         0
         0         0         0         0         0         0         0         0
         0         0         0         0         0         0         0         0
         0         0         0         0         0         0         0         0
         0         0         0         0         0         0         0         0
         0         0         0         0         0         0         0         0
         0         0         0         0         0         0         0         0
         0         0         0         0         0         0         0         0
         0         0         0         0         0         0         0         0
         0         0         0         0         0         0         0         0
         0         0         0         0         0         0         0         0
         0         0         0         0         0         0         0         0
         0         0         0         0         0         0         0         0
         0         0         0         0         0         0         0         0
         0         0         0         0         0         0         0         0
         0         0         0         0         0         0         0         0
         0         0         0         0         0         0         0         0
         0         0         0         0         0         0         0         0
         0         0         0         0         0         0         0         0
         0         0         0         0         0         0         0         0
         0         0         0         0         0         0         0         0
         0         0         0         0         0         0         0         0
         0         0         0         0         0         0         0         0
         0         0         0         0         0         0         0         0
         0         0         0         0         0         0         0         0
         0         0         0         0         0         0         0         0
         0         0         0         0         0         0         0         0
         0         0         0         0         0         0         0         0
         0         0         0         0         0         0         0         0
         0         0         0         0         0         0         0         0
         0         0         0         0         0         0         0         0
         0         0         0         0         0         0         0         0
         0         0         0         0         0         0         0         0
         0         0         0         0         0         0         0         0
         0         0         0         0         0         0         0         0
         0         0         0         0         0         0         0         0
         0         0         0         0         0         0         0         0
         0         0         0         0         0         0         0         0
         0         0         0         0         0         0         0         0
         0         0         0         0         0         0         0         0
         0         0         0         0         0         0         0         0
         0         0         0         0         0         0         0         0
         0         0         0         0         0         0         0         0
         0         0         0         0         0         0         0         0
         0         0         0         0         0         0         0         0
         0         0         0         0         0         0         0         0
         0         0         0         0         0         0         0         0
         0         0         0         0         0         0         0         0
         0         0         0         0         0         0         0         0
         0         0         0         0         0         0         0         0
         0         0         0         0         0         0         0         0
         0         0         0         0         0         0         0         0
         0         0         0         0         0         0         0         0
         0         0         0         0         0         0         0         0
         0         0         0         0         0         0         0         0
         0         0         0         0         0         0         0         0
         0         0         0         0         0         0         0         0
         0         0         0         0         0         0         0         0
         0         0         0         0         0         0         0         0
         0         0         0         0         0         0         0         0
         0         0         0         0         0         0         0         0
         0         0         0         0         0         0         0         0
         0         0         0         0         0         0         0         0
         0         0         0         0         0         0         0         0
         0         0         0         0         0         0         0         0
         0         0         0         0         0         0         0         0
         0         0         0         0         0         0         0         0
         0         0         0         0         0         0         0         0
         0         0         0         0         0         0         0         0
         0         0         0         0         0         0         0         0
         0         0         0         0         0         0         0         0
         0         0         0         0         0         0         0         0
         0         0         0         0         0         0         0         0
         0         0         0         0         0         0         0         0
         0         0         0         0         0         0         0         0
         0         0         0         0         0         0         0         0
         0         0         0         0         0         0         0         0
         0         0         0         0         0         0         0         0
         0         0         0         0         0         0         0         0
         0         0         0         0         0         0         0         0
         0         0         0         0         0         0         0         0
         0         0         0         0         0         0         0         0
         0         0         0         0         0         0         0         0
         0         0         0         0         0         0         0         0
         0         0         0         0         0         0         0         0
         0         0         0         0         0         0         0         0
         0         0         0         0         0         0         0         0
         0         0         0         0         0         0         0         0
         0         0         0         0         0         0         0         0
         0         0         0         0         0         0         0         0
         0         0         0         0         0         0         0         0
         0         0         0         0         0         0         0         0
         0         0         0         0         0         0         0         0
         0         0         0         0         0         0         0         0
         0         0         0         0         0         0         0         0
         0         0         0         0         0         0         0         0
         0         0         0         0         0         0         0         0
         0         0         0         0         0         0         0         0
         0         0         0         0         0         0         0         0
         0         0         0         0         0         0         0         0
         0         0         0         0         0         0         0         0
         0         0         0         0         0         0         0         0
         0         0         0         0         0         0         0         0
         0         0         0         0         0         0         0         0
         0         0         0         0         0         0         0         0
         0         0         0         0         0         0         0         0
         0         0         0         0         0         0         0         0
         0         0         0         0         0         0         0         0
         0         0         0         0         0         0         0         0
         0         0         0         0         0         0         0         0
         0         0         0         0         0         0         0         0
         0         0         0         0         0         0         0         0
         0         0         0         0         0         0         0         0
         0         0         0         0         0         0         0         0
         0         0         0         0         0         0         0         0
         0         0         0         0         0         0         0         0
         0         0         0         0         0         0         0         0
         0         0         0         0         0         0         0         0
         0         0         0         0         0         0         0         0
         0         0         0         0         0         0         0         0
         0         0         0         0         0         0         0         0
         0         0         0         0         0         0         0         0
         0         0         0         0         0         0         0         0
         0         0         0         0         0         0         0         0
         0         0         0         0         0         0         0         0
         0         0         0         0         0         0         0         0
         0         0         0         0         0         0         0         0
         0         0         0         0         0         0         0         0
         0         0         0         0         0         0         0         0
         0         0         0         0         0         0         0         0
         0         0         0         0         0         0         0         0
         0         0         0         0         0         0         0         0
         0         0         0         0         0         0         0         0
         0         0         0         0         0         0         0         0
         0         0         0         0         0         0         0         0
         0         0         0         0         0         0         0         0
         0         0         0         0         0         0         0         0
         0         0         0         0         0         0         0         0
         0         0         0         0         0         0         0         0
         0         0         0         0         0         0         0         0
         0         0         0         0         0         0         0         0
         0         0         0         0         0         0         0         0
         0         0         0         0         0         0         0         0
         0         0         0         0         0         0         0         0
         0         0         0         0         0         0         0         0
         0         0         0         0         0         0         0         0
         0         0         0         0         0         0         0         0
         0         0         0         0         0         0         0         0
         0         0         0         0         0         0         0         0
         0         0         0         0         0         0         0         0
         0         0         0         0         0         0         0         0
         0         0         0         0         0         0         0         0
         0         0         0         0         0         0         0         0
         0         0         0         0         0         0         0         0
         0         0         0         0         0         0         0         0
         0         0         0         0         0         0         0         0
         0         0         0         0         0         0         0         0
         0         0         0         0         0         0         0         0
         0         0         0         0         0         0         0         0
         0         0         0         0         0         0         0         0
         0         0         0         0         0         0         0         0
         0         0         0         0         0         0         0         0
         0         0         0         0         0         0         0         0
         0         0         0         0         0         0         0         0
         0         0         0         0         0         0         0         0
         0         0         0         0         0         0         0         0
         0         0         0         0         0         0         0         0
         0         0         0         0         0         0         0         0
         0         0         0         0         0         0         0         0
         0         0         0         0         0         0         0         0
         0         0         0         0         0         0         0         0
         0         0         0         0         0         0         0         0
         0         0         0         0         0         0         0         0
         0         0         0         0         0         0         0         0
         0         0         0         0         0         0         0         0
         0         0         0         0         0         0         0         0
         0         0         0         0         0         0         0         0
         0         0         0         0         0         0         0         0
         0         0         0         0         0         0         0         0
         0         0         0         0         0         0         0         0
         0         0         0         0         0         0         0         0
         0         0         0         0         0         0         0         0
         0         0         0         0         0         0         0         0
         0         0         0         0         0         0         0         0
         0         0         0         0         0         0         0         0
         0         0         0         0         0         0         0         0
         0         0         0         0         0         0         0         0
         0         0         0         0         0         0         0         0
         0         0         0         0         0         0         0         0
         0         0         0         0         0         0         0         0
         0         0         0         0         0         0         0         0
         0         0         0         0         0         0         0         0
         0         0         0         0         0         0         0         0
         0         0         0         0         0         0         0         0
         0         0         0         0         0         0         0         0
         0         0         0         0         0         0         0         0
         0         0         0         0         0         0         0         0
         0         0         0         0         0         0         0         0
         0         0         0         0         0         0         0         0
         0         0         0         0         0         0         0         0
         0         0         0         0         0         0         0         0
         0         0         0         0         0         0         0         0
         0         0         0         0         0         0         0         0
         0         0         0         0         0         0         0         0
         0         0         0         0         0         0         0         0
         0         0         0         0         0         0         0         0
         0         0         0         0         0         0         0         0
         0         0         0         0         0         0         0         0
         0         0         0         0         0         0         0         0
         0         0         0         0         0         0         0         0
         0         0         0         0         0         0         0         0
         0         0         0         0         0         0         0         0
         0         0         0         0         0         0         0         0
         0         0         0         0         0         0         0         0
         0         0         0         0         0         0         0         0
         0         0         0         0         0         0         0         0
         0         0         0         0         0         0         0         0
         0         0         0         0         0         0         0         0
         0         0         0         0         0         0         0         0
         0         0         0         0         0         0         0         0
         0         0         0         0         0         0         0         0
         0         0         0         0         0         0         0         0
         0         0         0         0         0         0         0         0
         0         0         0         0         0         0         0         0
         0         0         0         0         0         0         0         0
         0         0         0         0         0         0         0         0
         0         0         0         0         0         0         0         0
         0         0         0         0         0         0         0         0
         0         0         0         0         0         0         0         0
         0         0         0         0         0         0         0         0
         0         0         0         0         0         0         0         0
         0         0         0         0         0         0         0         0
         0         0         0         0         0         0         0         0
         0         0         0         0         0         0         0         0
         0         0         0         0         0         0         0         0
         0         0         0         0         0         0         0         0
         0         0         0         0         0         0         0         0
         0         0         0         0         0         0         0         0
         0         0         0         0         0         0         0         0
         0         0         0         0         0         0         0         0
         0         0         0         0         0         0         0         0
         0         0         0         0         0         0         0         0
         0         0         0         0         0         0         0         0
         0         0         0         0         0         0         0         0
         0         0         0         0         0         0         0         0
         0         0         0         0         0         0         0         0
         0         0         0         0         0         0         0         0
         0         0         0         0         0         0         0         0
         0         0         0         0         0         0         0         0
         0         0         0         0         0         0         0         0
         0         0         0         0         0         0         0         0
         0         0         0         0         0         0         0         0
         0         0         0         0         0         0         0         0
         0         0         0         0         0         0         0         0
         0         0         0         0         0         0         0         0
         0         0         0         0         0         0         0         0
         0         0         0         0         0         0         0         0
         0         0         0         0         0         0         0         0
         0         0         0         0         0         0         0         0
         0         0         0         0         0         0         0         0
         0         0         0         0         0         0         0         0
         0         0         0         0         0         0         0         0
         0         0         0         0         0         0         0         0
         0         0         0         0         0         0         0         0
         0         0         0         0         0         0         0         0
         0         0         0         0         0         0         0         0
         0         0         0         0         0         0         0         0
         0         0         0         0         0         0         0         0
         0         0         0         0         0         0         0         0
         0         0         0         0         0         0         0         0
         0         0         0         0         0         0         0         0
         0         0         0         0         0         0         0         0
         0         0         0         0         0         0         0         0
         0         0         0         0         0         0         0         0
         0         0         0         0         0         0         0         0
         0         0         0         0         0         0         0         0
         0         0         0         0         0         0         0         0
         0         0         0         0         0         0         0         0
         0         0         0         0         0         0         0         0
         0         0         0         0         0         0         0         0
         0         0         0         0         0         0         0         0
         0         0         0         0         0         0         0         0
         0         0         0         0         0         0         0         0
         0         0         0         0         0         0         0         0
         0         0         0         0         0         0         0         0
         0         0         0         0         0         0         0         0
         0         0         0         0         0         0         0         0
         0         0         0         0         0         0         0         0
         0         0         0         0         0         0         0         0
         0         0         0         0         0         0         0         0
         0         0         0         0         0         0         0         0
         0         0         0         0         0         0         0         0
         0         0         0         0         0         0         0         0
         0         0         0         0         0         0         0         0
         0         0         0         0         0         0         0         0
         0         0         0         0         0         0         0         0
         0         0         0         0         0         0         0         0
         0         0         0         0         0         0         0         0
         0         0         0         0         0         0         0         0
         0         0         0         0         0         0         0         0
         0         0         0         0         0         0         0         0
         0         0         0         0         0         0         0         0
         0         0         0         0         0         0         0         0
         0         0         0         0         0         0         0         0
         0         0         0         0         0         0         0         0
         0         0         0         0         0         0         0         0
         0         0         0         0         0         0         0         0
         0         0         0         0         0         0         0         0
         0         0         0         0         0         0         0         0
         0         0         0         0         0         0         0         0
         0         0         0         0         0         0         0         0
         0         0         0         0         0         0         0         0
         0         0         0         0         0         0         0         0
         0         0         0         0         0         0         0         0
         0         0         0         0         0         0         0         0
         0         0         0         0         0         0         0         0
         0         0         0         0         0         0         0         0
         0         0         0         0         0         0         0         0
         0         0         0         0         0         0         0         0
         0         0         0         0         0         0         0         0
         0         0         0         0         0         0         0         0
         0         0         0         0         0         0         0         0
         0         0         0         0         0         0         0         0
         0         0         0         0         0         0         0         0
         0         0         0         0         0         0         0         0
         0         0         0         0         0         0         0         0
         0         0         0         0         0         0

     11696         0 !NGRP NST2
         0         1         0         4         1         0         7         1         0
        10         1         0        13         1         0        15         1         0
        17         1         0        20         1         0        23         1         0
        25         0         0        26         1         0        30         1         0
        33         1         0        36         1         0        38         0         0
        39         1         0        43         1         0        46         1         0
        49         1         0        51         1         0        55         1         0
        58         1         0        61         1         0        64         1         0
        66         1         0        70         1         0        74         1         0
        78         1         0        81         1         0        84         1         0
        87         1         0        89         1         0        91         1         0
        94         1         0        97         1         0        99         0         0
       100         1         0       104         1         0       107         1         0
       110         1         0       112         0         0       113         1         0
       117         1         0       120         1         0       123         1         0
       125         1         0       129         1         0       132         1         0
       135         1         0       138         1         0       140         1         0
       144         1         0       148         1         0       152         1         0
       155         1         0       158         1         0       161         1         0
       163         1         0       165         1         0       168         1         0
       171         1         0       173         0         0       174         1         0
       178         1         0       181         1         0       184         1         0
       186         0         0       187         1         0       191         1         0
       194         1         0       197         1         0       199         1         0
       203         1         0       206         1         0       209         1         0
       212         1         0       214         1         0       218         1         0
       222         1         0       226         1         0       229         1         0
       232         1         0       235         1         0       237         1         0
       239         1         0       242         1         0       245         1         0
       247         0         0       248         1         0       252         1         0
       255         1         0       258         1         0       260         0         0
       261         1         0       265         1         0       268         1         0
       271         1         0       273         1         0       277         1         0
       280         1         0       283         1         0       286         1         0
       288         1         0       292         1         0       296         1         0
       300         1         0       303         1         0       306         1         0
       309         1         0       311         1         0       313         1         0
       316         1         0       319         1         0       321         0         0
       322         1         0       326         1         0       329         1         0
       332         1         0       334         0         0       335         1         0
       339         1         0       342         1         0       345         1         0
       347         1         0       351         1         0       354         1         0
       357         1         0       360         1         0       362         1         0
       366         1         0       370         1         0       374         1         0
       377         1         0       380         1         0       383         1         0
       385         1         0       387         1         0       390         1         0
       393         1         0       395         0         0       396         1         0
       400         1         0       403         1         0       406         1         0
       408         0         0       409         1         0       413         1         0
       416         1         0       419         1         0       421         1         0
       425         1         0       428         1         0       431         1         0
       434         1         0       436         1         0       440         1         0
       444         1         0       448         1         0       451         1         0
       454         1         0       457         1         0       459         1         0
       461         1         0       464         1         0       467         1         0
       469         0         0       470         1         0       474         1         0
       477         1         0       480         1         0       482         0         0
       483         1         0       487         1         0       490         1         0
       493         1         0       495         1         0       499         1         0
       502         1         0       505         1         0       508         1         0
       510         1         0       514         1         0       518         1         0
       522         1         0       525         1         0       528         1         0
       531         1         0       533         1         0       535         1         0
       538         1         0       541         1         0       543         0         0
       544         1         0       548         1         0       551         1         0
       554         1         0       556         0         0       557         1         0
       561         1         0       564         1         0       567         1         0
       569         1         0       573         1         0       576         1         0
       579         1         0       582         1         0       584         1         0
       588         1         0       592         1         0       596         1         0
       599         1         0       602         1         0       605         1         0
       607         1         0       609         1         0       612         1         0
       615         1         0       617         0         0       618         1         0
       622         1         0       625         1         0       628         1         0
       630         0         0       631         1         0       635         1         0
       638         1         0       641         1         0       643         1         0
       647         1         0       650         1         0       653         1         0
       656         1         0       658         1         0       662         1         0
       666         1         0       670         1         0       673         1         0
       676         1         0       679         1         0       681         1         0
       683         1         0       686         1         0       689         1         0
       691         0         0       692         1         0       696         1         0
       699         1         0       702         1         0       704         0         0
       705         1         0       709         1         0       712         1         0
       715         1         0       717         1         0       721         1         0
       724         1         0       727         1         0       730         1         0
       732         1         0       736         1         0       740         1         0
       744         1         0       747         1         0       750         1         0
       753         1         0       755         1         0       757         1         0
       760         1         0       763         1         0       765         0         0
       766         1         0       770         1         0       773         1         0
       776         1         0       778         0         0       779         1         0
       783         1         0       786         1         0       789         1         0
       791         1         0       795         1         0       798         1         0
       801         1         0       804         1         0       806         1         0
       810         1         0       814         1         0       818         1         0
       821         1         0       824         1         0       827         1         0
       829         1         0       831         1         0       834         1         0
       837         1         0       839         0         0       840         1         0
       844         1         0       847         1         0       850         1         0
       852         0         0       853         1         0       857         1         0
       860         1         0       863         1         0       865         1         0
       869         1         0       872         1         0       875         1         0
       878         1         0       880         1         0       884         1         0
       888         1         0       892         1         0       895         1         0
       898         1         0       901         1         0       903         1         0
       905         1         0       908         1         0       911         1         0
       913         0         0       914         1         0       918         1         0
       921         1         0       924         1         0       926         0         0
       927         1         0       931         1         0       934         1         0
       937         1         0       939         1         0       943         1         0
       946         1         0       949         1         0       952         1         0
       954         1         0       958         1         0       962         1         0
       966         1         0       969         1         0       972         1         0
       975         1         0       977         1         0       979         1         0
       982         1         0       985         1         0       987         0         0
       988         1         0       992         1         0       995         1         0
       998         1         0      1000         0         0      1001         1         0
      1005         1         0      1008         1         0      1011         1         0
      1013         1         0      1017         1         0      1020         1         0
      1023         1         0      1026         1         0      1028         1         0
      1032         1         0      1036         1         0      1040         1         0
      1043         1         0      1046         1         0      1049         1         0
      1051         1         0      1053         1         0      1056         1         0
      1059         1         0      1061         0         0      1062         1         0
      1066         1         0      1069         1         0      1072         1         0
      1074         0         0      1075         1         0      1079         1         0
      1082         1         0      1085         1         0      1087         1         0
      1091         1         0      1094         1         0      1097         1         0
      1100         1         0      1102         1         0      1106         1         0
      1110         1         0      1114         1         0      1117         1         0
      1120         1         0      1123         1         0      1125         1         0
      1127         1         0      1130         1         0      1133         1         0
      1135         0         0      1136         1         0      1140         1         0
      1143         1         0      1146         1         0      1148         0         0
      1149         1         0      1153         1         0      1156         1         0
      1159         1         0      1161         1         0      1165         1         0
      1168         1         0      1171         1         0      1174         1         0
      1176         1         0      1180         1         0      1184         1         0
      1188         1         0      1191         1         0      1194         1         0
      1197         1         0      1199         1         0      1201         1         0
      1204         1         0      1207         1         0      1209         0         0
      1210         1         0      1214         1         0      1217         1         0
      1220         1         0      1222         0         0      1223         1         0
      1227         1         0      1230         1         0      1233         1         0
      1235         1         0      1239         1         0      1242         1         0
      1245         1         0      1248         1         0      1250         1         0
      1254         1         0      1258         1         0      1262         1         0
      1265         1         0      1268         1         0      1271         1         0
      1273         1         0      1275         1         0      1278         1         0
      1281         1         0      1283         0         0      1284         1         0
      1288         1         0      1291         1         0      1294         1         0
      1296         0         0      1297         1         0      1301         1         0
      1304         1         0      1307         1         0      1309         1         0
      1313         1         0      1316         1         0      1319         1         0
      1322         1         0      1324         1         0      1328         1         0
      1332         1         0      1336         1         0      1339         1         0
      1342         1         0      1345         1         0      1347         1         0
      1349         1         0      1352         1         0      1355         1         0
      1357         0         0      1358         1         0      1362         1         0
      1365         1         0      1368         1         0      1370         0         0
      1371         1         0      1375         1         0      1378         1         0
      1381         1         0      1383         1         0      1387         1         0
      1390         1         0      1393         1         0      1396         1         0
      1398         1         0      1402         1         0      1406         1         0
      1410         1         0      1413         1         0      1416         1         0
      1419         1         0      1421         1         0      1423         1         0
      1426         1         0      1429         1         0      1431         0         0
      1432         1         0      1436         1         0      1439         1         0
      1442         1         0      1444         0         0      1445         1         0
      1449         1         0      1452         1         0      1455         1         0
      1457         1         0      1461         1         0      1464         1         0
      1467         1         0      1470         1         0      1472         1         0
      1476         1         0      1480         1         0      1484         1         0
      1487         1         0      1490         1         0      1493         1         0
      1495         1         0      1497         1         0      1500         1         0
      1503         1         0      1505         0         0      1506         1         0
      1510         1         0      1513         1         0      1516         1         0
      1518         0         0      1519         1         0      1523         1         0
      1526         1         0      1529         1         0      1531         1         0
      1535         1         0      1538         1         0      1541         1         0
      1544         1         0      1546         1         0      1550         1         0
      1554         1         0      1558         1         0      1561         1         0
      1564         1         0      1567         1         0      1569         1         0
      1571         1         0      1574         1         0      1577         1         0
      1579         0         0      1580         1         0      1584         1         0
      1587         1         0      1590         1         0      1592         0         0
      1593         1         0      1597         1         0      1600         1         0
      1603         1         0      1605         1         0      1609         1         0
      1612         1         0      1615         1         0      1618         1         0
      1620         1         0      1624         1         0      1628         1         0
      1632         1         0      1635         1         0      1638         1         0
      1641         1         0      1643         1         0      1645         1         0
      1648         1         0      1651         1         0      1653         0         0
      1654         1         0      1658         1         0      1661         1         0
      1664         1         0      1666         0         0      1667         1         0
      1671         1         0      1674         1         0      1677         1         0
      1679         1         0      1683         1         0      1686         1         0
      1689         1         0      1692         1         0      1694         1         0
      1698         1         0      1702         1         0      1706         1         0
      1709         1         0      1712         1         0      1715         1         0
      1717         1         0      1719         1         0      1722         1         0
      1725         1         0      1727         0         0      1728         1         0
      1732         1         0      1735         1         0      1738         1         0
      1740         0         0      1741         1         0      1745         1         0
      1748         1         0      1751         1         0      1753         1         0
      1757         1         0      1760         1         0      1763         1         0
      1766         1         0      1768         1         0      1772         1         0
      1776         1         0      1780         1         0      1783         1         0
      1786         1         0      1789         1         0      1791         1         0
      1793         1         0      1796         1         0      1799         1         0
      1801         0         0      1802         1         0      1806         1         0
      1809         1         0      1812         1         0      1814         0         0
      1815         1         0      1819         1         0      1822         1         0
      1825         1         0      1827         1         0      1831         1         0
      1834         1         0      1837         1         0      1840         1         0
      1842         1         0      1846         1         0      1850         1         0
      1854         1         0      1857         1         0      1860         1         0
      1863         1         0      1865         1         0      1867         1         0
      1870         1         0      1873         1         0      1875         0         0
      1876         1         0      1880         1         0      1883         1         0
      1886         1         0      1888         0         0      1889         1         0
      1893         1         0      1896         1         0      1899         1         0
      1901         1         0      1905         1         0      1908         1         0
      1911         1         0      1914         1         0      1916         1         0
      1920         1         0      1924         1         0      1928         1         0
      1931         1         0      1934         1         0      1937         1         0
      1939         1         0      1941         1         0      1944         1         0
      1947         1         0      1949         0         0      1950         1         0
      1954         1         0      1957         1         0      1960         1         0
      1962         0         0      1963         1         0      1967         1         0
      1970         1         0      1973         1         0      1975         1         0
      1979         1         0      1982         1         0      1985         1         0
      1988         1         0      1990         1         0      1994         1         0
      1998         1         0      2002         1         0      2005         1         0
      2008         1         0      2011         1         0      2013         1         0
      2015         1         0      2018         1         0      2021         1         0
      2023         0         0      2024         1         0      2028         1         0
      2031         1         0      2034         1         0      2036         0         0
      2037         1         0      2041         1         0      2044         1         0
      2047         1         0      2049         1         0      2053         1         0
      2056         1         0      2059         1         0      2062         1         0
      2064         1         0      2068         1         0      2072         1         0
      2076         1         0      2079         1         0      2082         1         0
      2085         1         0      2087         1         0      2089         1         0
      2092         1         0      2095         1         0      2097         0         0
      2098         1         0      2102         1         0      2105         1         0
      2108         1         0      2110         0         0      2111         1         0
      2115         1         0      2118         1         0      2121         1         0
      2123         1         0      2127         1         0      2130         1         0
      2133         1         0      2136         1         0      2138         1         0
      2142         1         0      2146         1         0      2150         1         0
      2153         1         0      2156         1         0      2159         1         0
      2161         1         0      2163         1         0      2166         1         0
      2169         1         0      2171         0         0      2172         1         0
      2176         1         0      2179         1         0      2182         1         0
      2184         0         0      2185         1         0      2189         1         0
      2192         1         0      2195         1         0      2197         1         0
      2201         1         0      2204         1         0      2207         1         0
      2210         1         0      2212         1         0      2216         1         0
      2220         1         0      2224         1         0      2227         1         0
      2230         1         0      2233         1         0      2235         1         0
      2237         1         0      2240         1         0      2243         1         0
      2245         0         0      2246         1         0      2250         1         0
      2253         1         0      2256         1         0      2258         0         0
      2259         1         0      2263         1         0      2266         1         0
      2269         1         0      2271         1         0      2275         1         0
      2278         1         0      2281         1         0      2284         1         0
      2286         1         0      2290         1         0      2294         1         0
      2298         1         0      2301         1         0      2304         1         0
      2307         1         0      2309         1         0      2311         1         0
      2314         1         0      2317         1         0      2319         0         0
      2320         1         0      2324         1         0      2327         1         0
      2330         1         0      2332         0         0      2333         1         0
      2337         1         0      2340         1         0      2343         1         0
      2345         1         0      2349         1         0      2352         1         0
      2355         1         0      2358         1         0      2360         1         0
      2364         1         0      2368         1         0      2372         1         0
      2375         1         0      2378         1         0      2381         1         0
      2383         1         0      2385         1         0      2388         1         0
      2391         1         0      2393         0         0      2394         1         0
      2398         1         0      2401         1         0      2404         1         0
      2406         0         0      2407         1         0      2411         1         0
      2414         1         0      2417         1         0      2419         1         0
      2423         1         0      2426         1         0      2429         1         0
      2432         1         0      2434         1         0      2438         1         0
      2442         1         0      2446         1         0      2449         1         0
      2452         1         0      2455         1         0      2457         1         0
      2459         1         0      2462         1         0      2465         1         0
      2467         0         0      2468         1         0      2472         1         0
      2475         1         0      2478         1         0      2480         0         0
      2481         1         0      2485         1         0      2488         1         0
      2491         1         0      2493         1         0      2497         1         0
      2500         1         0      2503         1         0      2506         1         0
      2508         1         0      2512         1         0      2516         1         0
      2520         1         0      2523         1         0      2526         1         0
      2529         1         0      2531         1         0      2533         1         0
      2536         1         0      2539         1         0      2541         0         0
      2542         1         0      2546         1         0      2549         1         0
      2552         1         0      2554         0         0      2555         1         0
      2559         1         0      2562         1         0      2565         1         0
      2567         1         0      2571         1         0      2574         1         0
      2577         1         0      2580         1         0      2582         1         0
      2586         1         0      2590         1         0      2594         1         0
      2597         1         0      2600         1         0      2603         1         0
      2605         1         0      2607         1         0      2610         1         0
      2613         1         0      2615         0         0      2616         1         0
      2620         1         0      2623         1         0      2626         1         0
      2628         0         0      2629         1         0      2633         1         0
      2636         1         0      2639         1         0      2641         1         0
      2645         1         0      2648         1         0      2651         1         0
      2654         1         0      2656         1         0      2660         1         0
      2664         1         0      2668         1         0      2671         1         0
      2674         1         0      2677         1         0      2679         1         0
      2681         1         0      2684         1         0      2687         1         0
      2689         0         0      2690         1         0      2694         1         0
      2697         1         0      2700         1         0      2702         0         0
      2703         1         0      2707         1         0      2710         1         0
      2713         1         0      2715         1         0      2719         1         0
      2722         1         0      2725         1         0      2728         1         0
      2730         1         0      2734         1         0      2738         1         0
      2742         1         0      2745         1         0      2748         1         0
      2751         1         0      2753         1         0      2755         1         0
      2758         1         0      2761         1         0      2763         0         0
      2764         1         0      2768         1         0      2771         1         0
      2774         1         0      2776         0         0      2777         1         0
      2781         1         0      2784         1         0      2787         1         0
      2789         1         0      2793         1         0      2796         1         0
      2799         1         0      2802         1         0      2804         1         0
      2808         1         0      2812         2         0      2828         2         0
      2839         1         0      2847         1         0      2856         1         0
      2859         1         0      2862         1         0      2865         1         0
      2868         1         0      2871         1         0      2874         1         0
      2876         1         0      2878         1         0      2881         1         0
      2884         1         0      2887         1         0      2890         1         0
      2893         1         0      2896         1         0      2899         1         0
      2903         1         0      2906         1         0      2909         1         0
      2912         1         0      2915         1         0      2918         1         0
      2921         1         0      2924         1         0      2927         1         0
      2930         1         0      2933         1         0      2936         1         0
      2939         1         0      2942         1         0      2946         2         0
      2962         2         0      2973         1         0      2981         1         0
      2990         1         0      2993         1         0      2996         1         0
      2999         1         0      3002         1         0      3005         1         0
      3008         1         0      3010         1         0      3012         1         0
      3015         1         0      3018         1         0      3021         1         0
      3024         1         0      3027         1         0      3030         1         0
      3033         1         0      3037         1         0      3040         1         0
      3043         1         0      3046         1         0      3049         1         0
      3052         1         0      3055         1         0      3058         1         0
      3061         1         0      3064         1         0      3067         1         0
      3070         1         0      3073         1         0      3076         1         0
      3080         2         0      3096         2         0      3107         1         0
      3115         1         0      3124         1         0      3127         1         0
      3130         1         0      3133         1         0      3136         1         0
      3139         1         0      3142         1         0      3144         1         0
      3146         1         0      3149         1         0      3152         1         0
      3155         1         0      3158         1         0      3161         1         0
      3164         1         0      3167         1         0      3171         1         0
      3174         1         0      3177         1         0      3180         1         0
      3183         1         0      3186         1         0      3189         1         0
      3192         1         0      3195         1         0      3198         1         0
      3201         1         0      3204         1         0      3207         1         0
      3210         1         0      3214         2         0      3230         2         0
      3241         1         0      3249         1         0      3258         1         0
      3261         1         0      3264         1         0      3267         1         0
      3270         1         0      3273         1         0      3276         1         0
      3278         1         0      3280         1         0      3283         1         0
      3286         1         0      3289         1         0      3292         1         0
      3295         1         0      3298         1         0      3301         1         0
      3305         1         0      3308         1         0      3311         1         0
      3314         1         0      3317         1         0      3320         1         0
      3323         1         0      3326         1         0      3329         1         0
      3332         1         0      3335         1         0      3338         1         0
      3341         1         0      3344         1         0      3348         2         0
      3364         2         0      3375         1         0      3383         1         0
      3392         1         0      3395         1         0      3398         1         0
      3401         1         0      3404         1         0      3407         1         0
      3410         1         0      3412         1         0      3414         1         0
      3417         1         0      3420         1         0      3423         1         0
      3426         1         0      3429         1         0      3432         1         0
      3435         1         0      3439         1         0      3442         1         0
      3445         1         0      3448         1         0      3451         1         0
      3454         1         0      3457         1         0      3460         1         0
      3463         1         0      3466         1         0      3469         1         0
      3472         1         0      3475         1         0      3478         1         0
      3482         2         0      3489         2         0      3500         1         0
      3508         1         0      3517         1         0      3520         1         0
      3523         1         0      3526         1         0      3529         1         0
      3532         1         0      3535         1         0      3537         1         0
      3539         1         0      3542         1         0      3545         1         0
      3548         1         0      3551         1         0      3554         1         0
      3557         1         0      3560         1         0      3564         1         0
      3567         1         0      3570         1         0      3573         1         0
      3576         1         0      3579         1         0      3582         1         0
      3585         1         0      3588         1         0      3591         1         0
      3594         1         0      3597         1         0      3600         1         0
      3603         1         0      3607         2         0      3623         2         0
      3634         1         0      3642         1         0      3651         1         0
      3654         1         0      3657         1         0      3660         1         0
      3663         1         0      3666         1         0      3669         1         0
      3671         1         0      3673         1         0      3676         1         0
      3679         1         0      3682         1         0      3685         1         0
      3688         1         0      3691         1         0      3694         1         0
      3698         1         0      3701         1         0      3704         1         0
      3707         1         0      3710         1         0      3713         1         0
      3716         1         0      3719         1         0      3722         1         0
      3725         1         0      3728         1         0      3731         1         0
      3734         1         0      3737         1         0      3741         2         0
      3748         2         0      3759         1         0      3767         1         0
      3776         1         0      3779         1         0      3782         1         0
      3785         1         0      3788         1         0      3791         1         0
      3794         1         0      3796         1         0      3798         1         0
      3801         1         0      3804         1         0      3807         1         0
      3810         1         0      3813         1         0      3816         1         0
      3819         1         0      3823         1         0      3826         1         0
      3829         1         0      3832         1         0      3835         1         0
      3838         1         0      3841         1         0      3844         1         0
      3847         1         0      3850         1         0      3853         1         0
      3856         1         0      3859         1         0      3862         1         0
      3866         2         0      3873         2         0      3884         1         0
      3892         1         0      3901         1         0      3904         1         0
      3907         1         0      3910         1         0      3913         1         0
      3916         1         0      3919         1         0      3921         1         0
      3923         1         0      3926         1         0      3929         1         0
      3932         1         0      3935         1         0      3938         1         0
      3941         1         0      3944         1         0      3948         1         0
      3951         1         0      3954         1         0      3957         1         0
      3960         1         0      3963         1         0      3966         1         0
      3969         1         0      3972         1         0      3975         1         0
      3978         1         0      3981         1         0      3984         1         0
      3987         1         0      3991         2         0      3998         2         0
      4009         1         0      4017         1         0      4026         1         0
      4029         1         0      4032         1         0      4035         1         0
      4038         1         0      4041         1         0      4044         1         0
      4046         1         0      4048         1         0      4051         1         0
      4054         1         0      4057         1         0      4060         1         0
      4063         1         0      4066         1         0      4069         1         0
      4073         1         0      4076         1         0      4079         1         0
      4082         1         0      4085         1         0      4088         1         0
      4091         1         0      4094         1         0      4097         1         0
      4100         1         0      4103         1         0      4106         1         0
      4109         1         0      4112         1         0      4116         2         0
      4132         2         0      4143         1         0      4151         1         0
      4160         1         0      4163         1         0      4166         1         0
      4169         1         0      4172         1         0      4175         1         0
      4178         1         0      4180         1         0      4182         1         0
      4185         1         0      4188         1         0      4191         1         0
      4194         1         0      4197         1         0      4200         1         0
      4203         1         0      4207         1         0      4210         1         0
      4213         1         0      4216         1         0      4219         1         0
      4222         1         0      4225         1         0      4228         1         0
      4231         1         0      4234         1         0      4237         1         0
      4240         1         0      4243         1         0      4246         1         0
      4250         2         0      4266         2         0      4277         1         0
      4285         1         0      4294         1         0      4297         1         0
      4300         1         0      4303         1         0      4306         1         0
      4309         1         0      4312         1         0      4314         1         0
      4316         1         0      4319         1         0      4322         1         0
      4325         1         0      4328         1         0      4331         1         0
      4334         1         0      4337         1         0      4341         1         0
      4344         1         0      4347         1         0      4350         1         0
      4353         1         0      4356         1         0      4359         1         0
      4362         1         0      4365         1         0      4368         1         0
      4371         1         0      4374         1         0      4377         1         0
      4380         1         0      4384         2         0      4400         2         0
      4411         1         0      4419         1         0      4428         1         0
      4431         1         0      4434         1         0      4437         1         0
      4440         1         0      4443         1         0      4446         1         0
      4448         1         0      4450         1         0      4453         1         0
      4456         1         0      4459         1         0      4462         1         0
      4465         1         0      4468         1         0      4471         1         0
      4475         1         0      4478         1         0      4481         1         0
      4484         1         0      4487         1         0      4490         1         0
      4493         1         0      4496         1         0      4499         1         0
      4502         1         0      4505         1         0      4508         1         0
      4511         1         0      4514         1         0      4518         2         0
      4534         2         0      4545         1         0      4553         1         0
      4562         1         0      4565         1         0      4568         1         0
      4571         1         0      4574         1         0      4577         1         0
      4580         1         0      4582         1         0      4584         1         0
      4587         1         0      4590         1         0      4593         1         0
      4596         1         0      4599         1         0      4602         1         0
      4605         1         0      4609         1         0      4612         1         0
      4615         1         0      4618         1         0      4621         1         0
      4624         1         0      4627         1         0      4630         1         0
      4633         1         0      4636         1         0      4639         1         0
      4642         1         0      4645         1         0      4648         1         0
      4652         2         0      4668         2         0      4679         1         0
      4687         1         0      4696         1         0      4699         1         0
      4702         1         0      4705         1         0      4708         1         0
      4711         1         0      4714         1         0      4716         1         0
      4718         1         0      4721         1         0      4724         1         0
      4727         1         0      4730         1         0      4733         1         0
      4736         1         0      4739         1         0      4743         1         0
      4746         1         0      4749         1         0      4752         1         0
      4755         1         0      4758         1         0      4761         1         0
      4764         1         0      4767         1         0      4770         1         0
      4773         1         0      4776         1         0      4779         1         0
      4782         1         0      4786         2         0      4802         2         0
      4813         1         0      4821         1         0      4830         1         0
      4833         1         0      4836         1         0      4839         1         0
      4842         1         0      4845         1         0      4848         1         0
      4850         1         0      4852         1         0      4855         1         0
      4858         1         0      4861         1         0      4864         1         0
      4867         1         0      4870         1         0      4873         1         0
      4877         1         0      4880         1         0      4883         1         0
      4886         1         0      4889         1         0      4892         1         0
      4895         1         0      4898         1         0      4901         1         0
      4904         1         0      4907         1         0      4910         1         0
      4913         1         0      4916         1         0      4920         2         0
      4927         2         0      4938         1         0      4946         1         0
      4955         1         0      4958         1         0      4961         1         0
      4964         1         0      4967         1         0      4970         1         0
      4973         1         0      4975         1         0      4977         1         0
      4980         1         0      4983         1         0      4986         1         0
      4989         1         0      4992         1         0      4995         1         0
      4998         1         0      5002         1         0      5005         1         0
      5008         1         0      5011         1         0      5014         1         0
      5017         1         0      5020         1         0      5023         1         0
      5026         1         0      5029         1         0      5032         1         0
      5035         1         0      5038         1         0      5041         1         0
      5045         2         0      5052         2         0      5063         1         0
      5071         1         0      5080         1         0      5083         1         0
      5086         1         0      5089         1         0      5092         1         0
      5095         1         0      5098         1         0      5100         1         0
      5102         1         0      5105         1         0      5108         1         0
      5111         1         0      5114         1         0      5117         1         0
      5120         1         0      5123         1         0      5127         1         0
      5130         1         0      5133         1         0      5136         1         0
      5139         1         0      5142         1         0      5145         1         0
      5148         1         0      5151         1         0      5154         1         0
      5157         1         0      5160         1         0      5163         1         0
      5166         1         0      5170         2         0      5186         2         0
      5197         1         0      5205         1         0      5214         1         0
      5217         1         0      5220         1         0      5223         1         0
      5226         1         0      5229         1         0      5232         1         0
      5234         1         0      5236         1         0      5239         1         0
      5242         1         0      5245         1         0      5248         1         0
      5251         1         0      5254         1         0      5257         1         0
      5261         1         0      5264         1         0      5267         1         0
      5270         1         0      5273         1         0      5276         1         0
      5279         1         0      5282         1         0      5285         1         0
      5288         1         0      5291         1         0      5294         1         0
      5297         1         0      5300         1         0      5304         2         0
      5311         2         0      5322         1         0      5330         1         0
      5339         1         0      5342         1         0      5345         1         0
      5348         1         0      5351         1         0      5354         1         0
      5357         1         0      5359         1         0      5361         1         0
      5364         1         0      5367         1         0      5370         1         0
      5373         1         0      5376         1         0      5379         1         0
      5382         1         0      5386         1         0      5389         1         0
      5392         1         0      5395         1         0      5398         1         0
      5401         1         0      5404         1         0      5407         1         0
      5410         1         0      5413         1         0      5416         1         0
      5419         1         0      5422         1         0      5425         1         0
      5429         2         0      5436         2         0      5447         1         0
      5455         1         0      5464         1         0      5467         1         0
      5470         1         0      5473         1         0      5476         1         0
      5479         1         0      5482         1         0      5484         1         0
      5486         1         0      5489         1         0      5492         1         0
      5495         1         0      5498         1         0      5501         1         0
      5504         1         0      5507         1         0      5511         1         0
      5514         1         0      5517         1         0      5520         1         0
      5523         1         0      5526         1         0      5529         1         0
      5532         1         0      5535         1         0      5538         1         0
      5541         1         0      5544         1         0      5547         1         0
      5550         1         0      5554         2         0      5570         2         0
      5581         1         0      5589         1         0      5598         1         0
      5601         1         0      5604         1         0      5607         1         0
      5610         1         0      5613         1         0      5616         1         0
      5618         1         0      5620         1         0      5623         1         0
      5626         1         0      5629         1         0      5632         1         0
      5635         1         0      5638         1         0      5641         1         0
      5645         1         0      5648         1         0      5651         1         0
      5654         1         0      5657         1         0      5660         1         0
      5663         1         0      5666         1         0      5669         1         0
      5672         1         0      5675         1         0      5678         1         0
      5681         1         0      5684         1         0      5688         2         0
      5704         2         0      5715         1         0      5723         1         0
      5732         1         0      5735         1         0      5738         1         0
      5741         1         0      5744         1         0      5747         1         0
      5750         1         0      5752         1         0      5754         1         0
      5757         1         0      5760         1         0      5763         1         0
      5766         1         0      5769         1         0      5772         1         0
      5775         1         0      5779         1         0      5782         1         0
      5785         1         0      5788         1         0      5791         1         0
      5794         1         0      5797         1         0      5800         1         0
      5803         1         0      5806         1         0      5809         1         0
      5812         1         0      5815         1         0      5818         1         0
      5822         2         0      5838         2         0      5849         1         0
      5857         1         0      5866         1         0      5869         1         0
      5872         1         0      5875         1         0      5878         1         0
      5881         1         0      5884         1         0      5886         1         0
      5888         1         0      5891         1         0      5894         1         0
      5897         1         0      5900         1         0      5903         1         0
      5906         1         0      5909         1         0      5913         1         0
      5916         1         0      5919         1         0      5922         1         0
      5925         1         0      5928         1         0      5931         1         0
      5934         1         0      5937         1         0      5940         1         0
      5943         1         0      5946         1         0      5949         1         0
      5952         1         0      5956         2         0      5972         2         0
      5983         1         0      5991         1         0      6000         1         0
      6003         1         0      6006         1         0      6009         1         0
      6012         1         0      6015         1         0      6018         1         0
      6020         1         0      6022         1         0      6025         1         0
      6028         1         0      6031         1         0      6034         1         0
      6037         1         0      6040         1         0      6043         1         0
      6047         1         0      6050         1         0      6053         1         0
      6056         1         0      6059         1         0      6062         1         0
      6065         1         0      6068         1         0      6071         1         0
      6074         1         0      6077         1         0      6080         1         0
      6083         1         0      6086         1         0      6090         2         0
      6097         2         0      6108         1         0      6116         1         0
      6125         1         0      6128         1         0      6131         1         0
      6134         1         0      6137         1         0      6140         1         0
      6143         1         0      6145         1         0      6147         1         0
      6150         1         0      6153         1         0      6156         1         0
      6159         1         0      6162         1         0      6165         1         0
      6168         1         0      6172         1         0      6175         1         0
      6178         1         0      6181         1         0      6184         1         0
      6187         1         0      6190         1         0      6193         1         0
      6196         1         0      6199         1         0      6202         1         0
      6205         1         0      6208         1         0      6211         1         0
      6215         2         0      6222         2         0      6233         1         0
      6241         1         0      6250         1         0      6253         1         0
      6256         1         0      6259         1         0      6262         1         0
      6265         1         0      6268         1         0      6270         1         0
      6272         1         0      6275         1         0      6278         1         0
      6281         1         0      6284         1         0      6287         1         0
      6290         1         0      6293         1         0      6297         1         0
      6300         1         0      6303         1         0      6306         1         0
      6309         1         0      6312         1         0      6315         1         0
      6318         1         0      6321         1         0      6324         1         0
      6327         1         0      6330         1         0      6333         1         0
      6336         1         0      6340         2         0      6347         2         0
      6358         1         0      6366         1         0      6375         1         0
      6378         1         0      6381         1         0      6384         1         0
      6387         1         0      6390         1         0      6393         1         0
      6395         1         0      6397         1         0      6400         1         0
      6403         1         0      6406         1         0      6409         1         0
      6412         1         0      6415         1         0      6418         1         0
      6422         1         0      6425         1         0      6428         1         0
      6431         1         0      6434         1         0      6437         1         0
      6440         1         0      6443         1         0      6446         1         0
      6449         1         0      6452         1         0      6455         1         0
      6458         1         0      6461         1         0      6465         2         0
      6481         2         0      6492         1         0      6500         1         0
      6509         1         0      6512         1         0      6515         1         0
      6518         1         0      6521         1         0      6524         1         0
      6527         1         0      6529         1         0      6531         1         0
      6534         1         0      6537         1         0      6540         1         0
      6543         1         0      6546         1         0      6549         1         0
      6552         1         0      6556         1         0      6559         1         0
      6562         1         0      6565         1         0      6568         1         0
      6571         1         0      6574         1         0      6577         1         0
      6580         1         0      6583         1         0      6586         1         0
      6589         1         0      6592         1         0      6595         1         0
      6599         2         0      6615         2         0      6626         1         0
      6634         1         0      6643         1         0      6646         1         0
      6649         1         0      6652         1         0      6655         1         0
      6658         1         0      6661         1         0      6663         1         0
      6665         1         0      6668         1         0      6671         1         0
      6674         1         0      6677         1         0      6680         1         0
      6683         1         0      6686         1         0      6690         1         0
      6693         1         0      6696         1         0      6699         1         0
      6702         1         0      6705         1         0      6708         1         0
      6711         1         0      6714         1         0      6717         1         0
      6720         1         0      6723         1         0      6726         1         0
      6729         1         0      6733         2         0      6740         2         0
      6751         1         0      6759         1         0      6768         1         0
      6771         1         0      6774         1         0      6777         1         0
      6780         1         0      6783         1         0      6786         1         0
      6788         1         0      6790         1         0      6793         1         0
      6796         1         0      6799         1         0      6802         1         0
      6805         1         0      6808         1         0      6811         1         0
      6815         1         0      6818         1         0      6821         1         0
      6824         1         0      6827         1         0      6830         1         0
      6833         1         0      6836         1         0      6839         1         0
      6842         1         0      6845         1         0      6848         1         0
      6851         1         0      6854         1         0      6858         2         0
      6865         2         0      6876         1         0      6884         1         0
      6893         1         0      6896         1         0      6899         1         0
      6902         1         0      6905         1         0      6908         1         0
      6911         1         0      6913         1         0      6915         1         0
      6918         1         0      6921         1         0      6924         1         0
      6927         1         0      6930         1         0      6933         1         0
      6936         1         0      6940         1         0      6943         1         0
      6946         1         0      6949         1         0      6952         1         0
      6955         1         0      6958         1         0      6961         1         0
      6964         1         0      6967         1         0      6970         1         0
      6973         1         0      6976         1         0      6979         1         0
      6983         2         0      6999         2         0      7010         1         0
      7018         1         0      7027         1         0      7030         1         0
      7033         1         0      7036         1         0      7039         1         0
      7042         1         0      7045         1         0      7047         1         0
      7049         1         0      7052         1         0      7055         1         0
      7058         1         0      7061         1         0      7064         1         0
      7067         1         0      7070         1         0      7074         1         0
      7077         1         0      7080         1         0      7083         1         0
      7086         1         0      7089         1         0      7092         1         0
      7095         1         0      7098         1         0      7101         1         0
      7104         1         0      7107         1         0      7110         1         0
      7113         1         0      7117         2         0      7124         2         0
      7135         1         0      7143         1         0      7152         1         0
      7155         1         0      7158         1         0      7161         1         0
      7164         1         0      7167         1         0      7170         1         0
      7172         1         0      7174         1         0      7177         1         0
      7180         1         0      7183         1         0      7186         1         0
      7189         1         0      7192         1         0      7195         1         0
      7199         1         0      7202         1         0      7205         1         0
      7208         1         0      7211         1         0      7214         1         0
      7217         1         0      7220         1         0      7223         1         0
      7226         1         0      7229         1         0      7232         1         0
      7235         1         0      7238         1         0      7242         2         0
      7258         2         0      7269         1         0      7277         1         0
      7286         1         0      7289         1         0      7292         1         0
      7295         1         0      7298         1         0      7301         1         0
      7304         1         0      7306         1         0      7308         1         0
      7311         1         0      7314         1         0      7317         1         0
      7320         1         0      7323         1         0      7326         1         0
      7329         1         0      7333         1         0      7336         1         0
      7339         1         0      7342         1         0      7345         1         0
      7348         1         0      7351         1         0      7354         1         0
      7357         1         0      7360         1         0      7363         1         0
      7366         1         0      7369         1         0      7372         1         0
      7376         2         0      7392         2         0      7403         1         0
      7411         1         0      7420         1         0      7423         1         0
      7426         1         0      7429         1         0      7432         1         0
      7435         1         0      7438         1         0      7440         1         0
      7442         1         0      7445         1         0      7448         1         0
      7451         1         0      7454         1         0      7457         1         0
      7460         1         0      7463         1         0      7467         1         0
      7470         1         0      7473         1         0      7476         1         0
      7479         1         0      7482         1         0      7485         1         0
      7488         1         0      7491         1         0      7494         1         0
      7497         1         0      7500         1         0      7503         1         0
      7506         1         0      7510         2         0      7526         2         0
      7537         1         0      7545         1         0      7554         1         0
      7557         1         0      7560         1         0      7563         1         0
      7566         1         0      7569         1         0      7572         1         0
      7574         1         0      7576         1         0      7579         1         0
      7582         1         0      7585         1         0      7588         1         0
      7591         1         0      7594         1         0      7597         1         0
      7601         1         0      7604         1         0      7607         1         0
      7610         1         0      7613         1         0      7616         1         0
      7619         1         0      7622         1         0      7625         1         0
      7628         1         0      7631         1         0      7634         1         0
      7637         1         0      7640         1         0      7644         2         0
      7660         2         0      7671         1         0      7679         1         0
      7688         1         0      7691         1         0      7694         1         0
      7697         1         0      7700         1         0      7703         1         0
      7706         1         0      7708         1         0      7710         1         0
      7713         1         0      7716         1         0      7719         1         0
      7722         1         0      7725         1         0      7728         1         0
      7731         1         0      7735         1         0      7738         1         0
      7741         1         0      7744         1         0      7747         1         0
      7750         1         0      7753         1         0      7756         1         0
      7759         1         0      7762         1         0      7765         1         0
      7768         1         0      7771         1         0      7774         1         0
      7778         2         0      7794         2         0      7805         1         0
      7813         1         0      7822         1         0      7825         1         0
      7828         1         0      7831         1         0      7834         1         0
      7837         1         0      7840         1         0      7842         1         0
      7844         1         0      7847         1         0      7850         1         0
      7853         1         0      7856         1         0      7859         1         0
      7862         1         0      7865         1         0      7869         1         0
      7872         1         0      7875         1         0      7878         1         0
      7881         1         0      7884         1         0      7887         1         0
      7890         1         0      7893         1         0      7896         1         0
      7899         1         0      7902         1         0      7905         1         0
      7908         1         0      7912         2         0      7928         2         0
      7939         1         0      7947         1         0      7956         1         0
      7959         1         0      7962         1         0      7965         1         0
      7968         1         0      7971         1         0      7974         1         0
      7976         1         0      7978         1         0      7981         1         0
      7984         1         0      7987         1         0      7990         1         0
      7993         1         0      7996         1         0      7999         1         0
      8003         1         0      8006         1         0      8009         1         0
      8012         1         0      8015         1         0      8018         1         0
      8021         1         0      8024         1         0      8027         1         0
      8030         1         0      8033         1         0      8036         1         0
      8039         1         0      8042         1         0      8046         2         0
      8053         2         0      8064         1         0      8072         1         0
      8081         1         0      8084         1         0      8087         1         0
      8090         1         0      8093         1         0      8096         1         0
      8099         1         0      8101         1         0      8103         1         0
      8106         1         0      8109         1         0      8112         1         0
      8115         1         0      8118         1         0      8121         1         0
      8124         1         0      8128         1         0      8131         1         0
      8134         1         0      8137         1         0      8140         1         0
      8143         1         0      8146         1         0      8149         1         0
      8152         1         0      8155         1         0      8158         1         0
      8161         1         0      8164         1         0      8167         1         0
      8171         2         0      8178         2         0      8189         1         0
      8197         1         0      8206         1         0      8209         1         0
      8212         1         0      8215         1         0      8218         1         0
      8221         1         0      8224         1         0      8226         1         0
      8228         1         0      8231         1         0      8234         1         0
      8237         1         0      8240         1         0      8243         1         0
      8246         1         0      8249         1         0      8253         1         0
      8256         1         0      8259         1         0      8262         1         0
      8265         1         0      8268         1         0      8271         1         0
      8274         1         0      8277         1         0      8280         1         0
      8283         1         0      8286         1         0      8289         1         0
      8292         1         0      8296         2         0      8312         2         0
      8323         1         0      8331         1         0      8340         1         0
      8343         1         0      8346         1         0      8349         1         0
      8352         1         0      8355         1         0      8358         1         0
      8360         1         0      8362         1         0      8365         1         0
      8368         1         0      8371         1         0      8374         1         0
      8377         1         0      8380         1         0      8383         1         0
      8387         1         0      8390         1         0      8393         1         0
      8396         1         0      8399         1         0      8402         1         0
      8405         1         0      8408         1         0      8411         1         0
      8414         1         0      8417         1         0      8420         1         0
      8423         1         0      8426         1         0      8430         2         0
      8437         2         0      8448         1         0      8456         1         0
      8465         1         0      8468         1         0      8471         1         0
      8474         1         0      8477         1         0      8480         1         0
      8483         1         0      8485         1         0      8487         1         0
      8490         1         0      8493         1         0      8496         1         0
      8499         1         0      8502         1         0      8505         1         0
      8508         1         0      8512         1         0      8515         1         0
      8518         1         0      8521         1         0      8524         1         0
      8527         1         0      8530         1         0      8533         1         0
      8536         1         0      8539         1         0      8542         1         0
      8545         1         0      8548         1         0      8551         1         0
      8555         2         0      8562         2         0      8573         1         0
      8581         1         0      8590         1         0      8593         1         0
      8596         1         0      8599         1         0      8602         1         0
      8605         1         0      8608         1         0      8610         1         0
      8612         1         0      8615         1         0      8618         1         0
      8621         1         0      8624         1         0      8627         1         0
      8630         1         0      8633         1         0      8637         1         0
      8640         1         0      8643         1         0      8646         1         0
      8649         1         0      8652         1         0      8655         1         0
      8658         1         0      8661         1         0      8664         1         0
      8667         1         0      8670         1         0      8673         1         0
      8676         1         0      8680         2         0      8687         2         0
      8698         1         0      8706         1         0      8715         1         0
      8718         1         0      8721         1         0      8724         1         0
      8727         1         0      8730         1         0      8733         1         0
      8735         1         0      8737         1         0      8740         1         0
      8743         1         0      8746         1         0      8749         1         0
      8752         1         0      8755         1         0      8758         1         0
      8762         1         0      8765         1         0      8768         1         0
      8771         1         0      8774         1         0      8777         1         0
      8780         1         0      8783         1         0      8786         1         0
      8789         1         0      8792         1         0      8795         1         0
      8798         1         0      8801         1         0      8805         2         0
      8821         2         0      8832         1         0      8840         1         0
      8849         1         0      8852         1         0      8855         1         0
      8858         1         0      8861         1         0      8864         1         0
      8867         1         0      8869         1         0      8871         1         0
      8874         1         0      8877         1         0      8880         1         0
      8883         1         0      8886         1         0      8889         1         0
      8892         1         0      8896         1         0      8899         1         0
      8902         1         0      8905         1         0      8908         1         0
      8911         1         0      8914         1         0      8917         1         0
      8920         1         0      8923         1         0      8926         1         0
      8929         1         0      8932         1         0      8935         1         0
      8939         2         0      8946         2         0      8957         1         0
      8965         1         0      8974         1         0      8977         1         0
      8980         1         0      8983         1         0      8986         1         0
      8989         1         0      8992         1         0      8994         1         0
      8996         1         0      8999         1         0      9002         1         0
      9005         1         0      9008         1         0      9011         1         0
      9014         1         0      9017         1         0      9021         1         0
      9024         1         0      9027         1         0      9030         1         0
      9033         1         0      9036         1         0      9039         1         0
      9042         1         0      9045         1         0      9048         1         0
      9051         1         0      9054         1         0      9057         1         0
      9060         1         0      9064         2         0      9080         2         0
      9091         1         0      9099         1         0      9108         1         0
      9111         1         0      9114         1         0      9117         1         0
      9120         1         0      9123         1         0      9126         1         0
      9128         1         0      9130         1         0      9133         1         0
      9136         1         0      9139         1         0      9142         1         0
      9145         1         0      9148         1         0      9151         1         0
      9155         1         0      9158         1         0      9161         1         0
      9164         1         0      9167         1         0      9170         1         0
      9173         1         0      9176         1         0      9179         1         0
      9182         1         0      9185         1         0      9188         1         0
      9191         1         0      9194         1         0      9198         2         0
      9205         2         0      9216         1         0      9224         1         0
      9233         1         0      9236         1         0      9239         1         0
      9242         1         0      9245         1         0      9248         1         0
      9251         1         0      9253         1         0      9255         1         0
      9258         1         0      9261         1         0      9264         1         0
      9267         1         0      9270         1         0      9273         1         0
      9276         1         0      9280         1         0      9283         1         0
      9286         1         0      9289         1         0      9292         1         0
      9295         1         0      9298         1         0      9301         1         0
      9304         1         0      9307         1         0      9310         1         0
      9313         1         0      9316         1         0      9319         1         0
      9323         2         0      9330         2         0      9341         1         0
      9349         1         0      9358         1         0      9361         1         0
      9364         1         0      9367         1         0      9370         1         0
      9373         1         0      9376         1         0      9378         1         0
      9380         1         0      9383         1         0      9386         1         0
      9389         1         0      9392         1         0      9395         1         0
      9398         1         0      9401         1         0      9405         1         0
      9408         1         0      9411         1         0      9414         1         0
      9417         1         0      9420         1         0      9423         1         0
      9426         1         0      9429         1         0      9432         1         0
      9435         1         0      9438         1         0      9441         1         0
      9444         1         0      9448         2         0      9464         2         0
      9475         1         0      9483         1         0      9492         1         0
      9495         1         0      9498         1         0      9501         1         0
      9504         1         0      9507         1         0      9510         1         0
      9512         1         0      9514         1         0      9517         1         0
      9520         1         0      9523         1         0      9526         1         0
      9529         1         0      9532         1         0      9535         1         0
      9539         1         0      9542         1         0      9545         1         0
      9548         1         0      9551         1         0      9554         1         0
      9557         1         0      9560         1         0      9563         1         0
      9566         1         0      9569         1         0      9572         1         0
      9575         1         0      9578         1         0      9582         2         0
      9589         2         0      9600         1         0      9608         1         0
      9617         1         0      9620         1         0      9623         1         0
      9626         1         0      9629         1         0      9632         1         0
      9635         1         0      9637         1         0      9639         1         0
      9642         1         0      9645         1         0      9648         1         0
      9651         1         0      9654         1         0      9657         1         0
      9660         1         0      9664         1         0      9667         1         0
      9670         1         0      9673         1         0      9676         1         0
      9679         1         0      9682         1         0      9685         1         0
      9688         1         0      9691         1         0      9694         1         0
      9697         1         0      9700         1         0      9703         1         0
      9707         2         0      9714         2         0      9725         1         0
      9733         1         0      9742         1         0      9745         1         0
      9748         1         0      9751         1         0      9754         1         0
      9757         1         0      9760         1         0      9762         1         0
      9764         1         0      9767         1         0      9770         1         0
      9773         1         0      9776         1         0      9779         1         0
      9782         1         0      9785         1         0      9789         1         0
      9792         1         0      9795         1         0      9798         1         0
      9801         1         0      9804         1         0      9807         1         0
      9810         1         0      9813         1         0      9816         1         0
      9819         1         0      9822         1         0      9825         1         0
      9828         1         0      9832         2         0      9848         2         0
      9859         1         0      9867         1         0      9876         1         0
      9879         1         0      9882         1         0      9885         1         0
      9888         1         0      9891         1         0      9894         1         0
      9896         1         0      9898         1         0      9901         1         0
      9904         1         0      9907         1         0      9910         1         0
      9913         1         0      9916         1         0      9919         1         0
      9923         1         0      9926         1         0      9929         1         0
      9932         1         0      9935         1         0      9938         1         0
      9941         1         0      9944         1         0      9947         1         0
      9950         1         0      9953         1         0      9956         1         0
      9959         1         0      9962         1         0      9966         2         0
      9973         2         0      9984         1         0      9992         1         0
     10001         1         0     10004         1         0     10007         1         0
     10010         1         0     10013         1         0     10016         1         0
     10019         1         0     10021         1         0     10023         1         0
     10026         1         0     10029         1         0     10032         1         0
     10035         1         0     10038         1         0     10041         1         0
     10044         1         0     10048         1         0     10051         1         0
     10054         1         0     10057         1         0     10060         1         0
     10063         1         0     10066         1         0     10069         1         0
     10072         1         0     10075         1         0     10078         1         0
     10081         1         0     10084         1         0     10087         1         0
     10091         2         0     10098         2         0     10109         1         0
     10117         1         0     10126         1         0     10129         1         0
     10132         1         0     10135         1         0     10138         1         0
     10141         1         0     10144         1         0     10146         1         0
     10148         1         0     10151         1         0     10154         1         0
     10157         1         0     10160         1         0     10163         1         0
     10166         1         0     10169         1         0     10173         1         0
     10176         1         0     10179         1         0     10182         1         0
     10185         1         0     10188         1         0     10191         1         0
     10194         1         0     10197         1         0     10200         1         0
     10203         1         0     10206         1         0     10209         1         0
     10212         1         0     10216         2         0     10232         2         0
     10243         1         0     10251         1         0     10260         1         0
     10263         1         0     10266         1         0     10269         1         0
     10272         1         0     10275         1         0     10278         1         0
     10280         1         0     10282         1         0     10285         1         0
     10288         1         0     10291         1         0     10294         1         0
     10297         1         0     10300         1         0     10303         1         0
     10307         1         0     10310         1         0     10313         1         0
     10316         1         0     10319         1         0     10322         1         0
     10325         1         0     10328         1         0     10331         1         0
     10334         1         0     10337         1         0     10340         1         0
     10343         1         0     10346         1         0     10350         2         0
     10357         2         0     10368         1         0     10376         1         0
     10385         1         0     10388         1         0     10391         1         0
     10394         1         0     10397         1         0     10400         1         0
     10403         1         0     10405         1         0     10407         1         0
     10410         1         0     10413         1         0     10416         1         0
     10419         1         0     10422         1         0     10425         1         0
     10428         1         0     10432         1         0     10435         1         0
     10438         1         0     10441         1         0     10444         1         0
     10447         1         0     10450         1         0     10453         1         0
     10456         1         0     10459         1         0     10462         1         0
     10465         1         0     10468         1         0     10471         1         0
     10475         2         0     10482         2         0     10493         1         0
     10501         1         0     10510         1         0     10513         1         0
     10516         1         0     10519         1         0     10522         1         0
     10525         1         0     10528         1         0     10530         1         0
     10532         1         0     10535         1         0     10538         1         0
     10541         1         0     10544         1         0     10547         1         0
     10550         1         0     10553         1         0     10557         1         0
     10560         1         0     10563         1         0     10566         1         0
     10569         1         0     10572         1         0     10575         1         0
     10578         1         0     10581         1         0     10584         1         0
     10587         1         0     10590         1         0     10593         1         0
     10596         1         0     10600         2         0     10616         2         0
     10627         1         0     10635         1         0     10644         1         0
     10647         1         0     10650         1         0     10653         1         0
     10656         1         0     10659         1         0     10662         1         0
     10664         1         0     10666         1         0     10669         1         0
     10672         1         0     10675         1         0     10678         1         0
     10681         1         0     10684         1         0     10687         1         0
     10691         1         0     10694         1         0     10697         1         0
     10700         1         0     10703         1         0     10706         1         0
     10709         1         0     10712         1         0     10715         1         0
     10718         1         0     10721         1         0     10724         1         0
     10727         1         0     10730         1         0     10734         2         0
     10741         2         0     10752         1         0     10760         1         0
     10769         1         0     10772         1         0     10775         1         0
     10778         1         0     10781         1         0     10784         1         0
     10787         1         0     10789         1         0     10791         1         0
     10794         1         0     10797         1         0     10800         1         0
     10803         1         0     10806         1         0     10809         1         0
     10812         1         0     10816         1         0     10819         1         0
     10822         1         0     10825         1         0     10828         1         0
     10831         1         0     10834         1         0     10837         1         0
     10840         1         0     10843         1         0     10846         1         0
     10849         1         0     10852         1         0     10855         1         0
     10859         2         0     10875         2         0     10886         1         0
     10894         1         0     10903         1         0     10906         1         0
     10909         1         0     10912         1         0     10915         1         0
     10918         1         0     10921         1         0     10923         1         0
     10925         1         0     10928         1         0     10931         1         0
     10934         1         0     10937         1         0     10940         1         0
     10943         1         0     10946         1         0     10950         1         0
     10953         1         0     10956         1         0     10959         1         0
     10962         1         0     10965         1         0     10968         1         0
     10971         1         0     10974         1         0     10977         1         0
     10980         1         0     10983         1         0     10986         1         0
     10989         1         0     10993         2         0     11000         2         0
     11011         1         0     11019         1         0     11028         1         0
     11031         1         0     11034         1         0     11037         1         0
     11040         1         0     11043         1         0     11046         1         0
     11048         1         0     11050         1         0     11053         1         0
     11056         1         0     11059         1         0     11062         1         0
     11065         1         0     11068         1         0     11071         1         0
     11075         1         0     11078         1         0     11081         1         0
     11084         1         0     11087         1         0     11090         1         0
     11093         1         0     11096         1         0     11099         1         0
     11102         1         0     11105         1         0     11108         1         0
     11111         1         0     11114         1         0     11118         2         0
     11125         2         0     11136         1         0     11144         1         0
     11153         1         0     11156         1         0     11159         1         0
     11162         1         0     11165         1         0     11168         1         0
     11171         1         0     11173         1         0     11175         1         0
     11178         1         0     11181         1         0     11184         1         0
     11187         1         0     11190         1         0     11193         1         0
     11196         1         0     11200         1         0     11203         1         0
     11206         1         0     11209         1         0     11212         1         0
     11215         1         0     11218         1         0     11221         1         0
     11224         1         0     11227         1         0     11230         1         0
     11233         1         0     11236         1         0     11239         1         0
     11243         2         0     11259         2         0     11270         1         0
     11278         1         0     11287         1         0     11290         1         0
     11293         1         0     11296         1         0     11299         1         0
     11302         1         0     11305         1         0     11307         1         0
     11309         1         0     11312         1         0     11315         1         0
     11318         1         0     11321         1         0     11324         1         0
     11327         1         0     11330         1         0     11334         1         0
     11337         1         0     11340         1         0     11343         1         0
     11346         1         0     11349         1         0     11352         1         0
     11355         1         0     11358         1         0     11361         1         0
     11364         1         0     11367         1         0     11370         1         0
     11373         1         0     11377         2         0     11393         2         0
     11404         1         0     11412         1         0     11421         1         0
     11424         1         0     11427         1         0     11430         1         0
     11433         1         0     11436         1         0     11439         1         0
     11441         1         0     11443         1         0     11446         1         0
     11449         1         0     11452         1         0     11455         1         0
     11458         1         0     11461         1         0     11464         1         0
     11468         1         0     11471         1         0     11474         1         0
     11477         1         0     11480         1         0     11483         1         0
     11486         1         0     11489         1         0     11492         1         0
     11495         1         0     11498         1         0     11501         1         0
     11504         1         0     11507         1         0     11511         2         0
     11527         2         0     11538         1         0     11546         1         0
     11555         1         0     11558         1         0     11561         1         0
     11564         1         0     11567         1         0     11570         1         0
     11573         1         0     11575         1         0     11577         1         0
     11580         1         0     11583         1         0     11586         1         0
     11589         1         0     11592         1         0     11595         1         0
     11598         1         0     11602         1         0     11605         1         0
     11608         1         0     11611         1         0     11614         1         0
     11617         1         0     11620         1         0     11623         1         0
     11626         1         0     11629         1         0     11632         1         0
     11635         1         0     11638         1         0     11641         1         0
     11645         2         0     11652         2         0     11663         1         0
     11671         1         0     11680         1         0     11683         1         0
     11686         1         0     11689         1         0     11692         1         0
     11695         1         0     11698         1         0     11700         1         0
     11702         1         0     11705         1         0     11708         1         0
     11711         1         0     11714         1         0     11717         1         0
     11720         1         0     11723         1         0     11727         1         0
     11730         1         0     11733         1         0     11736         1         0
     11739         1         0     11742         1         0     11745         1         0
     11748         1         0     11751         1         0     11754         1         0
     11757         1         0     11760         1         0     11763         1         0
     11766         1         0     11770         2         0     11786         2         0
     11797         1         0     11805         1         0     11814         1         0
     11817         1         0     11820         1         0     11823         1         0
     11826         1         0     11829         1         0     11832         1         0
     11834         1         0     11836         1         0     11839         1         0
     11842         1         0     11845         1         0     11848         1         0
     11851         1         0     11854         1         0     11857         1         0
     11861         1         0     11864         1         0     11867         1         0
     11870         1         0     11873         1         0     11876         1         0
     11879         1         0     11882         1         0     11885         1         0
     11888         1         0     11891         1         0     11894         1         0
     11897         1         0     11900         1         0     11904         2         0
     11920         2         0     11931         1         0     11939         1         0
     11948         1         0     11951         1         0     11954         1         0
     11957         1         0     11960         1         0     11963         1         0
     11966         1         0     11968         1         0     11970         1         0
     11973         1         0     11976         1         0     11979         1         0
     11982         1         0     11985         1         0     11988         1         0
     11991         1         0     11995         1         0     11998         1         0
     12001         1         0     12004         1         0     12007         1         0
     12010         1         0     12013         1         0     12016         1         0
     12019         1         0     12022         1         0     12025         1         0
     12028         1         0     12031         1         0     12034         1         0
     12038         2         0     12045         2         0     12056         1         0
     12064         1         0     12073         1         0     12076         1         0
     12079         1         0     12082         1         0     12085         1         0
     12088         1         0     12091         1         0     12093         1         0
     12095         1         0     12098         1         0     12101         1         0
     12104         1         0     12107         1         0     12110         1         0
     12113         1         0     12116         1         0     12120         1         0
     12123         1         0     12126         1         0     12129         1         0
     12132         1         0     12135         1         0     12138         1         0
     12141         1         0     12144         1         0     12147         1         0
     12150         1         0     12153         1         0     12156         1         0
     12159         1         0     12163         2         0     12170         2         0
     12181         1         0     12189         1         0     12198         1         0
     12201         1         0     12204         1         0     12207         1         0
     12210         1         0     12213         1         0     12216         1         0
     12218         1         0     12220         1         0     12223         1         0
     12226         1         0     12229         1         0     12232         1         0
     12235         1         0     12238         1         0     12241         1         0
     12245         1         0     12248         1         0     12251         1         0
     12254         1         0     12257         1         0     12260         1         0
     12263         1         0     12266         1         0     12269         1         0
     12272         1         0     12275         1         0     12278         1         0
     12281         1         0     12284         1         0     12288         2         0
     12304         2         0     12315         1         0     12323         1         0
     12332         1         0     12335         1         0     12338         1         0
     12341         1         0     12344         1         0     12347         1         0
     12350         1         0     12352         1         0     12354         1         0
     12357         1         0     12360         1         0     12363         1         0
     12366         1         0     12369         1         0     12372         1         0
     12375         1         0     12379         1         0     12382         1         0
     12385         1         0     12388         1         0     12391         1         0
     12394         1         0     12397         1         0     12400         1         0
     12403         1         0     12406         1         0     12409         1         0
     12412         1         0     12415         1         0     12418         1         0
     12422         2         0     12438         2         0     12449         1         0
     12457         1         0     12466         1         0     12469         1         0
     12472         1         0     12475         1         0     12478         1         0
     12481         1         0     12484         1         0     12486         1         0
     12488         1         0     12491         1         0     12494         1         0
     12497         1         0     12500         1         0     12503         1         0
     12506         1         0     12509         1         0     12513         1         0
     12516         1         0     12519         1         0     12522         1         0
     12525         1         0     12528         1         0     12531         1         0
     12534         1         0     12537         1         0     12540         1         0
     12543         1         0     12546         1         0     12549         1         0
     12552         1         0     12556         2         0     12572         2         0
     12583         1         0     12591         1         0     12600         1         0
     12603         1         0     12606         1         0     12609         1         0
     12612         1         0     12615         1         0     12618         1         0
     12620         1         0     12622         1         0     12625         1         0
     12628         1         0     12631         1         0     12634         1         0
     12637         1         0     12640         1         0     12643         1         0
     12647         1         0     12650         1         0     12653         1         0
     12656         1         0     12659         1         0     12662         1         0
     12665         1         0     12668         1         0     12671         1         0
     12674         1         0     12677         1         0     12680         1         0
     12683         1         0     12686         1         0     12690         2         0
     12697         2         0     12708         1         0     12716         1         0
     12725         1         0     12728         1         0     12731         1         0
     12734         1         0     12737         1         0     12740         1         0
     12743         1         0     12745         1         0     12747         1         0
     12750         1         0     12753         1         0     12756         1         0
     12759         1         0     12762         1         0     12765         1         0
     12768         1         0     12772         1         0     12775         1         0
     12778         1         0     12781         1         0     12784         1         0
     12787         1         0     12790         1         0     12793         1         0
     12796         1         0     12799         1         0     12802         1         0
     12805         1         0     12808         1         0     12811         1         0
     12815         2         0     12831         2         0     12842         1         0
     12850         1         0     12859         1         0     12862         1         0
     12865         1         0     12868         1         0     12871         1         0
     12874         1         0     12877         1         0     12879         1         0
     12881         1         0     12884         1         0     12887         1         0
     12890         1         0     12893         1         0     12896         1         0
     12899         1         0     12902         1         0     12906         1         0
     12909         1         0     12912         1         0     12915         1         0
     12918         1         0     12921         1         0     12924         1         0
     12927         1         0     12930         1         0     12933         1         0
     12936         1         0     12939         1         0     12942         1         0
     12945         1         0     12949         2         0     12956         2         0
     12967         1         0     12975         1         0     12984         1         0
     12987         1         0     12990         1         0     12993         1         0
     12996         1         0     12999         1         0     13002         1         0
     13004         1         0     13006         1         0     13009         1         0
     13012         1         0     13015         1         0     13018         1         0
     13021         1         0     13024         1         0     13027         1         0
     13031         1         0     13034         1         0     13037         1         0
     13040         1         0     13043         1         0     13046         1         0
     13049         1         0     13052         1         0     13055         1         0
     13058         1         0     13061         1         0     13064         1         0
     13067         1         0     13070         1         0     13074         2         0
     13081         2         0     13092         1         0     13100         1         0
     13109         1         0     13112         1         0     13115         1         0
     13118         1         0     13121         1         0     13124         1         0
     13127         1         0     13129         1         0     13131         1         0
     13134         1         0     13137         1         0     13140         1         0
     13143         1         0     13146         1         0     13149         1         0
     13152         1         0     13156         1         0     13159         1         0
     13162         1         0     13165         1         0     13168         1         0
     13171         1         0     13174         1         0     13177         1         0
     13180         1         0     13183         1         0     13186         1         0
     13189         1         0     13192         1         0     13195         1         0
     13199         2         0     13215         2         0     13226         1         0
     13234         1         0     13243         1         0     13246         1         0
     13249         1         0     13252         1         0     13255         1         0
     13258         1         0     13261         1         0     13263         1         0
     13265         1         0     13268         1         0     13271         1         0
     13274         1         0     13277         1         0     13280         1         0
     13283         1         0     13286         1         0     13290         1         0
     13293         1         0     13296         1         0     13299         1         0
     13302         1         0     13305         1         0     13308         1         0
     13311         1         0     13314         1         0     13317         1         0
     13320         1         0     13323         1         0     13326         1         0
     13329         1         0     13333         2         0     13340         2         0
     13351         1         0     13359         1         0     13368         1         0
     13371         1         0     13374         1         0     13377         1         0
     13380         1         0     13383         1         0     13386         1         0
     13388         1         0     13390         1         0     13393         1         0
     13396         1         0     13399         1         0     13402         1         0
     13405         1         0     13408         1         0     13411         1         0
     13415         1         0     13418         1         0     13421         1         0
     13424         1         0     13427         1         0     13430         1         0
     13433         1         0     13436         1         0     13439         1         0
     13442         1         0     13445         1         0     13448         1         0
     13451         1         0     13454         1         0     13458         2         0
     13465         2         0     13476         1         0     13484         1         0
     13493         1         0     13496         1         0     13499         1         0
     13502         1         0     13505         1         0     13508         1         0
     13511         1         0     13513         1         0     13515         1         0
     13518         1         0     13521         1         0     13524         1         0
     13527         1         0     13530         1         0     13533         1         0
     13536         1         0     13540         1         0     13543         1         0
     13546         1         0     13549         1         0     13552         1         0
     13555         1         0     13558         1         0     13561         1         0
     13564         1         0     13567         1         0     13570         1         0
     13573         1         0     13576         1         0     13579         1         0
     13583         2         0     13590         2         0     13601         1         0
     13609         1         0     13618         1         0     13621         1         0
     13624         1         0     13627         1         0     13630         1         0
     13633         1         0     13636         1         0     13638         1         0
     13640         1         0     13643         1         0     13646         1         0
     13649         1         0     13652         1         0     13655         1         0
     13658         1         0     13661         1         0     13665         1         0
     13668         1         0     13671         1         0     13674         1         0
     13677         1         0     13680         1         0     13683         1         0
     13686         1         0     13689         1         0     13692         1         0
     13695         1         0     13698         1         0     13701         1         0
     13704         1         0     13708         2         0     13715         2         0
     13726         1         0     13734         1         0     13743         1         0
     13746         1         0     13749         1         0     13752         1         0
     13755         1         0     13758         1         0     13761         1         0
     13763         1         0     13765         1         0     13768         1         0
     13771         1         0     13774         1         0     13777         1         0
     13780         1         0     13783         1         0     13786         1         0
     13790         1         0     13793         1         0     13796         1         0
     13799         1         0     13802         1         0     13805         1         0
     13808         1         0     13811         1         0     13814         1         0
     13817         1         0     13820         1         0     13823         1         0
     13826         1         0     13829         1         0     13833         2         0
     13840         2         0     13851         1         0     13859         1         0
     13868         1         0     13871         1         0     13874         1         0
     13877         1         0     13880         1         0     13883         1         0
     13886         1         0     13888         1         0     13890         1         0
     13893         1         0     13896         1         0     13899         1         0
     13902         1         0     13905         1         0     13908         1         0
     13911         1         0     13915         1         0     13918         1         0
     13921         1         0     13924         1         0     13927         1         0
     13930         1         0     13933         1         0     13936         1         0
     13939         1         0     13942         1         0     13945         1         0
     13948         1         0     13951         1         0     13954         1         0
     13958         2         0     13965         2         0     13976         1         0
     13984         1         0     13993         1         0     13996         1         0
     13999         1         0     14002         1         0     14005         1         0
     14008         1         0     14011         1         0     14013         1         0
     14015         1         0     14018         1         0     14021         1         0
     14024         1         0     14027         1         0     14030         1         0
     14033         1         0     14036         1         0     14040         1         0
     14043         1         0     14046         1         0     14049         1         0
     14052         1         0     14055         1         0     14058         1         0
     14061         1         0     14064         1         0     14067         1         0
     14070         1         0     14073         1         0     14076         1         0
     14079         1         0     14083         2         0     14090         2         0
     14101         1         0     14109         1         0     14118         1         0
     14121         1         0     14124         1         0     14127         1         0
     14130         1         0     14133         1         0     14136         1         0
     14138         1         0     14140         1         0     14143         1         0
     14146         1         0     14149         1         0     14152         1         0
     14155         1         0     14158         1         0     14161         1         0
     14165         1         0     14168         1         0     14171         1         0
     14174         1         0     14177         1         0     14180         1         0
     14183         1         0     14186         1         0     14189         1         0
     14192         1         0     14195         1         0     14198         1         0
     14201         1         0     14204         1         0     14208         2         0
     14215         2         0     14226         1         0     14234         1         0
     14243         1         0     14246         1         0     14249         1         0
     14252         1         0     14255         1         0     14258         1         0
     14261         1         0     14263         1         0     14265         1         0
     14268         1         0     14271         1         0     14274         1         0
     14277         1         0     14280         1         0     14283         1         0
     14286         1         0     14290         1         0     14293         1         0
     14296         1         0     14299         1         0     14302         1         0
     14305         1         0     14308         1         0     14311         1         0
     14314         1         0     14317         1         0     14320         1         0
     14323         1         0     14326         1         0     14329         1         0
     14333         2         0     14340         2         0     14351         1         0
     14359         1         0     14368         1         0     14371         1         0
     14374         1         0     14377         1         0     14380         1         0
     14383         1         0     14386         1         0     14388         1         0
     14390         1         0     14393         1         0     14396         1         0
     14399         1         0     14402         1         0     14405         1         0
     14408         1         0     14411         1         0     14415         1         0
     14418         1         0     14421         1         0     14424         1         0
     14427         1         0     14430         1         0     14433         1         0
     14436         1         0     14439         1         0     14442         1         0
     14445         1         0     14448         1         0     14451         1         0
     14454         1         0     14458         2         0     14465         2         0
     14476         1         0     14484         1         0     14493         1         0
     14496         1         0     14499         1         0     14502         1         0
     14505         1         0     14508         1         0     14511         1         0
     14513         1         0     14515         1         0     14518         1         0
     14521         1         0     14524         1         0     14527         1         0
     14530         1         0     14533         1         0     14536         1         0
     14540         1         0     14543         1         0     14546         1         0
     14549         1         0     14552         1         0     14555         1         0
     14558         1         0     14561         1         0     14564         1         0
     14567         1         0     14570         1         0     14573         1         0
     14576         1         0     14579         1         0     14583         2         0
     14599         2         0     14610         1         0     14618         1         0
     14627         1         0     14630         1         0     14633         1         0
     14636         1         0     14639         1         0     14642         1         0
     14645         1         0     14647         1         0     14649         1         0
     14652         1         0     14655         1         0     14658         1         0
     14661         1         0     14664         1         0     14667         1         0
     14670         1         0     14674         1         0     14677         1         0
     14680         1         0     14683         1         0     14686         1         0
     14689         1         0     14692         1         0     14695         1         0
     14698         1         0     14701         1         0     14704         1         0
     14707         1         0     14710         1         0     14713         1         0
     14717         2         0     14724         2         0     14735         1         0
     14743         1         0     14752         1         0     14755         1         0
     14758         1         0     14761         1         0     14764         1         0
     14767         1         0     14770         1         0     14772         1         0
     14774         1         0     14777         1         0     14780         1         0
     14783         1         0     14786         1         0     14789         1         0
     14792         1         0     14795         1         0     14799         1         0
     14802         1         0     14805         1         0     14808         1         0
     14811         1         0     14814         1         0     14817         1         0
     14820         1         0     14823         1         0     14826         1         0
     14829         1         0     14832         1         0     14835         1         0
     14838         1         0     14842         2         0     14858         2         0
     14869         1         0     14877         1         0     14886         1         0
     14889         1         0     14892         1         0     14895         1         0
     14898         1         0     14901         1         0     14904         1         0
     14906         1         0     14908         1         0     14911         1         0
     14914         1         0     14917         1         0     14920         1         0
     14923         1         0     14926         1         0     14929         1         0
     14933         1         0     14936         1         0     14939         1         0
     14942         1         0     14945         1         0     14948         1         0
     14951         1         0     14954         1         0     14957         1         0
     14960         1         0     14963         1         0     14966         1         0
     14969         1         0     14972         1         0     14976         2         0
     14992         2         0     15003         1         0     15011         1         0
     15020         1         0     15023         1         0     15026         1         0
     15029         1         0     15032         1         0     15035         1         0
     15038         1         0     15040         1         0     15042         1         0
     15045         1         0     15048         1         0     15051         1         0
     15054         1         0     15057         1         0     15060         1         0
     15063         1         0     15067         1         0     15070         1         0
     15073         1         0     15076         1         0     15079         1         0
     15082         1         0     15085         1         0     15088         1         0
     15091         1         0     15094         1         0     15097         1         0
     15100         1         0     15103         1         0     15106         1         0
     15110         2         0     15117         2         0     15128         1         0
     15136         1         0     15145         1         0     15148         1         0
     15151         1         0     15154         1         0     15157         1         0
     15160         1         0     15163         1         0     15165         1         0
     15167         1         0     15170         1         0     15173         1         0
     15176         1         0     15179         1         0     15182         1         0
     15185         1         0     15188         1         0     15192         1         0
     15195         1         0     15198         1         0     15201         1         0
     15204         1         0     15207         1         0     15210         1         0
     15213         1         0     15216         1         0     15219         1         0
     15222         1         0     15225         1         0     15228         1         0
     15231         1         0     15235         2         0     15242         2         0
     15253         1         0     15261         1         0     15270         1         0
     15273         1         0     15276         1         0     15279         1         0
     15282         1         0     15285         1         0     15288         1         0
     15290         1         0     15292         1         0     15295         1         0
     15298         1         0     15301         1         0     15304         1         0
     15307         1         0     15310         1         0     15313         1         0
     15317         1         0     15320         1         0     15323         1         0
     15326         1         0     15329         1         0     15332         1         0
     15335         1         0     15338         1         0     15341         1         0
     15344         1         0     15347         1         0     15350         1         0
     15353         1         0     15356         1         0     15360         2         0
     15367         2         0     15378         1         0     15386         1         0
     15395         1         0     15398         1         0     15401         1         0
     15404         1         0     15407         1         0     15410         1         0
     15413         1         0     15415         1         0     15417         1         0
     15420         1         0     15423         1         0     15426         1         0
     15429         1         0     15432         1         0     15435         1         0
     15438         1         0     15442         1         0     15445         1         0
     15448         1         0     15451         1         0     15454         1         0
     15457         1         0     15460         1         0     15463         1         0
     15466         1         0     15469         1         0     15472         1         0
     15475         1         0     15478         1         0     15481         1         0
     15485         2         0     15501         2         0     15512         1         0
     15520         1         0     15529         1         0     15532         1         0
     15535         1         0     15538         1         0     15541         1         0
     15544         1         0     15547         1         0     15549         1         0
     15551         1         0     15554         1         0     15557         1         0
     15560         1         0     15563         1         0     15566         1         0
     15569         1         0     15572         1         0     15576         1         0
     15579         1         0     15582         1         0     15585         1         0
     15588         1         0     15591         1         0     15594         1         0
     15597         1         0     15600         1         0     15603         1         0
     15606         1         0     15609         1         0     15612         1         0
     15615         1         0     15619         2         0     15626         2         0
     15637         1         0     15645         1         0     15654         1         0
     15657         1         0     15660         1         0     15663         1         0
     15666         1         0     15669         1         0     15672         1         0
     15674         1         0     15676         1         0     15679         1         0
     15682         1         0     15685         1         0     15688         1         0
     15691         1         0     15694         1         0     15697         1         0
     15701         1         0     15704         1         0     15707         1         0
     15710         1         0     15713         1         0     15716         1         0
     15719         1         0     15722         1         0     15725         1         0
     15728         1         0     15731         1         0     15734         1         0
     15737         1         0     15740         1         0     15744         2         0
     15751         2         0     15762         1         0     15770         1         0
     15779         1         0     15782         1         0     15785         1         0
     15788         1         0     15791         1         0     15794         1         0
     15797         1         0     15799         1         0     15801         1         0
     15804         1         0     15807         1         0     15810         1         0
     15813         1         0     15816         1         0     15819         1         0
     15822         1         0     15826         1         0     15829         1         0
     15832         1         0     15835         1         0     15838         1         0
     15841         1         0     15844         1         0     15847         1         0
     15850         1         0     15853         1         0     15856         1         0
     15859         1         0     15862         1         0     15865         1         0
     15869         2         0     15876         2         0     15887         1         0
     15895         1         0     15904         1         0     15907         1         0
     15910         1         0     15913         1         0     15916         1         0
     15919         1         0     15922         1         0     15924         1         0
     15926         1         0     15929         1         0     15932         1         0
     15935         1         0     15938         1         0     15941         1         0
     15944         1         0     15947         1         0     15951         1         0
     15954         1         0     15957         1         0     15960         1         0
     15963         1         0     15966         1         0     15969         1         0
     15972         1         0     15975         1         0     15978         1         0
     15981         1         0     15984         1         0     15987         1         0
     15990         1         0     15994         2         0     16001         2         0
     16012         1         0     16020         1         0     16029         1         0
     16032         1         0     16035         1         0     16038         1         0
     16041         1         0     16044         1         0     16047         1         0
     16049         1         0     16051         1         0     16054         1         0
     16057         1         0     16060         1         0     16063         1         0
     16066         1         0     16069         1         0     16072         1         0
     16076         1         0     16079         1         0     16082         1         0
     16085         1         0     16088         1         0     16091         1         0
     16094         1         0     16097         1         0     16100         1         0
     16103         1         0     16106         1         0     16109         1         0
     16112         1         0     16115         1         0     16119         2         0
     16135         2         0     16146         1         0     16154         1         0
     16163         1         0     16166         1         0     16169         1         0
     16172         1         0     16175         1         0     16178         1         0
     16181         1         0     16183         1         0     16185         1         0
     16188         1         0     16191         1         0     16194         1         0
     16197         1         0     16200         1         0     16203         1         0
     16206         1         0     16210         1         0     16213         1         0
     16216         1         0     16219         1         0     16222         1         0
     16225         1         0     16228         1         0     16231         1         0
     16234         1         0     16237         1         0     16240         1         0
     16243         1         0     16246         1         0     16249         1         0
     16253         2         0     16269         2         0     16280         1         0
     16288         1         0     16297         1         0     16300         1         0
     16303         1         0     16306         1         0     16309         1         0
     16312         1         0     16315         1         0     16317         1         0
     16319         1         0     16322         1         0     16325         1         0
     16328         1         0     16331         1         0     16334         1         0
     16337         1         0     16340         1         0     16344         1         0
     16347         1         0     16350         1         0     16353         1         0
     16356         1         0     16359         1         0     16362         1         0
     16365         1         0     16368         1         0     16371         1         0
     16374         1         0     16377         1         0     16380         1         0
     16383         1         0     16387         2         0     16394         2         0
     16405         1         0     16413         1         0     16422         1         0
     16425         1         0     16428         1         0     16431         1         0
     16434         1         0     16437         1         0     16440         1         0
     16442         1         0     16444         1         0     16447         1         0
     16450         1         0     16453         1         0     16456         1         0
     16459         1         0     16462         1         0     16465         1         0
     16469         1         0     16472         1         0     16475         1         0
     16478         1         0     16481         1         0     16484         1         0
     16487         1         0     16490         1         0     16493         1         0
     16496         1         0     16499         1         0     16502         1         0
     16505         1         0     16508         1         0     16512         2         0
     16528         2         0     16539         1         0     16547         1         0
     16556         1         0     16559         1         0     16562         1         0
     16565         1         0     16568         1         0     16571         1         0
     16574         1         0     16576         1         0     16578         1         0
     16581         1         0     16584         1         0     16587         1         0
     16590         1         0     16593         1         0     16596         1         0
     16599         1         0     16603         1         0     16606         1         0
     16609         1         0     16612         1         0     16615         1         0
     16618         1         0     16621         1         0     16624         1         0
     16627         1         0     16630         1         0     16633         1         0
     16636         1         0     16639         1         0     16642         1         0
     16646         2         0     16662         2         0     16673         1         0
     16681         1         0     16690         1         0     16693         1         0
     16696         1         0     16699         1         0     16702         1         0
     16705         1         0     16708         1         0     16710         1         0
     16712         1         0     16715         1         0     16718         1         0
     16721         1         0     16724         1         0     16727         1         0
     16730         1         0     16733         1         0     16737         1         0
     16740         1         0     16743         1         0     16746         1         0
     16749         1         0     16752         1         0     16755         1         0
     16758         1         0     16761         1         0     16764         1         0
     16767         1         0     16770         1         0     16773         1         0
     16776         1         0     16780         2         0     16796         2         0
     16807         1         0     16815         1         0     16824         1         0
     16827         1         0     16830         1         0     16833         1         0
     16836         1         0     16839         1         0     16842         1         0
     16844         1         0     16846         1         0     16849         1         0
     16852         1         0     16855         1         0     16858         1         0
     16861         1         0     16864         1         0     16867         1         0
     16871         1         0     16874         1         0     16877         1         0
     16880         1         0     16883         1         0     16886         1         0
     16889         1         0     16892         1         0     16895         1         0
     16898         1         0     16901         1         0     16904         1         0
     16907         1         0     16910         1         0     16914         2         0
     16930         2         0     16941         1         0     16949         1         0
     16958         1         0     16961         1         0     16964         1         0
     16967         1         0     16970         1         0     16973         1         0
     16976         1         0     16978         1         0     16980         1         0
     16983         1         0     16986         1         0     16989         1         0
     16992         1         0     16995         1         0     16998         1         0
     17001         1         0     17005         1         0     17008         1         0
     17011         1         0     17014         1         0     17017         1         0
     17020         1         0     17023         1         0     17026         1         0
     17029         1         0     17032         1         0     17035         1         0
     17038         1         0     17041         1         0     17044         1         0
     17048         2         0     17055         2         0     17066         1         0
     17074         1         0     17083         1         0     17086         1         0
     17089         1         0     17092         1         0     17095         1         0
     17098         1         0     17101         1         0     17103         1         0
     17105         1         0     17108         1         0     17111         1         0
     17114         1         0     17117         1         0     17120         1         0
     17123         1         0     17126         1         0     17130         1         0
     17133         1         0     17136         1         0     17139         1         0
     17142         1         0     17145         1         0     17148         1         0
     17151         1         0     17154         1         0     17157         1         0
     17160         1         0     17163         1         0     17166         1         0
     17169         1         0     17173         2         0     17189         2         0
     17200         1         0     17208         1         0     17217         1         0
     17220         1         0     17223         1         0     17226         1         0
     17229         1         0     17232         1         0     17235         1         0
     17237         1         0     17239         1         0     17242         1         0
     17245         1         0     17248         1         0     17251         1         0
     17254         1         0     17257         1         0     17260         1         0
     17264         1         0     17267         1         0     17270         1         0
     17273         1         0     17276         1         0     17279         1         0
     17282         1         0     17285         1         0     17288         1         0
     17291         1         0     17294         1         0     17297         1         0
     17300         1         0     17303         1         0     17307         2         0
     17314         2         0     17325         1         0     17333         1         0
     17342         1         0     17345         1         0     17348         1         0
     17351         1         0     17354         1         0     17357         1         0
     17360         1         0     17362         1         0     17364         1         0
     17367         1         0     17370         1         0     17373         1         0
     17376         1         0     17379         1         0     17382         1         0
     17385         1         0     17389         1         0     17392         1         0
     17395         1         0     17398         1         0     17401         1         0
     17404         1         0     17407         1         0     17410         1         0
     17413         1         0     17416         1         0     17419         1         0
     17422         1         0     17425         1         0     17428         1         0
     17432         2         0     17439         2         0     17450         1         0
     17458         1         0     17467         1         0     17470         1         0
     17473         1         0     17476         1         0     17479         1         0
     17482         1         0     17485         1         0     17487         1         0
     17489         1         0     17492         1         0     17495         1         0
     17498         1         0     17501         1         0     17504         1         0
     17507         1         0     17510         1         0     17514         1         0
     17517         1         0     17520         1         0     17523         1         0
     17526         1         0     17529         1         0     17532         1         0
     17535         1         0     17538         1         0     17541         1         0
     17544         1         0     17547         1         0     17550         1         0
     17553         1         0     17557         2         0     17573         2         0
     17584         1         0     17592         1         0     17601         1         0
     17604         1         0     17607         1         0     17610         1         0
     17613         1         0     17616         1         0     17619         1         0
     17621         1         0     17623         1         0     17626         1         0
     17629         1         0     17632         1         0     17635         1         0
     17638         1         0     17641         1         0     17644         1         0
     17648         1         0     17651         1         0     17654         1         0
     17657         1         0     17660         1         0     17663         1         0
     17666         1         0     17669         1         0     17672         1         0
     17675         1         0     17678         1         0     17681         1         0
     17684         1         0     17687         1         0     17691         2         0
     17707         2         0     17718         1         0     17726         1         0
     17735         1         0     17738         1         0     17741         1         0
     17744         1         0     17747         1         0     17750         1         0
     17753         1         0     17755         1         0     17757         1         0
     17760         1         0     17763         1         0     17766         1         0
     17769         1         0     17772         1         0     17775         1         0
     17778         1         0     17782         1         0     17785         1         0
     17788         1         0     17791         1         0     17794         1         0
     17797         1         0     17800         1         0     17803         1         0
     17806         1         0     17809         1         0     17812         1         0
     17815         1         0     17818         1         0     17821         1         0
     17825         2         0     17832         2         0     17843         1         0
     17851         1         0     17860         1         0     17863         1         0
     17866         1         0     17869         1         0     17872         1         0
     17875         1         0     17878         1         0     17880         1         0
     17882         1         0     17885         1         0     17888         1         0
     17891         1         0     17894         1         0     17897         1         0
     17900         1         0     17903         1         0     17907         1         0
     17910         1         0     17913         1         0     17916         1         0
     17919         1         0     17922         1         0     17925         1         0
     17928         1         0     17931         1         0     17934         1         0
     17937         1         0     17940         1         0     17943         1         0
     17946         1         0     17950         2         0     17957         2         0
     17968         1         0     17976         1         0     17985         1         0
     17988         1         0     17991         1         0     17994         1         0
     17997         1         0     18000         1         0     18003         1         0
     18005         1         0     18007         1         0     18010         1         0
     18013         1         0     18016         1         0     18019         1         0
     18022         1         0     18025         1         0     18028         1         0
     18032         1         0     18035         1         0     18038         1         0
     18041         1         0     18044         1         0     18047         1         0
     18050         1         0     18053         1         0     18056         1         0
     18059         1         0     18062         1         0     18065         1         0
     18068         1         0     18071         1         0     18075         2         0
     18091         2         0     18102         1         0     18110         1         0
     18119         1         0     18122         1         0     18125         1         0
     18128         1         0     18131         1         0     18134         1         0
     18137         1         0     18139         1         0     18141         1         0
     18144         1         0     18147         1         0     18150         1         0
     18153         1         0     18156         1         0     18159         1         0
     18162         1         0     18166         1         0     18169         1         0
     18172         1         0     18175         1         0     18178         1         0
     18181         1         0     18184         1         0     18187         1         0
     18190         1         0     18193         1         0     18196         1         0
     18199         1         0     18202         1         0     18205         1         0
     18209         2         0     18225         2         0     18236         1         0
     18244         1         0     18253         1         0     18256         1         0
     18259         1         0     18262         1         0     18265         1         0
     18268         1         0     18271         1         0     18273         1         0
     18275         1         0     18278         1         0     18281         1         0
     18284         1         0     18287         1         0     18290         1         0
     18293         1         0     18296         1         0     18300         1         0
     18303         1         0     18306         1         0     18309         1         0
     18312         1         0     18315         1         0     18318         1         0
     18321         1         0     18324         1         0     18327         1         0
     18330         1         0     18333         1         0     18336         1         0
     18339         1         0     18343         2         0     18359         2         0
     18370         1         0     18378         1         0     18387         1         0
     18390         1         0     18393         1         0     18396         1         0
     18399         1         0     18402         1         0     18405         1         0
     18407         1         0     18409         1         0     18412         1         0
     18415         1         0     18418         1         0     18421         1         0
     18424         1         0     18427         1         0     18430         1         0
     18434         1         0     18437         1         0     18440         1         0
     18443         1         0     18446         1         0     18449         1         0
     18452         1         0     18455         1         0     18458         1         0
     18461         1         0     18464         1         0     18467         1         0
     18470         1         0     18473         1         0     18477         2         0
     18493         2         0     18504         1         0     18512         1         0
     18521         1         0     18524         1         0     18527         1         0
     18530         1         0     18533         1         0     18536         1         0
     18539         1         0     18541         1         0     18543         1         0
     18546         1         0     18549         1         0     18552         1         0
     18555         1         0     18558         1         0     18561         1         0
     18564         1         0     18568         1         0     18571         1         0
     18574         1         0     18577         1         0     18580         1         0
     18583         1         0     18586         1         0     18589         1         0
     18592         1         0     18595         1         0     18598         1         0
     18601         1         0     18604         1         0     18607         1         0
     18611         2         0     18618         2         0     18629         1         0
     18637         1         0     18646         1         0     18649         1         0
     18652         1         0     18655         1         0     18658         1         0
     18661         1         0     18664         1         0     18666         1         0
     18668         1         0     18671         1         0     18674         1         0
     18677         1         0     18680         1         0     18683         1         0
     18686         1         0     18689         1         0     18693         1         0
     18696         1         0     18699         1         0     18702         1         0
     18705         1         0     18708         1         0     18711         1         0
     18714         1         0     18717         1         0     18720         1         0
     18723         1         0     18726         1         0     18729         1         0
     18732         1         0     18736         2         0     18743         2         0
     18754         1         0     18762         1         0     18771         1         0
     18774         1         0     18777         1         0     18780         1         0
     18783         1         0     18786         1         0     18789         1         0
     18791         1         0     18793         1         0     18796         1         0
     18799         1         0     18802         1         0     18805         1         0
     18808         1         0     18811         1         0     18814         1         0
     18818         1         0     18821         1         0     18824         1         0
     18827         1         0     18830         1         0     18833         1         0
     18836         1         0     18839         1         0     18842         1         0
     18845         1         0     18848         1         0     18851         1         0
     18854         1         0     18857         1         0     18861         2         0
     18868         2         0     18879         1         0     18887         1         0
     18896         1         0     18899         1         0     18902         1         0
     18905         1         0     18908         1         0     18911         1         0
     18914         1         0     18916         1         0     18918         1         0
     18921         1         0     18924         1         0     18927         1         0
     18930         1         0     18933         1         0     18936         1         0
     18939         1         0     18943         1         0     18946         1         0
     18949         1         0     18952         1         0     18955         1         0
     18958         1         0     18961         1         0     18964         1         0
     18967         1         0     18970         1         0     18973         1         0
     18976         1         0     18979         1         0     18982         1         0
     18986         2         0     18993         2         0     19004         1         0
     19012         1         0     19021         1         0     19024         1         0
     19027         1         0     19030         1         0     19033         1         0
     19036         1         0     19039         1         0     19041         1         0
     19043         1         0     19046         1         0     19049         1         0
     19052         1         0     19055         1         0     19058         1         0
     19061         1         0     19064         1         0     19068         1         0
     19071         1         0     19074         1         0     19077         1         0
     19080         1         0     19083         1         0     19086         1         0
     19089         1         0     19092         1         0     19095         1         0
     19098         1         0     19101         1         0     19104         1         0
     19107         1         0     19111         2         0     19127         2         0
     19138         1         0     19146         1         0     19155         1         0
     19158         1         0     19161         1         0     19164         1         0
     19167         1         0     19170         1         0     19173         1         0
     19175         1         0     19177         1         0     19180         1         0
     19183         1         0     19186         1         0     19189         1         0
     19192         1         0     19195         1         0     19198         1         0
     19202         1         0     19205         1         0     19208         1         0
     19211         1         0     19214         1         0     19217         1         0
     19220         1         0     19223         1         0     19226         1         0
     19229         1         0     19232         1         0     19235         1         0
     19238         1         0     19241         1         0     19245         2         0
     19261         2         0     19272         1         0     19280         1         0
     19289         1         0     19292         1         0     19295         1         0
     19298         1         0     19301         1         0     19304         1         0
     19307         1         0     19309         1         0     19311         1         0
     19314         1         0     19317         1         0     19320         1         0
     19323         1         0     19326         1         0     19329         1         0
     19332         1         0     19336         1         0     19339         1         0
     19342         1         0     19345         1         0     19348         1         0
     19351         1         0     19354         1         0     19357         1         0
     19360         1         0     19363         1         0     19366         1         0
     19369         1         0     19372         1         0     19375         1         0
     19379         2         0     19386         2         0     19397         1         0
     19405         1         0     19414         1         0     19417         1         0
     19420         1         0     19423         1         0     19426         1         0
     19429         1         0     19432         1         0     19434         1         0
     19436         1         0     19439         1         0     19442         1         0
     19445         1         0     19448         1         0     19451         1         0
     19454         1         0     19457         1         0     19461         1         0
     19464         1         0     19467         1         0     19470         1         0
     19473         1         0     19476         1         0     19479         1         0
     19482         1         0     19485         1         0     19488         1         0
     19491         1         0     19494         1         0     19497         1         0
     19500         1         0     19504         2         0     19520         2         0
     19531         1         0     19539         1         0     19548         1         0
     19551         1         0     19554         1         0     19557         1         0
     19560         1         0     19563         1         0     19566         1         0
     19568         1         0     19570         1         0     19573         1         0
     19576         1         0     19579         1         0     19582         1         0
     19585         1         0     19588         1         0     19591         1         0
     19595         1         0     19598         1         0     19601         1         0
     19604         1         0     19607         1         0     19610         1         0
     19613         1         0     19616         1         0     19619         1         0
     19622         1         0     19625         1         0     19628         1         0
     19631         1         0     19634         1         0     19638         2         0
     19654         2         0     19665         1         0     19673         1         0
     19682         1         0     19685         1         0     19688         1         0
     19691         1         0     19694         1         0     19697         1         0
     19700         1         0     19702         1         0     19704         1         0
     19707         1         0     19710         1         0     19713         1         0
     19716         1         0     19719         1         0     19722         1         0
     19725         1         0     19729         1         0     19732         1         0
     19735         1         0     19738         1         0     19741         1         0
     19744         1         0     19747         1         0     19750         1         0
     19753         1         0     19756         1         0     19759         1         0
     19762         1         0     19765         1         0     19768         1         0
     19772         2         0     19779         2         0     19790         1         0
     19798         1         0     19807         1         0     19810         1         0
     19813         1         0     19816         1         0     19819         1         0
     19822         1         0     19825         1         0     19827         1         0
     19829         1         0     19832         1         0     19835         1         0
     19838         1         0     19841         1         0     19844         1         0
     19847         1         0     19850         1         0     19854         1         0
     19857         1         0     19860         1         0     19863         1         0
     19866         1         0     19869         1         0     19872         1         0
     19875         1         0     19878         1         0     19881         1         0
     19884         1         0     19887         1         0     19890         1         0
     19893         1         0     19897         2         0     19904         2         0
     19915         1         0     19923         1         0     19932         1         0
     19935         1         0     19938         1         0     19941         1         0
     19944         1         0     19947         1         0     19950         1         0
     19952         1         0     19954         1         0     19957         1         0
     19960         1         0     19963         1         0     19966         1         0
     19969         1         0     19972         1         0     19975         1         0
     19979         1         0     19982         1         0     19985         1         0
     19988         1         0     19991         1         0     19994         1         0
     19997         1         0     20000         1         0     20003         1         0
     20006         1         0     20009         1         0     20012         1         0
     20015         1         0     20018         1         0     20022         2         0
     20038         2         0     20049         1         0     20057         1         0
     20066         1         0     20069         1         0     20072         1         0
     20075         1         0     20078         1         0     20081         1         0
     20084         1         0     20086         1         0     20088         1         0
     20091         1         0     20094         1         0     20097         1         0
     20100         1         0     20103         1         0     20106         1         0
     20109         1         0     20113         1         0     20116         1         0
     20119         1         0     20122         1         0     20125         1         0
     20128         1         0     20131         1         0     20134         1         0
     20137         1         0     20140         1         0     20143         1         0
     20146         1         0     20149         1         0     20152         1         0
     20156         2         0     20172         2         0     20183         1         0
     20191         1         0     20200         1         0     20203         1         0
     20206         1         0     20209         1         0     20212         1         0
     20215         1         0     20218         1         0     20220         1         0
     20222         1         0     20225         1         0     20228         1         0
     20231         1         0     20234         1         0     20237         1         0
     20240         1         0     20243         1         0     20247         1         0
     20250         1         0     20253         1         0     20256         1         0
     20259         1         0     20262         1         0     20265         1         0
     20268         1         0     20271         1         0     20274         1         0
     20277         1         0     20280         1         0     20283         1         0
     20286         1         0     20290         2         0     20297         2         0
     20308         1         0     20316         1         0     20325         1         0
     20328         1         0     20331         1         0     20334         1         0
     20337         1         0     20340         1         0     20343         1         0
     20345         1         0     20347         1         0     20350         1         0
     20353         1         0     20356         1         0     20359         1         0
     20362         1         0     20365         1         0     20368         1         0
     20372         1         0     20375         1         0     20378         1         0
     20381         1         0     20384         1         0     20387         1         0
     20390         1         0     20393         1         0     20396         1         0
     20399         1         0     20402         1         0     20405         1         0
     20408         1         0     20411         1         0     20415         2         0
     20431         2         0     20442         1         0     20450         1         0
     20459         1         0     20462         1         0     20465         1         0
     20468         1         0     20471         1         0     20474         1         0
     20477         1         0     20479         1         0     20481         1         0
     20484         1         0     20487         1         0     20490         1         0
     20493         1         0     20496         1         0     20499         1         0
     20502         1         0     20506         1         0     20509         1         0
     20512         1         0     20515         1         0     20518         1         0
     20521         1         0     20524         1         0     20527         1         0
     20530         1         0     20533         1         0     20536         1         0
     20539         1         0     20542         1         0     20545         1         0
     20549         2         0     20565         2         0     20576         1         0
     20584         1         0     20593         1         0     20596         1         0
     20599         1         0     20602         1         0     20605         1         0
     20608         1         0     20611         1         0     20613         1         0
     20615         1         0     20618         1         0     20621         1         0
     20624         1         0     20627         1         0     20630         1         0
     20633         1         0     20636         1         0     20640         1         0
     20643         1         0     20646         1         0     20649         1         0
     20652         1         0     20655         1         0     20658         1         0
     20661         1         0     20664         1         0     20667         1         0
     20670         1         0     20673         1         0     20676         1         0
     20679         1         0     20683         2         0     20699         2         0
     20710         1         0     20718         1         0     20727         1         0
     20730         1         0     20733         1         0     20736         1         0
     20739         1         0     20742         1         0     20745         1         0
     20747         1         0     20749         1         0     20752         1         0
     20755         1         0     20758         1         0     20761         1         0
     20764         1         0     20767         1         0     20770         1         0
     20774         1         0     20777         1         0     20780         1         0
     20783         1         0     20786         1         0     20789         1         0
     20792         1         0     20795         1         0     20798         1         0
     20801         1         0     20804         1         0     20807         1         0
     20810         1         0     20813         1         0     20817         2         0
     20824         2         0     20835         1         0     20843         1         0
     20852         1         0     20855         1         0     20858         1         0
     20861         1         0     20864         1         0     20867         1         0
     20870         1         0     20872         1         0     20874         1         0
     20877         1         0     20880         1         0     20883         1         0
     20886         1         0     20889         1         0     20892         1         0
     20895         1         0     20899         1         0     20902         1         0
     20905         1         0     20908         1         0     20911         1         0
     20914         1         0     20917         1         0     20920         1         0
     20923         1         0     20926         1         0     20929         1         0
     20932         1         0     20935         1         0     20938         1         0
     20942         1         0     20946         1         0     20949         1         0
     20952         1         0     20955         1         0     20957         1         0
     20959         1         0     20962         1         0     20965         1         0
     20967         0         0     20968         1         0     20972         1         0
     20975         1         0     20978         1         0     20980         0         0
     20981         1         0     20985         1         0     20988         1         0
     20991         1         0     20993         1         0     20997         1         0
     21000         1         0     21003         1         0     21006         1         0
     21008         1         0     21012         1         0     21016         1         0
     21020         1         0     21023         1         0     21026         1         0
     21029         1         0     21031         1         0     21033         1         0
     21036         1         0     21039         1         0     21041         0         0
     21042         1         0     21046         1         0     21049         1         0
     21052         1         0     21054         0         0     21055         1         0
     21059         1         0     21062         1         0     21065         1         0
     21067         1         0     21071         1         0     21074         1         0
     21077         1         0     21080         1         0     21082         1         0
     21086         1         0     21090         1         0     21094         1         0
     21097         1         0     21100         1         0     21103         1         0
     21105         1         0     21107         1         0     21110         1         0
     21113         1         0     21115         0         0     21116         1         0
     21120         1         0     21123         1         0     21126         1         0
     21128         0         0     21129         1         0     21133         1         0
     21136         1         0     21139         1         0     21141         1         0
     21145         1         0     21148         1         0     21151         1         0
     21154         1         0     21156         1         0     21160         1         0
     21164         1         0     21168         1         0     21171         1         0
     21174         1         0     21177         1         0     21179         1         0
     21181         1         0     21184         1         0     21187         1         0
     21189         0         0     21190         1         0     21194         1         0
     21197         1         0     21200         1         0     21202         0         0
     21203         1         0     21207         1         0     21210         1         0
     21213         1         0     21215         1         0     21219         1         0
     21222         1         0     21225         1         0     21228         1         0
     21230         1         0     21234         1         0     21238         1         0
     21242         1         0     21245         1         0     21248         1         0
     21251         1         0     21253         1         0     21255         1         0
     21258         1         0     21261         1         0     21263         0         0
     21264         1         0     21268         1         0     21271         1         0
     21274         1         0     21276         0         0     21277         1         0
     21281         1         0     21284         1         0     21287         1         0
     21289         1         0     21293         1         0     21296         1         0
     21299         1         0     21302         1         0     21304         1         0
     21308         1         0     21312         1         0     21316         1         0
     21319         1         0     21322         1         0     21325         1         0
     21327         1         0     21329         1         0     21332         1         0
     21335         1         0     21337         0         0     21338         1         0
     21342         1         0     21345         1         0     21348         1         0
     21350         0         0     21351         1         0     21355         1         0
     21358         1         0     21361         1         0     21363         1         0
     21367         1         0     21370         1         0     21373         1         0
     21376         1         0     21378         1         0     21382         1         0
     21386         1         0     21390         1         0     21393         1         0
     21396         1         0     21399         1         0     21401         1         0
     21403         1         0     21406         1         0     21409         1         0
     21411         0         0     21412         1         0     21416         1         0
     21419         1         0     21422         1         0     21424         0         0
     21425         1         0     21429         1         0     21432         1         0
     21435         1         0     21437         1         0     21441         1         0
     21444         1         0     21447         1         0     21450         1         0
     21452         1         0     21456         1         0     21460         1         0
     21464         1         0     21467         1         0     21470         1         0
     21473         1         0     21475         1         0     21477         1         0
     21480         1         0     21483         1         0     21485         0         0
     21486         1         0     21490         1         0     21493         1         0
     21496         1         0     21498         0         0     21499         1         0
     21503         1         0     21506         1         0     21509         1         0
     21511         1         0     21515         1         0     21518         1         0
     21521         1         0     21524         1         0     21526         1         0
     21530         1         0     21534         1         0     21538         1         0
     21541         1         0     21544         1         0     21547         1         0
     21549         1         0     21551         1         0     21554         1         0
     21557         1         0     21559         0         0     21560         1         0
     21564         1         0     21567         1         0     21570         1         0
     21572         0         0     21573         1         0     21577         1         0
     21580         1         0     21583         1         0     21585         1         0
     21589         1         0     21592         1         0     21595         1         0
     21598         1         0     21600         1         0     21604         1         0
     21608         1         0     21612         1         0     21615         1         0
     21618         1         0     21621         1         0     21623         1         0
     21625         1         0     21628         1         0     21631         1         0
     21633         0         0     21634         1         0     21638         1         0
     21641         1         0     21644         1         0     21646         0         0
     21647         1         0     21651         1         0     21654         1         0
     21657         1         0     21659         1         0     21663         1         0
     21666         1         0     21669         1         0     21672         1         0
     21674         1         0     21678         1         0     21682         1         0
     21686         1         0     21689         1         0     21692         1         0
     21695         1         0     21697         1         0     21699         1         0
     21702         1         0     21705         1         0     21707         0         0
     21708         1         0     21712         1         0     21715         1         0
     21718         1         0     21720         0         0     21721         1         0
     21725         1         0     21728         1         0     21731         1         0
     21733         1         0     21737         1         0     21740         1         0
     21743         1         0     21746         1         0     21748         1         0
     21752         1         0     21756         1         0     21760         1         0
     21763         1         0     21766         1         0     21769         1         0
     21771         1         0     21773         1         0     21776         1         0
     21779         1         0     21781         0         0     21782         1         0
     21786         1         0     21789         1         0     21792         1         0
     21794         0         0     21795         1         0     21799         1         0
     21802         1         0     21805         1         0     21807         1         0
     21811         1         0     21814         1         0     21817         1         0
     21820         1         0     21822         1         0     21826         1         0
     21830         1         0     21834         1         0     21837         1         0
     21840         1         0     21843         1         0     21845         1         0
     21847         1         0     21850         1         0     21853         1         0
     21855         0         0     21856         1         0     21860         1         0
     21863         1         0     21866         1         0     21868         0         0
     21869         1         0     21873         1         0     21876         1         0
     21879         1         0     21881         1         0     21885         1         0
     21888         1         0     21891         1         0     21894         1         0
     21896         1         0     21900         1         0     21904         1         0
     21908         1         0     21911         1         0     21914         1         0
     21917         1         0     21919         1         0     21921         1         0
     21924         1         0     21927         1         0     21929         0         0
     21930         1         0     21934         1         0     21937         1         0
     21940         1         0     21942         0         0     21943         1         0
     21947         1         0     21950         1         0     21953         1         0
     21955         1         0     21959         1         0     21962         1         0
     21965         1         0     21968         1         0     21970         1         0
     21974         1         0     21978         1         0     21982         1         0
     21985         1         0     21988         1         0     21991         1         0
     21993         1         0     21995         1         0     21998         1         0
     22001         1         0     22003         0         0     22004         1         0
     22008         1         0     22011         1         0     22014         1         0
     22016         0         0     22017         1         0     22021         1         0
     22024         1         0     22027         1         0     22029         1         0
     22033         1         0     22036         1         0     22039         1         0
     22042         1         0     22044         1         0     22048         1         0
     22052         1         0     22056         1         0     22059         1         0
     22062         1         0     22065         1         0     22067         1         0
     22069         1         0     22072         1         0     22075         1         0
     22077         0         0     22078         1         0     22082         1         0
     22085         1         0     22088         1         0     22090         0         0
     22091         1         0     22095         1         0     22098         1         0
     22101         1         0     22103         1         0     22107         1         0
     22110         1         0     22113         1         0     22116         1         0
     22118         1         0     22122         1         0     22126         1         0
     22130         1         0     22133         1         0     22136         1         0
     22139         1         0     22141         1         0     22143         1         0
     22146         1         0     22149         1         0     22151         0         0
     22152         1         0     22156         1         0     22159         1         0
     22162         1         0     22164         0         0     22165         1         0
     22169         1         0     22172         1         0     22175         1         0
     22177         1         0     22181         1         0     22184         1         0
     22187         1         0     22190         1         0     22192         1         0
     22196         1         0     22200         1         0     22204         1         0
     22207         1         0     22210         1         0     22213         1         0
     22215         1         0     22217         1         0     22220         1         0
     22223         1         0     22225         0         0     22226         1         0
     22230         1         0     22233         1         0     22236         1         0
     22238         0         0     22239         1         0     22243         1         0
     22246         1         0     22249         1         0     22251         1         0
     22255         1         0     22258         1         0     22261         1         0
     22264         1         0     22266         1         0     22270         1         0
     22274         1         0     22278         1         0     22281         1         0
     22284         1         0     22287         1         0     22289         1         0
     22291         1         0     22294         1         0     22297         1         0
     22299         0         0     22300         1         0     22304         1         0
     22307         1         0     22310         1         0     22312         0         0
     22313         1         0     22317         1         0     22320         1         0
     22323         1         0     22325         1         0     22329         1         0
     22332         1         0     22335         1         0     22338         1         0
     22340         1         0     22344         1         0     22348         1         0
     22352         1         0     22355         1         0     22358         1         0
     22361         1         0     22363         1         0     22365         1         0
     22368         1         0     22371         1         0     22373         0         0
     22374         1         0     22378         1         0     22381         1         0
     22384         1         0     22386         0         0     22387         1         0
     22391         1         0     22394         1         0     22397         1         0
     22399         1         0     22403         1         0     22406         1         0
     22409         1         0     22412         1         0     22414         1         0
     22418         1         0     22422         1         0     22426         1         0
     22429         1         0     22432         1         0     22435         1         0
     22437         1         0     22439         1         0     22442         1         0
     22445         1         0     22447         0         0     22448         1         0
     22452         1         0     22455         1         0     22458         1         0
     22460         0         0     22461         1         0     22465         1         0
     22468         1         0     22471         1         0     22473         1         0
     22477         1         0     22480         1         0     22483         1         0
     22486         1         0     22488         1         0     22492         1         0
     22496         1         0     22500         1         0     22503         1         0
     22506         1         0     22509         1         0     22511         1         0
     22513         1         0     22516         1         0     22519         1         0
     22521         0         0     22522         1         0     22526         1         0
     22529         1         0     22532         1         0     22534         0         0
     22535         1         0     22539         1         0     22542         1         0
     22545         1         0     22547         1         0     22551         1         0
     22554         1         0     22557         1         0     22560         1         0
     22562         1         0     22566         1         0     22570         1         0
     22574         1         0     22577         1         0     22580         1         0
     22583         1         0     22585         1         0     22587         1         0
     22590         1         0     22593         1         0     22595         0         0
     22596         1         0     22600         1         0     22603         1         0
     22606         1         0     22608         0         0     22609         1         0
     22613         1         0     22616         1         0     22619         1         0
     22621         1         0     22625         1         0     22628         1         0
     22631         1         0     22634         1         0     22636         1         0
     22640         1         0     22644         1         0     22648         1         0
     22651         1         0     22654         1         0     22657         1         0
     22659         1         0     22661         1         0     22664         1         0
     22667         1         0     22669         0         0     22670         1         0
     22674         1         0     22677         1         0     22680         1         0
     22682         0         0     22683         1         0     22687         1         0
     22690         1         0     22693         1         0     22695         1         0
     22699         1         0     22702         1         0     22705         1         0
     22708         1         0     22710         1         0     22714         1         0
     22718         1         0     22722         1         0     22725         1         0
     22728         1         0     22731         1         0     22733         1         0
     22735         1         0     22738         1         0     22741         1         0
     22743         0         0     22744         1         0     22748         1         0
     22751         1         0     22754         1         0     22756         0         0
     22757         1         0     22761         1         0     22764         1         0
     22767         1         0     22769         1         0     22773         1         0
     22776         1         0     22779         1         0     22782         1         0
     22784         1         0     22788         1         0     22792         1         0
     22796         1         0     22799         1         0     22802         1         0
     22805         1         0     22807         1         0     22809         1         0
     22812         1         0     22815         1         0     22817         0         0
     22818         1         0     22822         1         0     22825         1         0
     22828         1         0     22830         0         0     22831         1         0
     22835         1         0     22838         1         0     22841         1         0
     22843         1         0     22847         1         0     22850         1         0
     22853         1         0     22856         1         0     22858         1         0
     22862         1         0     22866         1         0     22870         1         0
     22873         1         0     22876         1         0     22879         1         0
     22881         1         0     22883         1         0     22886         1         0
     22889         1         0     22891         0         0     22892         1         0
     22896         1         0     22899         1         0     22902         1         0
     22904         0         0     22905         1         0     22909         1         0
     22912         1         0     22915         1         0     22917         1         0
     22921         1         0     22924         1         0     22927         1         0
     22930         1         0     22932         1         0     22936         1         0
     22940         1         0     22944         1         0     22947         1         0
     22950         1         0     22953         1         0     22955         1         0
     22957         1         0     22960         1         0     22963         1         0
     22965         0         0     22966         1         0     22970         1         0
     22973         1         0     22976         1         0     22978         0         0
     22979         1         0     22983         1         0     22986         1         0
     22989         1         0     22991         1         0     22995         1         0
     22998         1         0     23001         1         0     23004         1         0
     23006         1         0     23010         1         0     23014         1         0
     23018         1         0     23021         1         0     23024         1         0
     23027         1         0     23029         1         0     23031         1         0
     23034         1         0     23037         1         0     23039         0         0
     23040         1         0     23044         1         0     23047         1         0
     23050         1         0     23052         0         0     23053         1         0
     23057         1         0     23060         1         0     23063         1         0
     23065         1         0     23069         1         0     23072         1         0
     23075         1         0     23078         1         0     23080         1         0
     23084         1         0     23088         1         0     23092         1         0
     23095         1         0     23098         1         0     23101         1         0
     23103         1         0     23105         1         0     23108         1         0
     23111         1         0     23113         0         0     23114         1         0
     23118         1         0     23121         1         0     23124         1         0
     23126         0         0     23127         1         0     23131         1         0
     23134         1         0     23137         1         0     23139         1         0
     23143         1         0     23146         1         0     23149         1         0
     23152         1         0     23154         1         0     23158         1         0
     23162         2         0     23178         2         0     23189         1         0
     23197         1         0     23206         1         0     23209         1         0
     23212         1         0     23215         1         0     23218         1         0
     23221         1         0     23224         1         0     23226         1         0
     23228         1         0     23231         1         0     23234         1         0
     23237         1         0     23240         1         0     23243         1         0
     23246         1         0     23249         1         0     23253         1         0
     23256         1         0     23259         1         0     23262         1         0
     23265         1         0     23268         1         0     23271         1         0
     23274         1         0     23277         1         0     23280         1         0
     23283         1         0     23286         1         0     23289         1         0
     23292         1         0     23296         2         0     23312         2         0
     23323         1         0     23331         1         0     23340         1         0
     23343         1         0     23346         1         0     23349         1         0
     23352         1         0     23355         1         0     23358         1         0
     23360         1         0     23362         1         0     23365         1         0
     23368         1         0     23371         1         0     23374         1         0
     23377         1         0     23380         1         0     23383         1         0
     23387         1         0     23390         1         0     23393         1         0
     23396         1         0     23399         1         0     23402         1         0
     23405         1         0     23408         1         0     23411         1         0
     23414         1         0     23417         1         0     23420         1         0
     23423         1         0     23426         1         0     23430         2         0
     23446         2         0     23457         1         0     23465         1         0
     23474         1         0     23477         1         0     23480         1         0
     23483         1         0     23486         1         0     23489         1         0
     23492         1         0     23494         1         0     23496         1         0
     23499         1         0     23502         1         0     23505         1         0
     23508         1         0     23511         1         0     23514         1         0
     23517         1         0     23521         1         0     23524         1         0
     23527         1         0     23530         1         0     23533         1         0
     23536         1         0     23539         1         0     23542         1         0
     23545         1         0     23548         1         0     23551         1         0
     23554         1         0     23557         1         0     23560         1         0
     23564         2         0     23580         2         0     23591         1         0
     23599         1         0     23608         1         0     23611         1         0
     23614         1         0     23617         1         0     23620         1         0
     23623         1         0     23626         1         0     23628         1         0
     23630         1         0     23633         1         0     23636         1         0
     23639         1         0     23642         1         0     23645         1         0
     23648         1         0     23651         1         0     23655         1         0
     23658         1         0     23661         1         0     23664         1         0
     23667         1         0     23670         1         0     23673         1         0
     23676         1         0     23679         1         0     23682         1         0
     23685         1         0     23688         1         0     23691         1         0
     23694         1         0     23698         2         0     23705         2         0
     23716         1         0     23724         1         0     23733         1         0
     23736         1         0     23739         1         0     23742         1         0
     23745         1         0     23748         1         0     23751         1         0
     23753         1         0     23755         1         0     23758         1         0
     23761         1         0     23764         1         0     23767         1         0
     23770         1         0     23773         1         0     23776         1         0
     23780         1         0     23783         1         0     23786         1         0
     23789         1         0     23792         1         0     23795         1         0
     23798         1         0     23801         1         0     23804         1         0
     23807         1         0     23810         1         0     23813         1         0
     23816         1         0     23819         1         0     23823         2         0
     23839         2         0     23850         1         0     23858         1         0
     23867         1         0     23870         1         0     23873         1         0
     23876         1         0     23879         1         0     23882         1         0
     23885         1         0     23887         1         0     23889         1         0
     23892         1         0     23895         1         0     23898         1         0
     23901         1         0     23904         1         0     23907         1         0
     23910         1         0     23914         1         0     23917         1         0
     23920         1         0     23923         1         0     23926         1         0
     23929         1         0     23932         1         0     23935         1         0
     23938         1         0     23941         1         0     23944         1         0
     23947         1         0     23950         1         0     23953         1         0
     23957         2         0     23973         2         0     23984         1         0
     23992         1         0     24001         1         0     24004         1         0
     24007         1         0     24010         1         0     24013         1         0
     24016         1         0     24019         1         0     24021         1         0
     24023         1         0     24026         1         0     24029         1         0
     24032         1         0     24035         1         0     24038         1         0
     24041         1         0     24044         1         0     24048         1         0
     24051         1         0     24054         1         0     24057         1         0
     24060         1         0     24063         1         0     24066         1         0
     24069         1         0     24072         1         0     24075         1         0
     24078         1         0     24081         1         0     24084         1         0
     24087         1         0     24091         2         0     24098         2         0
     24109         1         0     24117         1         0     24126         1         0
     24129         1         0     24132         1         0     24135         1         0
     24138         1         0     24141         1         0     24144         1         0
     24146         1         0     24148         1         0     24151         1         0
     24154         1         0     24157         1         0     24160         1         0
     24163         1         0     24166         1         0     24169         1         0
     24173         1         0     24176         1         0     24179         1         0
     24182         1         0     24185         1         0     24188         1         0
     24191         1         0     24194         1         0     24197         1         0
     24200         1         0     24203         1         0     24206         1         0
     24209         1         0     24212         1         0     24216         2         0
     24223         2         0     24234         1         0     24242         1         0
     24251         1         0     24254         1         0     24257         1         0
     24260         1         0     24263         1         0     24266         1         0
     24269         1         0     24271         1         0     24273         1         0
     24276         1         0     24279         1         0     24282         1         0
     24285         1         0     24288         1         0     24291         1         0
     24294         1         0     24298         1         0     24301         1         0
     24304         1         0     24307         1         0     24310         1         0
     24313         1         0     24316         1         0     24319         1         0
     24322         1         0     24325         1         0     24328         1         0
     24331         1         0     24334         1         0     24337         1         0
     24341         2         0     24348         2         0     24359         1         0
     24367         1         0     24376         1         0     24379         1         0
     24382         1         0     24385         1         0     24388         1         0
     24391         1         0     24394         1         0     24396         1         0
     24398         1         0     24401         1         0     24404         1         0
     24407         1         0     24410         1         0     24413         1         0
     24416         1         0     24419         1         0     24423         1         0
     24426         1         0     24429         1         0     24432         1         0
     24435         1         0     24438         1         0     24441         1         0
     24444         1         0     24447         1         0     24450         1         0
     24453         1         0     24456         1         0     24459         1         0
     24462         1         0     24466         2         0     24482         2         0
     24493         1         0     24501         1         0     24510         1         0
     24513         1         0     24516         1         0     24519         1         0
     24522         1         0     24525         1         0     24528         1         0
     24530         1         0     24532         1         0     24535         1         0
     24538         1         0     24541         1         0     24544         1         0
     24547         1         0     24550         1         0     24553         1         0
     24557         1         0     24560         1         0     24563         1         0
     24566         1         0     24569         1         0     24572         1         0
     24575         1         0     24578         1         0     24581         1         0
     24584         1         0     24587         1         0     24590         1         0
     24593         1         0     24596         1         0     24600         2         0
     24607         2         0     24618         1         0     24626         1         0
     24635         1         0     24638         1         0     24641         1         0
     24644         1         0     24647         1         0     24650         1         0
     24653         1         0     24655         1         0     24657         1         0
     24660         1         0     24663         1         0     24666         1         0
     24669         1         0     24672         1         0     24675         1         0
     24678         1         0     24682         1         0     24685         1         0
     24688         1         0     24691         1         0     24694         1         0
     24697         1         0     24700         1         0     24703         1         0
     24706         1         0     24709         1         0     24712         1         0
     24715         1         0     24718         1         0     24721         1         0
     24725         2         0     24732         2         0     24743         1         0
     24751         1         0     24760         1         0     24763         1         0
     24766         1         0     24769         1         0     24772         1         0
     24775         1         0     24778         1         0     24780         1         0
     24782         1         0     24785         1         0     24788         1         0
     24791         1         0     24794         1         0     24797         1         0
     24800         1         0     24803         1         0     24807         1         0
     24810         1         0     24813         1         0     24816         1         0
     24819         1         0     24822         1         0     24825         1         0
     24828         1         0     24831         1         0     24834         1         0
     24837         1         0     24840         1         0     24843         1         0
     24846         1         0     24850         2         0     24866         2         0
     24877         1         0     24885         1         0     24894         1         0
     24897         1         0     24900         1         0     24903         1         0
     24906         1         0     24909         1         0     24912         1         0
     24914         1         0     24916         1         0     24919         1         0
     24922         1         0     24925         1         0     24928         1         0
     24931         1         0     24934         1         0     24937         1         0
     24941         1         0     24944         1         0     24947         1         0
     24950         1         0     24953         1         0     24956         1         0
     24959         1         0     24962         1         0     24965         1         0
     24968         1         0     24971         1         0     24974         1         0
     24977         1         0     24980         1         0     24984         2         0
     25000         2         0     25011         1         0     25019         1         0
     25028         1         0     25031         1         0     25034         1         0
     25037         1         0     25040         1         0     25043         1         0
     25046         1         0     25048         1         0     25050         1         0
     25053         1         0     25056         1         0     25059         1         0
     25062         1         0     25065         1         0     25068         1         0
     25071         1         0     25075         1         0     25078         1         0
     25081         1         0     25084         1         0     25087         1         0
     25090         1         0     25093         1         0     25096         1         0
     25099         1         0     25102         1         0     25105         1         0
     25108         1         0     25111         1         0     25114         1         0
     25118         2         0     25125         2         0     25136         1         0
     25144         1         0     25153         1         0     25156         1         0
     25159         1         0     25162         1         0     25165         1         0
     25168         1         0     25171         1         0     25173         1         0
     25175         1         0     25178         1         0     25181         1         0
     25184         1         0     25187         1         0     25190         1         0
     25193         1         0     25196         1         0     25200         1         0
     25203         1         0     25206         1         0     25209         1         0
     25212         1         0     25215         1         0     25218         1         0
     25221         1         0     25224         1         0     25227         1         0
     25230         1         0     25233         1         0     25236         1         0
     25239         1         0     25243         2         0     25259         2         0
     25270         1         0     25278         1         0     25287         1         0
     25290         1         0     25293         1         0     25296         1         0
     25299         1         0     25302         1         0     25305         1         0
     25307         1         0     25309         1         0     25312         1         0
     25315         1         0     25318         1         0     25321         1         0
     25324         1         0     25327         1         0     25330         1         0
     25334         1         0     25337         1         0     25340         1         0
     25343         1         0     25346         1         0     25349         1         0
     25352         1         0     25355         1         0     25358         1         0
     25361         1         0     25364         1         0     25367         1         0
     25370         1         0     25373         1         0     25377         2         0
     25384         2         0     25395         1         0     25403         1         0
     25412         1         0     25415         1         0     25418         1         0
     25421         1         0     25424         1         0     25427         1         0
     25430         1         0     25432         1         0     25434         1         0
     25437         1         0     25440         1         0     25443         1         0
     25446         1         0     25449         1         0     25452         1         0
     25455         1         0     25459         1         0     25462         1         0
     25465         1         0     25468         1         0     25471         1         0
     25474         1         0     25477         1         0     25480         1         0
     25483         1         0     25486         1         0     25489         1         0
     25492         1         0     25495         1         0     25498         1         0
     25502         2         0     25518         2         0     25529         1         0
     25537         1         0     25546         1         0     25549         1         0
     25552         1         0     25555         1         0     25558         1         0
     25561         1         0     25564         1         0     25566         1         0
     25568         1         0     25571         1         0     25574         1         0
     25577         1         0     25580         1         0     25583         1         0
     25586         1         0     25589         1         0     25593         1         0
     25596         1         0     25599         1         0     25602         1         0
     25605         1         0     25608         1         0     25611         1         0
     25614         1         0     25617         1         0     25620         1         0
     25623         1         0     25626         1         0     25629         1         0
     25632         1         0     25636         2         0     25652         2         0
     25663         1         0     25671         1         0     25680         1         0
     25683         1         0     25686         1         0     25689         1         0
     25692         1         0     25695         1         0     25698         1         0
     25700         1         0     25702         1         0     25705         1         0
     25708         1         0     25711         1         0     25714         1         0
     25717         1         0     25720         1         0     25723         1         0
     25727         1         0     25730         1         0     25733         1         0
     25736         1         0     25739         1         0     25742         1         0
     25745         1         0     25748         1         0     25751         1         0
     25754         1         0     25757         1         0     25760         1         0
     25763         1         0     25766         1         0     25770         2         0
     25777         2         0     25788         1         0     25796         1         0
     25805         1         0     25808         1         0     25811         1         0
     25814         1         0     25817         1         0     25820         1         0
     25823         1         0     25825         1         0     25827         1         0
     25830         1         0     25833         1         0     25836         1         0
     25839         1         0     25842         1         0     25845         1         0
     25848         1         0     25852         1         0     25855         1         0
     25858         1         0     25861         1         0     25864         1         0
     25867         1         0     25870         1         0     25873         1         0
     25876         1         0     25879         1         0     25882         1         0
     25885         1         0     25888         1         0     25891         1         0
     25895         2         0     25902         2         0     25913         1         0
     25921         1         0     25930         1         0     25933         1         0
     25936         1         0     25939         1         0     25942         1         0
     25945         1         0     25948         1         0     25950         1         0
     25952         1         0     25955         1         0     25958         1         0
     25961         1         0     25964         1         0     25967         1         0
     25970         1         0     25973         1         0     25977         1         0
     25980         1         0     25983         1         0     25986         1         0
     25989         1         0     25992         1         0     25995         1         0
     25998         1         0     26001         1         0     26004         1         0
     26007         1         0     26010         1         0     26013         1         0
     26016         1         0     26020         2         0     26027         2         0
     26038         1         0     26046         1         0     26055         1         0
     26058         1         0     26061         1         0     26064         1         0
     26067         1         0     26070         1         0     26073         1         0
     26075         1         0     26077         1         0     26080         1         0
     26083         1         0     26086         1         0     26089         1         0
     26092         1         0     26095         1         0     26098         1         0
     26102         1         0     26105         1         0     26108         1         0
     26111         1         0     26114         1         0     26117         1         0
     26120         1         0     26123         1         0     26126         1         0
     26129         1         0     26132         1         0     26135         1         0
     26138         1         0     26141         1         0     26145         2         0
     26161         2         0     26172         1         0     26180         1         0
     26189         1         0     26192         1         0     26195         1         0
     26198         1         0     26201         1         0     26204         1         0
     26207         1         0     26209         1         0     26211         1         0
     26214         1         0     26217         1         0     26220         1         0
     26223         1         0     26226         1         0     26229         1         0
     26232         1         0     26236         1         0     26239         1         0
     26242         1         0     26245         1         0     26248         1         0
     26251         1         0     26254         1         0     26257         1         0
     26260         1         0     26263         1         0     26266         1         0
     26269         1         0     26272         1         0     26275         1         0
     26279         2         0     26295         2         0     26306         1         0
     26314         1         0     26323         1         0     26326         1         0
     26329         1         0     26332         1         0     26335         1         0
     26338         1         0     26341         1         0     26343         1         0
     26345         1         0     26348         1         0     26351         1         0
     26354         1         0     26357         1         0     26360         1         0
     26363         1         0     26366         1         0     26370         1         0
     26373         1         0     26376         1         0     26379         1         0
     26382         1         0     26385         1         0     26388         1         0
     26391         1         0     26394         1         0     26397         1         0
     26400         1         0     26403         1         0     26406         1         0
     26409         1         0     26413         2         0     26420         2         0
     26431         1         0     26439         1         0     26448         1         0
     26451         1         0     26454         1         0     26457         1         0
     26460         1         0     26463         1         0     26466         1         0
     26468         1         0     26470         1         0     26473         1         0
     26476         1         0     26479         1         0     26482         1         0
     26485         1         0     26488         1         0     26491         1         0
     26495         1         0     26498         1         0     26501         1         0
     26504         1         0     26507         1         0     26510         1         0
     26513         1         0     26516         1         0     26519         1         0
     26522         1         0     26525         1         0     26528         1         0
     26531         1         0     26534         1         0     26538         2         0
     26545         2         0     26556         1         0     26564         1         0
     26573         1         0     26576         1         0     26579         1         0
     26582         1         0     26585         1         0     26588         1         0
     26591         1         0     26593         1         0     26595         1         0
     26598         1         0     26601         1         0     26604         1         0
     26607         1         0     26610         1         0     26613         1         0
     26616         1         0     26620         1         0     26623         1         0
     26626         1         0     26629         1         0     26632         1         0
     26635         1         0     26638         1         0     26641         1         0
     26644         1         0     26647         1         0     26650         1         0
     26653         1         0     26656         1         0     26659         1         0
     26663         2         0     26670         2         0     26681         1         0
     26689         1         0     26698         1         0     26701         1         0
     26704         1         0     26707         1         0     26710         1         0
     26713         1         0     26716         1         0     26718         1         0
     26720         1         0     26723         1         0     26726         1         0
     26729         1         0     26732         1         0     26735         1         0
     26738         1         0     26741         1         0     26745         1         0
     26748         1         0     26751         1         0     26754         1         0
     26757         1         0     26760         1         0     26763         1         0
     26766         1         0     26769         1         0     26772         1         0
     26775         1         0     26778         1         0     26781         1         0
     26784         1         0     26788         2         0     26795         2         0
     26806         1         0     26814         1         0     26823         1         0
     26826         1         0     26829         1         0     26832         1         0
     26835         1         0     26838         1         0     26841         1         0
     26843         1         0     26845         1         0     26848         1         0
     26851         1         0     26854         1         0     26857         1         0
     26860         1         0     26863         1         0     26866         1         0
     26870         1         0     26873         1         0     26876         1         0
     26879         1         0     26882         1         0     26885         1         0
     26888         1         0     26891         1         0     26894         1         0
     26897         1         0     26900         1         0     26903         1         0
     26906         1         0     26909         1         0     26913         2         0
     26929         2         0     26940         1         0     26948         1         0
     26957         1         0     26960         1         0     26963         1         0
     26966         1         0     26969         1         0     26972         1         0
     26975         1         0     26977         1         0     26979         1         0
     26982         1         0     26985         1         0     26988         1         0
     26991         1         0     26994         1         0     26997         1         0
     27000         1         0     27004         1         0     27007         1         0
     27010         1         0     27013         1         0     27016         1         0
     27019         1         0     27022         1         0     27025         1         0
     27028         1         0     27031         1         0     27034         1         0
     27037         1         0     27040         1         0     27043         1         0
     27047         2         0     27063         2         0     27074         1         0
     27082         1         0     27091         1         0     27094         1         0
     27097         1         0     27100         1         0     27103         1         0
     27106         1         0     27109         1         0     27111         1         0
     27113         1         0     27116         1         0     27119         1         0
     27122         1         0     27125         1         0     27128         1         0
     27131         1         0     27134         1         0     27138         1         0
     27141         1         0     27144         1         0     27147         1         0
     27150         1         0     27153         1         0     27156         1         0
     27159         1         0     27162         1         0     27165         1         0
     27168         1         0     27171         1         0     27174         1         0
     27177         1         0     27181         2         0     27197         2         0
     27208         1         0     27216         1         0     27225         1         0
     27228         1         0     27231         1         0     27234         1         0
     27237         1         0     27240         1         0     27243         1         0
     27245         1         0     27247         1         0     27250         1         0
     27253         1         0     27256         1         0     27259         1         0
     27262         1         0     27265         1         0     27268         1         0
     27272         1         0     27275         1         0     27278         1         0
     27281         1         0     27284         1         0     27287         1         0
     27290         1         0     27293         1         0     27296         1         0
     27299         1         0     27302         1         0     27305         1         0
     27308         1         0     27311         1         0     27315         2         0
     27331         2         0     27342         1         0     27350         1         0
     27359         1         0     27362         1         0     27365         1         0
     27368         1         0     27371         1         0     27374         1         0
     27377         1         0     27379         1         0     27381         1         0
     27384         1         0     27387         1         0     27390         1         0
     27393         1         0     27396         1         0     27399         1         0
     27402         1         0     27406         1         0     27409         1         0
     27412         1         0     27415         1         0     27418         1         0
     27421         1         0     27424         1         0     27427         1         0
     27430         1         0     27433         1         0     27436         1         0
     27439         1         0     27442         1         0     27445         1         0
     27449         2         0     27465         2         0     27476         1         0
     27484         1         0     27493         1         0     27496         1         0
     27499         1         0     27502         1         0     27505         1         0
     27508         1         0     27511         1         0     27513         1         0
     27515         1         0     27518         1         0     27521         1         0
     27524         1         0     27527         1         0     27530         1         0
     27533         1         0     27536         1         0     27540         1         0
     27543         1         0     27546         1         0     27549         1         0
     27552         1         0     27555         1         0     27558         1         0
     27561         1         0     27564         1         0     27567         1         0
     27570         1         0     27573         1         0     27576         1         0
     27579         1         0     27583         2         0     27590         2         0
     27601         1         0     27609         1         0     27618         1         0
     27621         1         0     27624         1         0     27627         1         0
     27630         1         0     27633         1         0     27636         1         0
     27638         1         0     27640         1         0     27643         1         0
     27646         1         0     27649         1         0     27652         1         0
     27655         1         0     27658         1         0     27661         1         0
     27665         1         0     27668         1         0     27671         1         0
     27674         1         0     27677         1         0     27680         1         0
     27683         1         0     27686         1         0     27689         1         0
     27692         1         0     27695         1         0     27698         1         0
     27701         1         0     27704         1         0     27708         2         0
     27715         2         0     27726         1         0     27734         1         0
     27743         1         0     27746         1         0     27749         1         0
     27752         1         0     27755         1         0     27758         1         0
     27761         1         0     27763         1         0     27765         1         0
     27768         1         0     27771         1         0     27774         1         0
     27777         1         0     27780         1         0     27783         1         0
     27786         1         0     27790         1         0     27793         1         0
     27796         1         0     27799         1         0     27802         1         0
     27805         1         0     27808         1         0     27811         1         0
     27814         1         0     27817         1         0     27820         1         0
     27823         1         0     27826         1         0     27829         1         0
     27833         2         0     27840         2         0     27851         1         0
     27859         1         0     27868         1         0     27871         1         0
     27874         1         0     27877         1         0     27880         1         0
     27883         1         0     27886         1         0     27888         1         0
     27890         1         0     27893         1         0     27896         1         0
     27899         1         0     27902         1         0     27905         1         0
     27908         1         0     27911         1         0     27915         1         0
     27918         1         0     27921         1         0     27924         1         0
     27927         1         0     27930         1         0     27933         1         0
     27936         1         0     27939         1         0     27942         1         0
     27945         1         0     27948         1         0     27951         1         0
     27954         1         0     27958         2         0     27974         2         0
     27985         1         0     27993         1         0     28002         1         0
     28005         1         0     28008         1         0     28011         1         0
     28014         1         0     28017         1         0     28020         1         0
     28022         1         0     28024         1         0     28027         1         0
     28030         1         0     28033         1         0     28036         1         0
     28039         1         0     28042         1         0     28045         1         0
     28049         1         0     28052         1         0     28055         1         0
     28058         1         0     28061         1         0     28064         1         0
     28067         1         0     28070         1         0     28073         1         0
     28076         1         0     28079         1         0     28082         1         0
     28085         1         0     28088         1         0     28092         2         0
     28108         2         0     28119         1         0     28127         1         0
     28136         1         0     28139         1         0     28142         1         0
     28145         1         0     28148         1         0     28151         1         0
     28154         1         0     28156         1         0     28158         1         0
     28161         1         0     28164         1         0     28167         1         0
     28170         1         0     28173         1         0     28176         1         0
     28179         1         0     28183         1         0     28186         1         0
     28189         1         0     28192         1         0     28195         1         0
     28198         1         0     28201         1         0     28204         1         0
     28207         1         0     28210         1         0     28213         1         0
     28216         1         0     28219         1         0     28222         1         0
     28226         2         0     28233         2         0     28244         1         0
     28252         1         0     28261         1         0     28264         1         0
     28267         1         0     28270         1         0     28273         1         0
     28276         1         0     28279         1         0     28281         1         0
     28283         1         0     28286         1         0     28289         1         0
     28292         1         0     28295         1         0     28298         1         0
     28301         1         0     28304         1         0     28308         1         0
     28311         1         0     28314         1         0     28317         1         0
     28320         1         0     28323         1         0     28326         1         0
     28329         1         0     28332         1         0     28335         1         0
     28338         1         0     28341         1         0     28344         1         0
     28347         1         0     28351         2         0     28358         2         0
     28369         1         0     28377         1         0     28386         1         0
     28389         1         0     28392         1         0     28395         1         0
     28398         1         0     28401         1         0     28404         1         0
     28406         1         0     28408         1         0     28411         1         0
     28414         1         0     28417         1         0     28420         1         0
     28423         1         0     28426         1         0     28429         1         0
     28433         1         0     28436         1         0     28439         1         0
     28442         1         0     28445         1         0     28448         1         0
     28451         1         0     28454         1         0     28457         1         0
     28460         1         0     28463         1         0     28466         1         0
     28469         1         0     28472         1         0     28476         2         0
     28483         2         0     28494         1         0     28502         1         0
     28511         1         0     28514         1         0     28517         1         0
     28520         1         0     28523         1         0     28526         1         0
     28529         1         0     28531         1         0     28533         1         0
     28536         1         0     28539         1         0     28542         1         0
     28545         1         0     28548         1         0     28551         1         0
     28554         1         0     28558         1         0     28561         1         0
     28564         1         0     28567         1         0     28570         1         0
     28573         1         0     28576         1         0     28579         1         0
     28582         1         0     28585         1         0     28588         1         0
     28591         1         0     28594         1         0     28597         1         0
     28601         2         0     28608         2         0     28619         1         0
     28627         1         0     28636         1         0     28639         1         0
     28642         1         0     28645         1         0     28648         1         0
     28651         1         0     28654         1         0     28656         1         0
     28658         1         0     28661         1         0     28664         1         0
     28667         1         0     28670         1         0     28673         1         0
     28676         1         0     28679         1         0     28683         1         0
     28686         1         0     28689         1         0     28692         1         0
     28695         1         0     28698         1         0     28701         1         0
     28704         1         0     28707         1         0     28710         1         0
     28713         1         0     28716         1         0     28719         1         0
     28722         1         0     28726         2         0     28733         2         0
     28744         1         0     28752         1         0     28761         1         0
     28764         1         0     28767         1         0     28770         1         0
     28773         1         0     28776         1         0     28779         1         0
     28781         1         0     28783         1         0     28786         1         0
     28789         1         0     28792         1         0     28795         1         0
     28798         1         0     28801         1         0     28804         1         0
     28808         1         0     28811         1         0     28814         1         0
     28817         1         0     28820         1         0     28823         1         0
     28826         1         0     28829         1         0     28832         1         0
     28835         1         0     28838         1         0     28841         1         0
     28844         1         0     28847         1         0     28851         2         0
     28867         2         0     28878         1         0     28886         1         0
     28895         1         0     28898         1         0     28901         1         0
     28904         1         0     28907         1         0     28910         1         0
     28913         1         0     28915         1         0     28917         1         0
     28920         1         0     28923         1         0     28926         1         0
     28929         1         0     28932         1         0     28935         1         0
     28938         1         0     28942         1         0     28945         1         0
     28948         1         0     28951         1         0     28954         1         0
     28957         1         0     28960         1         0     28963         1         0
     28966         1         0     28969         1         0     28972         1         0
     28975         1         0     28978         1         0     28981         1         0
     28985         2         0     29001         2         0     29012         1         0
     29020         1         0     29029         1         0     29032         1         0
     29035         1         0     29038         1         0     29041         1         0
     29044         1         0     29047         1         0     29049         1         0
     29051         1         0     29054         1         0     29057         1         0
     29060         1         0     29063         1         0     29066         1         0
     29069         1         0     29072         1         0     29076         1         0
     29079         1         0     29082         1         0     29085         1         0
     29088         1         0     29091         1         0     29094         1         0
     29097         1         0     29100         1         0     29103         1         0
     29106         1         0     29109         1         0     29112         1         0
     29115         1         0     29119         2         0     29126         2         0
     29137         1         0     29145         1         0     29154         1         0
     29157         1         0     29160         1         0     29163         1         0
     29166         1         0     29169         1         0     29172         1         0
     29174         1         0     29176         1         0     29179         1         0
     29182         1         0     29185         1         0     29188         1         0
     29191         1         0     29194         1         0     29197         1         0
     29201         1         0     29204         1         0     29207         1         0
     29210         1         0     29213         1         0     29216         1         0
     29219         1         0     29222         1         0     29225         1         0
     29228         1         0     29231         1         0     29234         1         0
     29237         1         0     29240         1         0     29244         2         0
     29260         2         0     29271         1         0     29279         1         0
     29288         1         0     29291         1         0     29294         1         0
     29297         1         0     29300         1         0     29303         1         0
     29306         1         0     29308         1         0     29310         1         0
     29313         1         0     29316         1         0     29319         1         0
     29322         1         0     29325         1         0     29328         1         0
     29331         1         0     29335         1         0     29338         1         0
     29341         1         0     29344         1         0     29347         1         0
     29350         1         0     29353         1         0     29356         1         0
     29359         1         0     29362         1         0     29365         1         0
     29368         1         0     29371         1         0     29374         1         0
     29378         2         0     29394         2         0     29405         1         0
     29413         1         0     29422         1         0     29425         1         0
     29428         1         0     29431         1         0     29434         1         0
     29437         1         0     29440         1         0     29442         1         0
     29444         1         0     29447         1         0     29450         1         0
     29453         1         0     29456         1         0     29459         1         0
     29462         1         0     29465         1         0     29469         1         0
     29472         1         0     29475         1         0     29478         1         0
     29481         1         0     29484         1         0     29487         1         0
     29490         1         0     29493         1         0     29496         1         0
     29499         1         0     29502         1         0     29505         1         0
     29508         1         0     29512         2         0     29528         2         0
     29539         1         0     29547         1         0     29556         1         0
     29559         1         0     29562         1         0     29565         1         0
     29568         1         0     29571         1         0     29574         1         0
     29576         1         0     29578         1         0     29581         1         0
     29584         1         0     29587         1         0     29590         1         0
     29593         1         0     29596         1         0     29599         1         0
     29603         1         0     29606         1         0     29609         1         0
     29612         1         0     29615         1         0     29618         1         0
     29621         1         0     29624         1         0     29627         1         0
     29630         1         0     29633         1         0     29636         1         0
     29639         1         0     29642         1         0     29646         2         0
     29662         2         0     29673         1         0     29681         1         0
     29690         1         0     29693         1         0     29696         1         0
     29699         1         0     29702         1         0     29705         1         0
     29708         1         0     29710         1         0     29712         1         0
     29715         1         0     29718         1         0     29721         1         0
     29724         1         0     29727         1         0     29730         1         0
     29733         1         0     29737         1         0     29740         1         0
     29743         1         0     29746         1         0     29749         1         0
     29752         1         0     29755         1         0     29758         1         0
     29761         1         0     29764         1         0     29767         1         0
     29770         1         0     29773         1         0     29776         1         0
     29780         2         0     29796         2         0     29807         1         0
     29815         1         0     29824         1         0     29827         1         0
     29830         1         0     29833         1         0     29836         1         0
     29839         1         0     29842         1         0     29844         1         0
     29846         1         0     29849         1         0     29852         1         0
     29855         1         0     29858         1         0     29861         1         0
     29864         1         0     29867         1         0     29871         1         0
     29874         1         0     29877         1         0     29880         1         0
     29883         1         0     29886         1         0     29889         1         0
     29892         1         0     29895         1         0     29898         1         0
     29901         1         0     29904         1         0     29907         1         0
     29910         1         0     29914         2         0     29930         2         0
     29941         1         0     29949         1         0     29958         1         0
     29961         1         0     29964         1         0     29967         1         0
     29970         1         0     29973         1         0     29976         1         0
     29978         1         0     29980         1         0     29983         1         0
     29986         1         0     29989         1         0     29992         1         0
     29995         1         0     29998         1         0     30001         1         0
     30005         1         0     30008         1         0     30011         1         0
     30014         1         0     30017         1         0     30020         1         0
     30023         1         0     30026         1         0     30029         1         0
     30032         1         0     30035         1         0     30038         1         0
     30041         1         0     30044         1         0     30048         2         0
     30064         2         0     30075         1         0     30083         1         0
     30092         1         0     30095         1         0     30098         1         0
     30101         1         0     30104         1         0     30107         1         0
     30110         1         0     30112         1         0     30114         1         0
     30117         1         0     30120         1         0     30123         1         0
     30126         1         0     30129         1         0     30132         1         0
     30135         1         0     30139         1         0     30142         1         0
     30145         1         0     30148         1         0     30151         1         0
     30154         1         0     30157         1         0     30160         1         0
     30163         1         0     30166         1         0     30169         1         0
     30172         1         0     30175         1         0     30178         1         0
     30182         2         0     30198         2         0     30209         1         0
     30217         1         0     30226         1         0     30229         1         0
     30232         1         0     30235         1         0     30238         1         0
     30241         1         0     30244         1         0     30246         1         0
     30248         1         0     30251         1         0     30254         1         0
     30257         1         0     30260         1         0     30263         1         0
     30266         1         0     30269         1         0     30273         1         0
     30276         1         0     30279         1         0     30282         1         0
     30285         1         0     30288         1         0     30291         1         0
     30294         1         0     30297         1         0     30300         1         0
     30303         1         0     30306         1         0     30309         1         0
     30312         1         0     30316         2         0     30332         2         0
     30343         1         0     30351         1         0     30360         1         0
     30363         1         0     30366         1         0     30369         1         0
     30372         1         0     30375         1         0     30378         1         0
     30380         1         0     30382         1         0     30385         1         0
     30388         1         0     30391         1         0     30394         1         0
     30397         1         0     30400         1         0     30403         1         0
     30407         1         0     30410         1         0     30413         1         0
     30416         1         0     30419         1         0     30422         1         0
     30425         1         0     30428         1         0     30431         1         0
     30434         1         0     30437         1         0     30440         1         0
     30443         1         0     30446         1         0     30450         2         0
     30466         2         0     30477         1         0     30485         1         0
     30494         1         0     30497         1         0     30500         1         0
     30503         1         0     30506         1         0     30509         1         0
     30512         1         0     30514         1         0     30516         1         0
     30519         1         0     30522         1         0     30525         1         0
     30528         1         0     30531         1         0     30534         1         0
     30537         1         0     30541         1         0     30544         1         0
     30547         1         0     30550         1         0     30553         1         0
     30556         1         0     30559         1         0     30562         1         0
     30565         1         0     30568         1         0     30571         1         0
     30574         1         0     30577         1         0     30580         1         0
     30584         2         0     30600         2         0     30611         1         0
     30619         1         0     30628         1         0     30631         1         0
     30634         1         0     30637         1         0     30640         1         0
     30643         1         0     30646         1         0     30648         1         0
     30650         1         0     30653         1         0     30656         1         0
     30659         1         0     30662         1         0     30665         1         0
     30668         1         0     30671         1         0     30675         1         0
     30678         1         0     30681         1         0     30684         1         0
     30687         1         0     30690         1         0     30693         1         0
     30696         1         0     30699         1         0     30702         1         0
     30705         1         0     30708         1         0     30711         1         0
     30714         1         0     30718         2         0     30734         2         0
     30745         1         0     30753         1         0     30762         1         0
     30765         1         0     30768         1         0     30771         1         0
     30774         1         0     30777         1         0     30780         1         0
     30782         1         0     30784         1         0     30787         1         0
     30790         1         0     30793         1         0     30796         1         0
     30799         1         0     30802         1         0     30805         1         0
     30809         1         0     30812         1         0     30815         1         0
     30818         1         0     30821         1         0     30824         1         0
     30827         1         0     30830         1         0     30833         1         0
     30836         1         0     30839         1         0     30842         1         0
     30845         1         0     30848         1         0     30852         2         0
     30868         2         0     30879         1         0     30887         1         0
     30896         1         0     30899         1         0     30902         1         0
     30905         1         0     30908         1         0     30911         1         0
     30914         1         0     30916         1         0     30918         1         0
     30921         1         0     30924         1         0     30927         1         0
     30930         1         0     30933         1         0     30936         1         0
     30939         1         0     30943         1         0     30946         1         0
     30949         1         0     30952         1         0     30955         1         0
     30958         1         0     30961         1         0     30964         1         0
     30967         1         0     30970         1         0     30973         1         0
     30976         1         0     30979         1         0     30982         1         0
     30986         2         0     30993         2         0     31004         1         0
     31012         1         0     31021         1         0     31024         1         0
     31027         1         0     31030         1         0     31033         1         0
     31036         1         0     31039         1         0     31041         1         0
     31043         1         0     31046         1         0     31049         1         0
     31052         1         0     31055         1         0     31058         1         0
     31061         1         0     31064         1         0     31068         1         0
     31071         1         0     31074         1         0     31077         1         0
     31080         1         0     31083         1         0     31086         1         0
     31089         1         0     31092         1         0     31095         1         0
     31098         1         0     31101         1         0     31104         1         0
     31107         1         0     31111         2         0     31118         2         0
     31129         1         0     31137         1         0     31146         1         0
     31149         1         0     31152         1         0     31155         1         0
     31158         1         0     31161         1         0     31164         1         0
     31166         1         0     31168         1         0     31171         1         0
     31174         1         0     31177         1         0     31180         1         0
     31183         1         0     31186         1         0     31189         1         0
     31193         1         0     31196         1         0     31199         1         0
     31202         1         0     31205         1         0     31208         1         0
     31211         1         0     31214         1         0     31217         1         0
     31220         1         0     31223         1         0     31226         1         0
     31229         1         0     31232         1         0     31236         2         0
     31243         2         0     31254         1         0     31262         1         0
     31271         1         0     31274         1         0     31277         1         0
     31280         1         0     31283         1         0     31286         1         0
     31289         1         0     31291         1         0     31293         1         0
     31296         1         0     31299         1         0     31302         1         0
     31305         1         0     31308         1         0     31311         1         0
     31314         1         0     31318         1         0     31321         1         0
     31324         1         0     31327         1         0     31330         1         0
     31333         1         0     31336         1         0     31339         1         0
     31342         1         0     31345         1         0     31348         1         0
     31351         1         0     31354         1         0     31357         1         0
     31361         2         0     31377         2         0     31388         1         0
     31396         1         0     31405         1         0     31408         1         0
     31411         1         0     31414         1         0     31417         1         0
     31420         1         0     31423         1         0     31425         1         0
     31427         1         0     31430         1         0     31433         1         0
     31436         1         0     31439         1         0     31442         1         0
     31445         1         0     31448         1         0     31452         1         0
     31455         1         0     31458         1         0     31461         1         0
     31464         1         0     31467         1         0     31470         1         0
     31473         1         0     31476         1         0     31479         1         0
     31482         1         0     31485         1         0     31488         1         0
     31491         1         0     31495         2         0     31511         2         0
     31522         1         0     31530         1         0     31539         1         0
     31542         1         0     31545         1         0     31548         1         0
     31551         1         0     31554         1         0     31557         1         0
     31559         1         0     31561         1         0     31564         1         0
     31567         1         0     31570         1         0     31573         1         0
     31576         1         0     31579         1         0     31582         1         0
     31586         1         0     31589         1         0     31592         1         0
     31595         1         0     31598         1         0     31601         1         0
     31604         1         0     31607         1         0     31610         1         0
     31613         1         0     31616         1         0     31619         1         0
     31622         1         0     31625         1         0     31629         2         0
     31636         2         0     31647         1         0     31655         1         0
     31664         1         0     31667         1         0     31670         1         0
     31673         1         0     31676         1         0     31679         1         0
     31682         1         0     31684         1         0     31686         1         0
     31689         1         0     31692         1         0     31695         1         0
     31698         1         0     31701         1         0     31704         1         0
     31707         1         0     31711         1         0     31714         1         0
     31717         1         0     31720         1         0     31723         1         0
     31726         1         0     31729         1         0     31732         1         0
     31735         1         0     31738         1         0     31741         1         0
     31744         1         0     31747         1         0     31750         1         0
     31754         2         0     31770         2         0     31781         1         0
     31789         1         0     31798         1         0     31801         1         0
     31804         1         0     31807         1         0     31810         1         0
     31813         1         0     31816         1         0     31818         1         0
     31820         1         0     31823         1         0     31826         1         0
     31829         1         0     31832         1         0     31835         1         0
     31838         1         0     31841         1         0     31845         1         0
     31848         1         0     31851         1         0     31854         1         0
     31857         1         0     31860         1         0     31863         1         0
     31866         1         0     31869         1         0     31872         1         0
     31875         1         0     31878         1         0     31881         1         0
     31884         1         0     31888         2         0     31904         2         0
     31915         1         0     31923         1         0     31932         1         0
     31935         1         0     31938         1         0     31941         1         0
     31944         1         0     31947         1         0     31950         1         0
     31952         1         0     31954         1         0     31957         1         0
     31960         1         0     31963         1         0     31966         1         0
     31969         1         0     31972         1         0     31975         1         0
     31979         1         0     31982         1         0     31985         1         0
     31988         1         0     31991         1         0     31994         1         0
     31997         1         0     32000         1         0     32003         1         0
     32006         1         0     32009         1         0     32012         1         0
     32015         1         0     32018         1         0     32022         2         0
     32029         2         0     32040         1         0     32048         1         0
     32057         1         0     32060         1         0     32063         1         0
     32066         1         0     32069         1         0     32072         1         0
     32075         1         0     32077         1         0     32079         1         0
     32082         1         0     32085         1         0     32088         1         0
     32091         1         0     32094         1         0     32097         1         0
     32100         1         0     32104         1         0     32107         1         0
     32110         1         0     32113         1         0     32116         1         0
     32119         1         0     32122         1         0     32125         1         0
     32128         1         0     32131         1         0     32134         1         0
     32137         1         0     32140         1         0     32143         1         0
     32147         2         0     32163         2         0     32174         1         0
     32182         1         0     32191         1         0     32194         1         0
     32197         1         0     32200         1         0     32203         1         0
     32206         1         0     32209         1         0     32211         1         0
     32213         1         0     32216         1         0     32219         1         0
     32222         1         0     32225         1         0     32228         1         0
     32231         1         0     32234         1         0     32238         1         0
     32241         1         0     32244         1         0     32247         1         0
     32250         1         0     32253         1         0     32256         1         0
     32259         1         0     32262         1         0     32265         1         0
     32268         1         0     32271         1         0     32274         1         0
     32277         1         0     32281         2         0     32288         2         0
     32299         1         0     32307         1         0     32316         1         0
     32319         1         0     32322         1         0     32325         1         0
     32328         1         0     32331         1         0     32334         1         0
     32336         1         0     32338         1         0     32341         1         0
     32344         1         0     32347         1         0     32350         1         0
     32353         1         0     32356         1         0     32359         1         0
     32363         1         0     32366         1         0     32369         1         0
     32372         1         0     32375         1         0     32378         1         0
     32381         1         0     32384         1         0     32387         1         0
     32390         1         0     32393         1         0     32396         1         0
     32399         1         0     32402         1         0     32406         2         0
     32413         2         0     32424         1         0     32432         1         0
     32441         1         0     32444         1         0     32447         1         0
     32450         1         0     32453         1         0     32456         1         0
     32459         1         0     32461         1         0     32463         1         0
     32466         1         0     32469         1         0     32472         1         0
     32475         1         0     32478         1         0     32481         1         0
     32484         1         0     32488         1         0     32491         1         0
     32494         1         0     32497         1         0     32500         1         0
     32503         1         0     32506         1         0     32509         1         0
     32512         1         0     32515         1         0     32518         1         0
     32521         1         0     32524         1         0     32527         1         0
     32531         2         0     32538         2         0     32549         1         0
     32557         1         0     32566         1         0     32569         1         0
     32572         1         0     32575         1         0     32578         1         0
     32581         1         0     32584         1         0     32586         1         0
     32588         1         0     32591         1         0     32594         1         0
     32597         1         0     32600         1         0     32603         1         0
     32606         1         0     32609         1         0     32613         1         0
     32616         1         0     32619         1         0     32622         1         0
     32625         1         0     32628         1         0     32631         1         0
     32634         1         0     32637         1         0     32640         1         0
     32643         1         0     32646         1         0     32649         1         0
     32652         1         0     32656         2         0     32672         2         0
     32683         1         0     32691         1         0     32700         1         0
     32703         1         0     32706         1         0     32709         1         0
     32712         1         0     32715         1         0     32718         1         0
     32720         1         0     32722         1         0     32725         1         0
     32728         1         0     32731         1         0     32734         1         0
     32737         1         0     32740         1         0     32743         1         0
     32747         1         0     32750         1         0     32753         1         0
     32756         1         0     32759         1         0     32762         1         0
     32765         1         0     32768         1         0     32771         1         0
     32774         1         0     32777         1         0     32780         1         0
     32783         1         0     32786         1         0     32790         2         0
     32797         2         0     32808         1         0     32816         1         0
     32825         1         0     32828         1         0     32831         1         0
     32834         1         0     32837         1         0     32840         1         0
     32843         1         0     32845         1         0     32847         1         0
     32850         1         0     32853         1         0     32856         1         0
     32859         1         0     32862         1         0     32865         1         0
     32868         1         0     32872         1         0     32875         1         0
     32878         1         0     32881         1         0     32884         1         0
     32887         1         0     32890         1         0     32893         1         0
     32896         1         0     32899         1         0     32902         1         0
     32905         1         0     32908         1         0     32911         1         0
     32915         2         0     32931         2         0     32942         1         0
     32950         1         0     32959         1         0     32962         1         0
     32965         1         0     32968         1         0     32971         1         0
     32974         1         0     32977         1         0     32979         1         0
     32981         1         0     32984         1         0     32987         1         0
     32990         1         0     32993         1         0     32996         1         0
     32999         1         0     33002         1         0     33006         1         0
     33009         1         0     33012         1         0     33015         1         0
     33018         1         0     33021         1         0     33024         1         0
     33027         1         0     33030         1         0     33033         1         0
     33036         1         0     33039         1         0     33042         1         0
     33045         1         0     33049         2         0     33056         2         0
     33067         1         0     33075         1         0     33084         1         0
     33087         1         0     33090         1         0     33093         1         0
     33096         1         0     33099         1         0     33102         1         0
     33104         1         0     33106         1         0     33109         1         0
     33112         1         0     33115         1         0     33118         1         0
     33121         1         0     33124         1         0     33127         1         0
     33131         1         0     33134         1         0     33137         1         0
     33140         1         0     33143         1         0     33146         1         0
     33149         1         0     33152         1         0     33155         1         0
     33158         1         0     33161         1         0     33164         1         0
     33167         1         0     33170         1         0     33174         2         0
     33190         2         0     33201         1         0     33209         1         0
     33218         1         0     33221         1         0     33224         1         0
     33227         1         0     33230         1         0     33233         1         0
     33236         1         0     33238         1         0     33240         1         0
     33243         1         0     33246         1         0     33249         1         0
     33252         1         0     33255         1         0     33258         1         0
     33261         1         0     33265         1         0     33268         1         0
     33271         1         0     33274         1         0     33277         1         0
     33280         1         0     33283         1         0     33286         1         0
     33289         1         0     33292         1         0     33295         1         0
     33298         1         0     33301         1         0     33304         1         0
     33308         2         0     33315         2         0     33326         1         0
     33334         1         0     33343         1         0     33346         1         0
     33349         1         0     33352         1         0     33355         1         0
     33358         1         0     33361         1         0     33363         1         0
     33365         1         0     33368         1         0     33371         1         0
     33374         1         0     33377         1         0     33380         1         0
     33383         1         0     33386         1         0     33390         1         0
     33393         1         0     33396         1         0     33399         1         0
     33402         1         0     33405         1         0     33408         1         0
     33411         1         0     33414         1         0     33417         1         0
     33420         1         0     33423         1         0     33426         1         0
     33429         1         0     33433         2         0     33440         2         0
     33451         1         0     33459         1         0     33468         1         0
     33471         1         0     33474         1         0     33477         1         0
     33480         1         0     33483         1         0     33486         1         0
     33488         1         0     33490         1         0     33493         1         0
     33496         1         0     33499         1         0     33502         1         0
     33505         1         0     33508         1         0     33511         1         0
     33515         1         0     33518         1         0     33521         1         0
     33524         1         0     33527         1         0     33530         1         0
     33533         1         0     33536         1         0     33539         1         0
     33542         1         0     33545         1         0     33548         1         0
     33551         1         0     33554         1         0     33558         2         0
     33565         2         0     33576         1         0     33584         1         0
     33593         1         0     33596         1         0     33599         1         0
     33602         1         0     33605         1         0     33608         1         0
     33611         1         0     33613         1         0     33615         1         0
     33618         1         0     33621         1         0     33624         1         0
     33627         1         0     33630         1         0     33633         1         0
     33636         1         0     33640         1         0     33643         1         0
     33646         1         0     33649         1         0     33652         1         0
     33655         1         0     33658         1         0     33661         1         0
     33664         1         0     33667         1         0     33670         1         0
     33673         1         0     33676         1         0     33679         1         0
     33683         2         0     33699         2         0     33710         1         0
     33718         1         0     33727         1         0     33730         1         0
     33733         1         0     33736         1         0     33739         1         0
     33742         1         0     33745         1         0     33747         1         0
     33749         1         0     33752         1         0     33755         1         0
     33758         1         0     33761         1         0     33764         1         0
     33767         1         0     33770         1         0     33774         1         0
     33777         1         0     33780         1         0     33783         1         0
     33786         1         0     33789         1         0     33792         1         0
     33795         1         0     33798         1         0     33801         1         0
     33804         1         0     33807         1         0     33810         1         0
     33813         1         0     33817         2         0     33833         2         0
     33844         1         0     33852         1         0     33861         1         0
     33864         1         0     33867         1         0     33870         1         0
     33873         1         0     33876         1         0     33879         1         0
     33881         1         0     33883         1         0     33886         1         0
     33889         1         0     33892         1         0     33895         1         0
     33898         1         0     33901         1         0     33904         1         0
     33908         1         0     33911         1         0     33914         1         0
     33917         1         0     33920         1         0     33923         1         0
     33926         1         0     33929         1         0     33932         1         0
     33935         1         0     33938         1         0     33941         1         0
     33944         1         0     33947         1         0     33951         2         0
     33958         2         0     33969         1         0     33977         1         0
     33986         1         0     33989         1         0     33992         1         0
     33995         1         0     33998         1         0     34001         1         0
     34004         1         0     34006         1         0     34008         1         0
     34011         1         0     34014         1         0     34017         1         0
     34020         1         0     34023         1         0     34026         1         0
     34029         1         0     34033         1         0     34036         1         0
     34039         1         0     34042         1         0     34045         1         0
     34048         1         0     34051         1         0     34054         1         0
     34057         1         0     34060         1         0     34063         1         0
     34066         1         0     34069         1         0     34072         1         0
     34076         2         0     34083         2         0     34094         1         0
     34102         1         0     34111         1         0     34114         1         0
     34117         1         0     34120         1         0     34123         1         0
     34126         1         0     34129         1         0     34131         1         0
     34133         1         0     34136         1         0     34139         1         0
     34142         1         0     34145         1         0     34148         1         0
     34151         1         0     34154         1         0     34158         1         0
     34161         1         0     34164         1         0     34167         1         0
     34170         1         0     34173         1         0     34176         1         0
     34179         1         0     34182         1         0     34185         1         0
     34188         1         0     34191         1         0     34194         1         0
     34197         1         0     34201         2         0     34217         2         0
     34228         1         0     34236         1         0     34245         1         0
     34248         1         0     34251         1         0     34254         1         0
     34257         1         0     34260         1         0     34263         1         0
     34265         1         0     34267         1         0     34270         1         0
     34273         1         0     34276         1         0     34279         1         0
     34282         1         0     34285         1         0     34288         1         0
     34292         1         0     34295         1         0     34298         1         0
     34301         1         0     34304         1         0     34307         1         0
     34310         1         0     34313         1         0     34316         1         0
     34319         1         0     34322         1         0     34325         1         0
     34328         1         0     34331         1         0     34335         2         0
     34342         2         0     34353         1         0     34361         1         0
     34370         1         0     34373         1         0     34376         1         0
     34379         1         0     34382         1         0     34385         1         0
     34388         1         0     34390         1         0     34392         1         0
     34395         1         0     34398         1         0     34401         1         0
     34404         1         0     34407         1         0     34410         1         0
     34413         1         0     34417         1         0     34420         1         0
     34423         1         0     34426         1         0     34429         1         0
     34432         1         0     34435         1         0     34438         1         0
     34441         1         0     34444         1         0     34447         1         0
     34450         1         0     34453         1         0     34456         1         0
     34460         2         0     34476         2         0     34487         1         0
     34495         1         0     34504         1         0     34507         1         0
     34510         1         0     34513         1         0     34516         1         0
     34519         1         0     34522         1         0     34524         1         0
     34526         1         0     34529         1         0     34532         1         0
     34535         1         0     34538         1         0     34541         1         0
     34544         1         0     34547         1         0     34551         1         0
     34554         1         0     34557         1         0     34560         1         0
     34563         1         0     34566         1         0     34569         1         0
     34572         1         0     34575         1         0     34578         1         0
     34581         1         0     34584         1         0     34587         1         0
     34590         1         0     34594         2         0     34610         2         0
     34621         1         0     34629         1         0     34638         1         0
     34641         1         0     34644         1         0     34647         1         0
     34650         1         0     34653         1         0     34656         1         0
     34658         1         0     34660         1         0     34663         1         0
     34666         1         0     34669         1         0     34672         1         0
     34675         1         0     34678         1         0     34681         1         0
     34685         1         0     34688         1         0     34691         1         0
     34694         1         0     34697         1         0     34700         1         0
     34703         1         0     34706         1         0     34709         1         0
     34712         1         0     34715         1         0     34718         1         0
     34721         1         0     34724         1         0     34728         2         0
     34744         2         0     34755         1         0     34763         1         0
     34772         1         0     34775         1         0     34778         1         0
     34781         1         0     34784         1         0     34787         1         0
     34790         1         0     34792         1         0     34794         1         0
     34797         1         0     34800         1         0     34803         1         0
     34806         1         0     34809         1         0     34812         1         0
     34815         1         0     34819         1         0     34822         1         0
     34825         1         0     34828         1         0     34831         1         0
     34834         1         0     34837         1         0     34840         1         0
     34843         1         0     34846         1         0     34849         1         0
     34852         1         0     34855         1         0     34858         1         0
     34862         2         0     34878         2         0     34889         1         0
     34897         1         0     34906         1         0     34909         1         0
     34912         1         0     34915         1         0     34918         1         0
     34921         1         0     34924         1         0     34926         1         0
     34928         1         0     34931         1         0     34934         1         0
     34937         1         0     34940         1         0     34943         1         0
     34946         1         0     34949         1         0     34953         1         0
     34956         1         0     34959         1         0     34962         1         0
     34965         1         0     34968         1         0     34971         1         0
     34974         1         0     34977         1         0     34980         1         0
     34983         1         0     34986         1         0     34989         1         0
     34992         1         0     34996         2         0     35003         2         0
     35014         1         0     35022         1         0     35031         1         0
     35034         1         0     35037         1         0     35040         1         0
     35043         1         0     35046         1         0     35049         1         0
     35051         1         0     35053         1         0     35056         1         0
     35059         1         0     35062         1         0     35065         1         0
     35068         1         0     35071         1         0     35074         1         0
     35078         1         0     35081         1         0     35084         1         0
     35087         1         0     35090         1         0     35093         1         0
     35096         1         0     35099         1         0     35102         1         0
     35105         1         0     35108         1         0     35111         1         0
     35114         1         0     35117         1         0     35121         2         0
     35128         2         0     35139         1         0     35147         1         0
     35156         1         0     35159         1         0     35162         1         0
     35165         1         0     35168         1         0     35171         1         0
     35174         1         0     35176         1         0     35178         1         0
     35181         1         0     35184         1         0     35187         1         0
     35190         1         0     35193         1         0     35196         1         0
     35199         1         0     35203         1         0     35206         1         0
     35209         1         0     35212         1         0     35215         1         0
     35218         1         0     35221         1         0     35224         1         0
     35227         1         0     35230         1         0     35233         1         0
     35236         1         0     35239         1         0     35242         1         0
     35246         2         0     35253         2         0     35264         1         0
     35272         1         0     35281         1         0     35284         1         0
     35287         1         0     35290         1         0     35293         1         0
     35296         1         0     35299         1         0     35301         1         0
     35303         1         0     35306         1         0     35309         1         0
     35312         1         0     35315         1         0     35318         1         0
     35321         1         0     35324         1         0     35328         1         0
     35331         1         0     35334         1         0     35337         1         0
     35340         1         0     35343         1         0     35346         1         0
     35349         1         0     35352         1         0     35355         1         0
     35358         1         0     35361         1         0     35364         1         0
     35367         1         0     35371         2         0     35378         2         0
     35389         1         0     35397         1         0     35406         1         0
     35409         1         0     35412         1         0     35415         1         0
     35418         1         0     35421         1         0     35424         1         0
     35426         1         0     35428         1         0     35431         1         0
     35434         1         0     35437         1         0     35440         1         0
     35443         1         0     35446         1         0     35449         1         0
     35453         1         0     35456         1         0     35459         1         0
     35462         1         0     35465         1         0     35468         1         0
     35471         1         0     35474         1         0     35477         1         0
     35480         1         0     35483         1         0     35486         1         0
     35489         1         0     35492         1         0     35496         2         0
     35512         2         0     35523         1         0     35531         1         0
     35540         1         0     35543         1         0     35546         1         0
     35549         1         0     35552         1         0     35555         1         0
     35558         1         0     35560         1         0     35562         1         0
     35565         1         0     35568         1         0     35571         1         0
     35574         1         0     35577         1         0     35580         1         0
     35583         1         0     35587         1         0     35590         1         0
     35593         1         0     35596         1         0     35599         1         0
     35602         1         0     35605         1         0     35608         1         0
     35611         1         0     35614         1         0     35617         1         0
     35620         1         0     35623         1         0     35626         1         0
     35630         2         0     35637         2         0     35648         1         0
     35656         1         0     35665         1         0     35668         1         0
     35671         1         0     35674         1         0     35677         1         0
     35680         1         0     35683         1         0     35685         1         0
     35687         1         0     35690         1         0     35693         1         0
     35696         1         0     35699         1         0     35702         1         0
     35705         1         0     35708         1         0     35712         1         0
     35715         1         0     35718         1         0     35721         1         0
     35724         1         0     35727         1         0     35730         1         0
     35733         1         0     35736         1         0     35739         1         0
     35742         1         0     35745         1         0     35748         1         0
     35751         1         0     35755         2         0     35771         2         0
     35782         1         0     35790         1         0     35799         1         0
     35802         1         0     35805         1         0     35808         1         0
     35811         1         0     35814         1         0     35817         1         0
     35819         1         0     35821         1         0     35824         1         0
     35827         1         0     35830         1         0     35833         1         0
     35836         1         0     35839         1         0     35842         1         0
     35846         1         0     35849         1         0     35852         1         0
     35855         1         0     35858         1         0     35861         1         0
     35864         1         0     35867         1         0     35870         1         0
     35873         1         0     35876         1         0     35879         1         0
     35882         1         0     35885         1         0     35889         2         0
     35896         2         0     35907         1         0     35915         1         0
     35924         1         0     35927         1         0     35930         1         0
     35933         1         0     35936         1         0     35939         1         0
     35942         1         0     35944         1         0     35946         1         0
     35949         1         0     35952         1         0     35955         1         0
     35958         1         0     35961         1         0     35964         1         0
     35967         1         0     35971         1         0     35974         1         0
     35977         1         0     35980         1         0     35983         1         0
     35986         1         0     35989         1         0     35992         1         0
     35995         1         0     35998         1         0     36001         1         0
     36004         1         0     36007         1         0     36010         1         0
     36014         2         0     36021         2         0     36032         1         0
     36040         1         0     36049         1         0     36052         1         0
     36055         1         0     36058         1         0     36061         1         0
     36064         1         0     36067         1         0     36069         1         0
     36071         1         0     36074         1         0     36077         1         0
     36080         1         0     36083         1         0     36086         1         0
     36089         1         0     36092         1         0     36096         1         0
     36099         1         0     36102         1         0     36105         1         0
     36108         1         0     36111         1         0     36114         1         0
     36117         1         0     36120         1         0     36123         1         0
     36126         1         0     36129         1         0     36132         1         0
     36135         1         0     36139         2         0     36146         2         0
     36157         1         0     36165         1         0     36174         1         0
     36177         1         0     36180         1         0     36183         1         0
     36186         1         0     36189         1         0     36192         1         0
     36194         1         0     36196         1         0     36199         1         0
     36202         1         0     36205         1         0     36208         1         0
     36211         1         0     36214         1         0     36217         1         0
     36221         1         0     36224         1         0     36227         1         0
     36230         1         0     36233         1         0     36236         1         0
     36239         1         0     36242         1         0     36245         1         0
     36248         1         0     36251         1         0     36254         1         0
     36257         1         0     36260         1         0     36264         2         0
     36271         2         0     36282         1         0     36290         1         0
     36299         1         0     36302         1         0     36305         1         0
     36308         1         0     36311         1         0     36314         1         0
     36317         1         0     36319         1         0     36321         1         0
     36324         1         0     36327         1         0     36330         1         0
     36333         1         0     36336         1         0     36339         1         0
     36342         1         0     36346         1         0     36349         1         0
     36352         1         0     36355         1         0     36358         1         0
     36361         1         0     36364         1         0     36367         1         0
     36370         1         0     36373         1         0     36376         1         0
     36379         1         0     36382         1         0     36385         1         0
     36389         2         0     36396         2         0     36407         1         0
     36415         1         0     36424         1         0     36427         1         0
     36430         1         0     36433         1         0     36436         1         0
     36439         1         0     36442         1         0     36444         1         0
     36446         1         0     36449         1         0     36452         1         0
     36455         1         0     36458         1         0     36461         1         0
     36464         1         0     36467         1         0     36471         1         0
     36474         1         0     36477         1         0     36480         1         0
     36483         1         0     36486         1         0     36489         1         0
     36492         1         0     36495         1         0     36498         1         0
     36501         1         0     36504         1         0     36507         1         0
     36510         1         0     36514         2         0     36530         2         0
     36541         1         0     36549         1         0     36558         1         0
     36561         1         0     36564         1         0     36567         1         0
     36570         1         0     36573         1         0     36576         1         0
     36578         1         0     36580         1         0     36583         1         0
     36586         1         0     36589         1         0     36592         1         0
     36595         1         0     36598         1         0     36601         1         0
     36605         1         0     36608         1         0     36611         1         0
     36614         1         0     36617         1         0     36620         1         0
     36623         1         0     36626         1         0     36629         1         0
     36632         1         0     36635         1         0     36638         1         0
     36641         1         0     36644         1         0     36648         2         0
     36655         2         0     36666         1         0     36674         1         0
     36683         1         0     36686         1         0     36689         1         0
     36692         1         0     36695         1         0     36698         1         0
     36701         1         0     36703         1         0     36705         1         0
     36708         1         0     36711         1         0     36714         1         0
     36717         1         0     36720         1         0     36723         1         0
     36726         1         0     36730         1         0     36733         1         0
     36736         1         0     36739         1         0     36742         1         0
     36745         1         0     36748         1         0     36751         1         0
     36754         1         0     36757         1         0     36760         1         0
     36763         1         0     36766         1         0     36769         1         0
     36773         2         0     36780         2         0     36791         1         0
     36799         1         0     36808         1         0     36811         1         0
     36814         1         0     36817         1         0     36820         1         0
     36823         1         0     36826         1         0     36828         1         0
     36830         1         0     36833         1         0     36836         1         0
     36839         1         0     36842         1         0     36845         1         0
     36848         1         0     36851         1         0     36855         1         0
     36858         1         0     36861         1         0     36864         1         0
     36867         1         0     36870         1         0     36873         1         0
     36876         1         0     36879         1         0     36882         1         0
     36885         1         0     36888         1         0     36891         1         0
     36894         1         0     36898         2         0     36905         2         0
     36916         1         0     36924         1         0     36933         1         0
     36936         1         0     36939         1         0     36942         1         0
     36945         1         0     36948         1         0     36951         1         0
     36953         1         0     36955         1         0     36958         1         0
     36961         1         0     36964         1         0     36967         1         0
     36970         1         0     36973         1         0     36976         1         0
     36980         1         0     36983         1         0     36986         1         0
     36989         1         0     36992         1         0     36995         1         0
     36998         1         0     37001         1         0     37004         1         0
     37007         1         0     37010         1         0     37013         1         0
     37016         1         0     37019         1         0     37023         2         0
     37030         2         0     37041         1         0     37049         1         0
     37058         1         0     37061         1         0     37064         1         0
     37067         1         0     37070         1         0     37073         1         0
     37076         1         0     37078         1         0     37080         1         0
     37083         1         0     37086         1         0     37089         1         0
     37092         1         0     37095         1         0     37098         1         0
     37101         1         0     37105         1         0     37108         1         0
     37111         1         0     37114         1         0     37117         1         0
     37120         1         0     37123         1         0     37126         1         0
     37129         1         0     37132         1         0     37135         1         0
     37138         1         0     37141         1         0     37144         1         0
     37148         2         0     37164         2         0     37175         1         0
     37183         1         0     37192         1         0     37195         1         0
     37198         1         0     37201         1         0     37204         1         0
     37207         1         0     37210         1         0     37212         1         0
     37214         1         0     37217         1         0     37220         1         0
     37223         1         0     37226         1         0     37229         1         0
     37232         1         0     37235         1         0     37239         1         0
     37242         1         0     37245         1         0     37248         1         0
     37251         1         0     37254         1         0     37257         1         0
     37260         1         0     37263         1         0     37266         1         0
     37269         1         0     37272         1         0     37275         1         0
     37278         1         0     37282         2         0     37289         2         0
     37300         1         0     37308         1         0     37317         1         0
     37320         1         0     37323         1         0     37326         1         0
     37329         1         0     37332         1         0     37335         1         0
     37337         1         0     37339         1         0     37342         1         0
     37345         1         0     37348         1         0     37351         1         0
     37354         1         0     37357         1         0     37360         1         0
     37364         1         0     37367         1         0     37370         1         0
     37373         1         0     37376         1         0     37379         1         0
     37382         1         0     37385         1         0     37388         1         0
     37391         1         0     37394         1         0     37397         1         0
     37400         1         0     37403         1         0     37407         2         0
     37423         2         0     37434         1         0     37442         1         0
     37451         1         0     37454         1         0     37457         1         0
     37460         1         0     37463         1         0     37466         1         0
     37469         1         0     37471         1         0     37473         1         0
     37476         1         0     37479         1         0     37482         1         0
     37485         1         0     37488         1         0     37491         1         0
     37494         1         0     37498         1         0     37501         1         0
     37504         1         0     37507         1         0     37510         1         0
     37513         1         0     37516         1         0     37519         1         0
     37522         1         0     37525         1         0     37528         1         0
     37531         1         0     37534         1         0     37537         1         0
     37541         2         0     37557         2         0     37568         1         0
     37576         1         0     37585         1         0     37588         1         0
     37591         1         0     37594         1         0     37597         1         0
     37600         1         0     37603         1         0     37605         1         0
     37607         1         0     37610         1         0     37613         1         0
     37616         1         0     37619         1         0     37622         1         0
     37625         1         0     37628         1         0     37632         1         0
     37635         1         0     37638         1         0     37641         1         0
     37644         1         0     37647         1         0     37650         1         0
     37653         1         0     37656         1         0     37659         1         0
     37662         1         0     37665         1         0     37668         1         0
     37671         1         0     37675         2         0     37691         2         0
     37702         1         0     37710         1         0     37719         1         0
     37722         1         0     37725         1         0     37728         1         0
     37731         1         0     37734         1         0     37737         1         0
     37739         1         0     37741         1         0     37744         1         0
     37747         1         0     37750         1         0     37753         1         0
     37756         1         0     37759         1         0     37762         1         0
     37766         1         0     37769         1         0     37772         1         0
     37775         1         0     37778         1         0     37781         1         0
     37784         1         0     37787         1         0     37790         1         0
     37793         1         0     37796         1         0     37799         1         0
     37802         1         0     37805         1         0     37809         2         0
     37825         2         0     37836         1         0     37844         1         0
     37853         1         0     37856         1         0     37859         1         0
     37862         1         0     37865         1         0     37868         1         0
     37871         1         0     37873         1         0     37875         1         0
     37878         1         0     37881         1         0     37884         1         0
     37887         1         0     37890         1         0     37893         1         0
     37896         1         0     37900         1         0     37903         1         0
     37906         1         0     37909         1         0     37912         1         0
     37915         1         0     37918         1         0     37921         1         0
     37924         1         0     37927         1         0     37930         1         0
     37933         1         0     37936         1         0     37939         1         0
     37943         2         0     37959         2         0     37970         1         0
     37978         1         0     37987         1         0     37990         1         0
     37993         1         0     37996         1         0     37999         1         0
     38002         1         0     38005         1         0     38007         1         0
     38009         1         0     38012         1         0     38015         1         0
     38018         1         0     38021         1         0     38024         1         0
     38027         1         0     38030         1         0     38034         1         0
     38037         1         0     38040         1         0     38043         1         0
     38046         1         0     38049         1         0     38052         1         0
     38055         1         0     38058         1         0     38061         1         0
     38064         1         0     38067         1         0     38070         1         0
     38073         1         0     38077         2         0     38084         2         0
     38095         1         0     38103         1         0     38112         1         0
     38115         1         0     38118         1         0     38121         1         0
     38124         1         0     38127         1         0     38130         1         0
     38132         1         0     38134         1         0     38137         1         0
     38140         1         0     38143         1         0     38146         1         0
     38149         1         0     38152         1         0     38155         1         0
     38159         1         0     38162         1         0     38165         1         0
     38168         1         0     38171         1         0     38174         1         0
     38177         1         0     38180         1         0     38183         1         0
     38186         1         0     38189         1         0     38192         1         0
     38195         1         0     38198         1         0     38202         2         0
     38209         2         0     38220         1         0     38228         1         0
     38237         1         0     38240         1         0     38243         1         0
     38246         1         0     38249         1         0     38252         1         0
     38255         1         0     38257         1         0     38259         1         0
     38262         1         0     38265         1         0     38268         1         0
     38271         1         0     38274         1         0     38277         1         0
     38280         1         0     38284         1         0     38287         1         0
     38290         1         0     38293         1         0     38296         1         0
     38299         1         0     38302         1         0     38305         1         0
     38308         1         0     38311         1         0     38314         1         0
     38317         1         0     38320         1         0     38323         1         0
     38327         2         0     38343         2         0     38354         1         0
     38362         1         0     38371         1         0     38374         1         0
     38377         1         0     38380         1         0     38383         1         0
     38386         1         0     38389         1         0     38391         1         0
     38393         1         0     38396         1         0     38399         1         0
     38402         1         0     38405         1         0     38408         1         0
     38411         1         0     38414         1         0     38418         1         0
     38421         1         0     38424         1         0     38427         1         0
     38430         1         0     38433         1         0     38436         1         0
     38439         1         0     38442         1         0     38445         1         0
     38448         1         0     38451         1         0     38454         1         0
     38457         1         0     38461         2         0     38477         2         0
     38488         1         0     38496         1         0     38505         1         0
     38508         1         0     38511         1         0     38514         1         0
     38517         1         0     38520         1         0     38523         1         0
     38525         1         0     38527         1         0     38530         1         0
     38533         1         0     38536         1         0     38539         1         0
     38542         1         0     38545         1         0     38548         1         0
     38552         1         0     38555         1         0     38558         1         0
     38561         1         0     38564         1         0     38567         1         0
     38570         1         0     38573         1         0     38576         1         0
     38579         1         0     38582         1         0     38585         1         0
     38588         1         0     38591         1         0     38595         2         0
     38611         2         0     38622         1         0     38630         1         0
     38639         1         0     38642         1         0     38645         1         0
     38648         1         0     38651         1         0     38654         1         0
     38657         1         0     38659         1         0     38661         1         0
     38664         1         0     38667         1         0     38670         1         0
     38673         1         0     38676         1         0     38679         1         0
     38682         1         0     38686         1         0     38689         1         0
     38692         1         0     38695         1         0     38698         1         0
     38701         1         0     38704         1         0     38707         1         0
     38710         1         0     38713         1         0     38716         1         0
     38719         1         0     38722         1         0     38725         1         0
     38729         2         0     38745         2         0     38756         1         0
     38764         1         0     38773         1         0     38776         1         0
     38779         1         0     38782         1         0     38785         1         0
     38788         1         0     38791         1         0     38793         1         0
     38795         1         0     38798         1         0     38801         1         0
     38804         1         0     38807         1         0     38810         1         0
     38813         1         0     38816         1         0     38820         1         0
     38823         1         0     38826         1         0     38829         1         0
     38832         1         0     38835         1         0     38838         1         0
     38841         1         0     38844         1         0     38847         1         0
     38850         1         0     38853         1         0     38856         1         0
     38859         1         0     38863         2         0     38870         2         0
     38881         1         0     38889         1         0     38898         1         0
     38901         1         0     38904         1         0     38907         1         0
     38910         1         0     38913         1         0     38916         1         0
     38918         1         0     38920         1         0     38923         1         0
     38926         1         0     38929         1         0     38932         1         0
     38935         1         0     38938         1         0     38941         1         0
     38945         1         0     38948         1         0     38951         1         0
     38954         1         0     38957         1         0     38960         1         0
     38963         1         0     38966         1         0     38969         1         0
     38972         1         0     38975         1         0     38978         1         0
     38981         1         0     38984         1         0     38988         2         0
     39004         2         0     39015         1         0     39023         1         0
     39032         1         0     39035         1         0     39038         1         0
     39041         1         0     39044         1         0     39047         1         0
     39050         1         0     39052         1         0     39054         1         0
     39057         1         0     39060         1         0     39063         1         0
     39066         1         0     39069         1         0     39072         1         0
     39075         1         0     39079         1         0     39082         1         0
     39085         1         0     39088         1         0     39091         1         0
     39094         1         0     39097         1         0     39100         1         0
     39103         1         0     39106         1         0     39109         1         0
     39112         1         0     39115         1         0     39118         1         0
     39122         2         0     39129         2         0     39140         1         0
     39148         1         0     39157         1         0     39160         1         0
     39163         1         0     39166         1         0     39169         1         0
     39172         1         0     39175         1         0     39177         1         0
     39179         1         0     39182         1         0     39185         1         0
     39188         1         0     39191         1         0     39194         1         0
     39197         1         0     39200         1         0     39204         1         0
     39207         1         0     39210         1         0     39213         1         0
     39216         1         0     39219         1         0     39222         1         0
     39225         1         0     39228         1         0     39231         1         0
     39234         1         0     39237         1         0     39240         1         0
     39243         1         0     39247         2         0     39254         2         0
     39265         1         0     39273         1         0     39282         1         0
     39285         1         0     39288         1         0     39291         1         0
     39294         1         0     39297         1         0     39300         1         0
     39302         1         0     39304         1         0     39307         1         0
     39310         1         0     39313         1         0     39316         1         0
     39319         1         0     39322         1         0     39325         1         0
     39329         1         0     39332         1         0     39335         1         0
     39338         1         0     39341         1         0     39344         1         0
     39347         1         0     39350         1         0     39353         1         0
     39356         1         0     39359         1         0     39362         1         0
     39365         1         0     39368         1         0     39372         2         0
     39379         2         0     39390         1         0     39398         1         0
     39407         1         0     39410         1         0     39413         1         0
     39416         1         0     39419         1         0     39422         1         0
     39425         1         0     39427         1         0     39429         1         0
     39432         1         0     39435         1         0     39438         1         0
     39441         1         0     39444         1         0     39447         1         0
     39450         1         0     39454         1         0     39457         1         0
     39460         1         0     39463         1         0     39466         1         0
     39469         1         0     39472         1         0     39475         1         0
     39478         1         0     39481         1         0     39484         1         0
     39487         1         0     39490         1         0     39493         1         0
     39497         2         0     39504         2         0     39515         1         0
     39523         1         0     39532         1         0     39535         1         0
     39538         1         0     39541         1         0     39544         1         0
     39547         1         0     39550         1         0     39552         1         0
     39554         1         0     39557         1         0     39560         1         0
     39563         1         0     39566         1         0     39569         1         0
     39572         1         0     39575         1         0     39579         1         0
     39582         1         0     39585         1         0     39588         1         0
     39591         1         0     39594         1         0     39597         1         0
     39600         1         0     39603         1         0     39606         1         0
     39609         1         0     39612         1         0     39615         1         0
     39618         1         0     39622         2         0     39638         2         0
     39649         1         0     39657         1         0     39666         1         0
     39669         1         0     39672         1         0     39675         1         0
     39678         1         0     39681         1         0     39684         1         0
     39686         1         0     39688         1         0     39691         1         0
     39694         1         0     39697         1         0     39700         1         0
     39703         1         0     39706         1         0     39709         1         0
     39713         1         0     39716         1         0     39719         1         0
     39722         1         0     39725         1         0     39728         1         0
     39731         1         0     39734         1         0     39737         1         0
     39740         1         0     39743         1         0     39746         1         0
     39749         1         0     39752         1         0     39756         2         0
     39772         2         0     39783         1         0     39791         1         0
     39800         1         0     39803         1         0     39806         1         0
     39809         1         0     39812         1         0     39815         1         0
     39818         1         0     39820         1         0     39822         1         0
     39825         1         0     39828         1         0     39831         1         0
     39834         1         0     39837         1         0     39840         1         0
     39843         1         0     39847         1         0     39850         1         0
     39853         1         0     39856         1         0     39859         1         0
     39862         1         0     39865         1         0     39868         1         0
     39871         1         0     39874         1         0     39877         1         0
     39880         1         0     39883         1         0     39886         1         0
     39890         2         0     39906         2         0     39917         1         0
     39925         1         0     39934         1         0     39937         1         0
     39940         1         0     39943         1         0     39946         1         0
     39949         1         0     39952         1         0     39954         1         0
     39956         1         0     39959         1         0     39962         1         0
     39965         1         0     39968         1         0     39971         1         0
     39974         1         0     39977         1         0     39981         1         0
     39984         1         0     39987         1         0     39990         1         0
     39993         1         0     39996         1         0     39999         1         0
     40002         1         0     40005         1         0     40008         1         0
     40011         1         0     40014         1         0     40017         1         0
     40020         1         0     40024         2         0     40040         2         0
     40051         1         0     40059         1         0     40068         1         0
     40071         1         0     40074         1         0     40077         1         0
     40080         1         0     40083         1         0     40086         1         0
     40088         1         0     40090         1         0     40093         1         0
     40096         1         0     40099         1         0     40102         1         0
     40105         1         0     40108         1         0     40111         1         0
     40115         1         0     40118         1         0     40121         1         0
     40124         1         0     40127         1         0     40130         1         0
     40133         1         0     40136         1         0     40139         1         0
     40142         1         0     40145         1         0     40148         1         0
     40151         1         0     40154         1         0     40158         2         0
     40165         2         0     40176         1         0     40184         1         0
     40193         1         0     40196         1         0     40199         1         0
     40202         1         0     40205         1         0     40208         1         0
     40211         1         0     40213         1         0     40215         1         0
     40218         1         0     40221         1         0     40224         1         0
     40227         1         0     40230         1         0     40233         1         0
     40236         1         0     40240         1         0     40243         1         0
     40246         1         0     40249         1         0     40252         1         0
     40255         1         0     40258         1         0     40261         1         0
     40264         1         0     40267         1         0     40270         1         0
     40273         1         0     40276         1         0     40279         1         0
     40283         2         0     40290         2         0     40301         1         0
     40309         1         0     40318         1         0     40321         1         0
     40324         1         0     40327         1         0     40330         1         0
     40333         1         0     40336         1         0     40338         1         0
     40340         1         0     40343         1         0     40346         1         0
     40349         1         0     40352         1         0     40355         1         0
     40358         1         0     40361         1         0     40365         1         0
     40368         1         0     40371         1         0     40374         1         0
     40377         1         0     40380         1         0     40383         1         0
     40386         1         0     40389         1         0     40392         1         0
     40395         1         0     40398         1         0     40401         1         0
     40404         1         0     40408         2         0     40424         2         0
     40435         1         0     40443         1         0     40452         1         0
     40455         1         0     40458         1         0     40461         1         0
     40464         1         0     40467         1         0     40470         1         0
     40472         1         0     40474         1         0     40477         1         0
     40480         1         0     40483         1         0     40486         1         0
     40489         1         0     40492         1         0     40495         1         0
     40499         1         0     40502         1         0     40505         1         0
     40508         1         0     40511         1         0     40514         1         0
     40517         1         0     40520         1         0     40523         1         0
     40526         1         0     40529         1         0     40532         1         0
     40535         1         0     40538         1         0     40542         2         0
     40549         2         0     40560         1         0     40568         1         0
     40577         1         0     40580         1         0     40583         1         0
     40586         1         0     40589         1         0     40592         1         0
     40595         1         0     40597         1         0     40599         1         0
     40602         1         0     40605         1         0     40608         1         0
     40611         1         0     40614         1         0     40617         1         0
     40620         1         0     40624         1         0     40627         1         0
     40630         1         0     40633         1         0     40636         1         0
     40639         1         0     40642         1         0     40645         1         0
     40648         1         0     40651         1         0     40654         1         0
     40657         1         0     40660         1         0     40663         1         0
     40667         2         0     40674         2         0     40685         1         0
     40693         1         0     40702         1         0     40705         1         0
     40708         1         0     40711         1         0     40714         1         0
     40717         1         0     40720         1         0     40722         1         0
     40724         1         0     40727         1         0     40730         1         0
     40733         1         0     40736         1         0     40739         1         0
     40742         1         0     40745         1         0     40749         1         0
     40752         1         0     40755         1         0     40758         1         0
     40761         1         0     40764         1         0     40767         1         0
     40770         1         0     40773         1         0     40776         1         0
     40779         1         0     40782         1         0     40785         1         0
     40788         1         0     40792         2         0     40808         2         0
     40819         1         0     40827         1         0     40836         1         0
     40839         1         0     40842         1         0     40845         1         0
     40848         1         0     40851         1         0     40854         1         0
     40856         1         0     40858         1         0     40861         1         0
     40864         1         0     40867         1         0     40870         1         0
     40873         1         0     40876         1         0     40879         1         0
     40883         1         0     40886         1         0     40889         1         0
     40892         1         0     40895         1         0     40898         1         0
     40901         1         0     40904         1         0     40907         1         0
     40910         1         0     40913         1         0     40916         1         0
     40919         1         0     40922         1         0     40926         2         0
     40942         2         0     40953         1         0     40961         1         0
     40970         1         0     40973         1         0     40976         1         0
     40979         1         0     40982         1         0     40985         1         0
     40988         1         0     40990         1         0     40992         1         0
     40995         1         0     40998         1         0     41001         1         0
     41004         1         0     41007         1         0     41010         1         0
     41013         1         0     41017         1         0     41020         1         0
     41023         1         0     41026         1         0     41029         1         0
     41032         1         0     41035         1         0     41038         1         0
     41041         1         0     41044         1         0     41047         1         0
     41050         1         0     41053         1         0     41056         1         0
     41060         2         0     41067         2         0     41078         1         0
     41086         1         0     41095         1         0     41098         1         0
     41101         1         0     41104         1         0     41107         1         0
     41110         1         0     41113         1         0     41115         1         0
     41117         1         0     41120         1         0     41123         1         0
     41126         1         0     41129         1         0     41132         1         0
     41135         1         0     41138         1         0     41142         1         0
     41145         1         0     41148         1         0     41151         1         0
     41154         1         0     41157         1         0     41160         1         0
     41163         1         0     41166         1         0     41169         1         0
     41172         1         0     41175         1         0     41178         1         0
     41181         1         0     41185         2         0     41201         2         0
     41212         1         0     41220         1         0     41229         1         0
     41232         1         0     41235         1         0     41238         1         0
     41241         1         0     41244         1         0     41247         1         0
     41249         1         0     41251         1         0     41254         1         0
     41257         1         0     41260         1         0     41263         1         0
     41266         1         0     41269         1         0     41272         1         0
     41276         1         0     41279         1         0     41282         1         0
     41285         1         0     41288         1         0     41291         1         0
     41294         1         0     41297         1         0     41300         1         0
     41303         1         0     41306         1         0     41309         1         0
     41312         1         0     41315         1         0     41319         2         0
     41335         2         0     41346         1         0     41354         1         0
     41363         1         0     41366         1         0     41369         1         0
     41372         1         0     41375         1         0     41378         1         0
     41381         1         0     41383         1         0     41385         1         0
     41388         1         0     41391         1         0     41394         1         0
     41397         1         0     41400         1         0     41403         1         0
     41406         1         0     41410         1         0     41413         1         0
     41416         1         0     41419         1         0     41422         1         0
     41425         1         0     41428         1         0     41431         1         0
     41434         1         0     41437         1         0     41440         1         0
     41443         1         0     41446         1         0     41449         1         0
     41453         2         0     41460         2         0     41471         1         0
     41479         1         0     41488         1         0     41491         1         0
     41494         1         0     41497         1         0     41500         1         0
     41503         1         0     41506         1         0     41508         1         0
     41510         1         0     41513         1         0     41516         1         0
     41519         1         0     41522         1         0     41525         1         0
     41528         1         0     41531         1         0     41535         1         0
     41538         1         0     41541         1         0     41544         1         0
     41547         1         0     41550         1         0     41553         1         0
     41556         1         0     41559         1         0     41562         1         0
     41565         1         0     41568         1         0     41571         1         0
     41574         1         0     41578         2         0     41585         2         0
     41596         1         0     41604         1         0     41613         1         0
     41616         1         0     41619         1         0     41622         1         0
     41625         1         0     41628         1         0     41631         1         0
     41633         1         0     41635         1         0     41638         1         0
     41641         1         0     41644         1         0     41647         1         0
     41650         1         0     41653         1         0     41656         1         0
     41660         1         0     41663         1         0     41666         1         0
     41669         1         0     41672         1         0     41675         1         0
     41678         1         0     41681         1         0     41684         1         0
     41687         1         0     41690         1         0     41693         1         0
     41696         1         0     41699         1         0     41703         2         0
     41719         2         0     41730         1         0     41738         1         0
     41747         1         0     41750         1         0     41753         1         0
     41756         1         0     41759         1         0     41762         1         0
     41765         1         0     41767         1         0     41769         1         0
     41772         1         0     41775         1         0     41778         1         0
     41781         1         0     41784         1         0     41787         1         0
     41790         1         0     41794         1         0     41797         1         0
     41800         1         0     41803         1         0     41806         1         0
     41809         1         0     41812         1         0     41815         1         0
     41818         1         0     41821         1         0     41824         1         0
     41827         1         0     41830         1         0     41833         1         0
     41837         2         0     41844         2         0     41855         1         0
     41863         1         0     41872         1         0     41875         1         0
     41878         1         0     41881         1         0     41884         1         0
     41887         1         0     41890         1         0     41892         1         0
     41894         1         0     41897         1         0     41900         1         0
     41903         1         0     41906         1         0     41909         1         0
     41912         1         0     41915         1         0     41919         1         0
     41922         1         0     41925         1         0     41928         1         0
     41931         1         0     41934         1         0     41937         1         0
     41940         1         0     41943         1         0     41946         1         0
     41949         1         0     41952         1         0     41955         1         0
     41958         1         0     41962         2         0     41978         2         0
     41989         1         0     41997         1         0     42006         1         0
     42009         1         0     42012         1         0     42015         1         0
     42018         1         0     42021         1         0     42024         1         0
     42026         1         0     42028         1         0     42031         1         0
     42034         1         0     42037         1         0     42040         1         0
     42043         1         0     42046         1         0     42049         1         0
     42053         1         0     42056         1         0     42059         1         0
     42062         1         0     42065         1         0     42068         1         0
     42071         1         0     42074         1         0     42077         1         0
     42080         1         0     42083         1         0     42086         1         0
     42089         1         0     42092         1         0     42096         2         0
     42103         2         0     42114         1         0     42122         1         0
     42131         1         0     42134         1         0     42137         1         0
     42140         1         0     42143         1         0     42146         1         0
     42149         1         0     42151         1         0     42153         1         0
     42156         1         0     42159         1         0     42162         1         0
     42165         1         0     42168         1         0     42171         1         0
     42174         1         0     42178         1         0     42181         1         0
     42184         1         0     42187         1         0     42190         1         0
     42193         1         0     42196         1         0     42199         1         0
     42202         1         0     42205         1         0     42208         1         0
     42211         1         0     42214         1         0     42217         1         0
     42221         2         0     42228         2         0     42239         1         0
     42247         1         0     42256         1         0     42259         1         0
     42262         1         0     42265         1         0     42268         1         0
     42271         1         0     42274         1         0     42276         1         0
     42278         1         0     42281         1         0     42284         1         0
     42287         1         0     42290         1         0     42293         1         0
     42296         1         0     42299         1         0     42303         1         0
     42306         1         0     42309         1         0     42312         1         0
     42315         1         0     42318         1         0     42321         1         0
     42324         1         0     42327         1         0     42330         1         0
     42333         1         0     42336         1         0     42339         1         0
     42342         1         0     42346         2         0     42353         2         0
     42364         1         0     42372         1         0     42381         1         0
     42384         1         0     42387         1         0     42390         1         0
     42393         1         0     42396         1         0     42399         1         0
     42401         1         0     42403         1         0     42406         1         0
     42409         1         0     42412         1         0     42415         1         0
     42418         1         0     42421         1         0     42424         1         0
     42428         1         0     42431         1         0     42434         1         0
     42437         1         0     42440         1         0     42443         1         0
     42446         1         0     42449         1         0     42452         1         0
     42455         1         0     42458         1         0     42461         1         0
     42464         1         0     42467         1         0     42471         2         0
     42478         2         0     42489         1         0     42497         1         0
     42506         1         0     42509         1         0     42512         1         0
     42515         1         0     42518         1         0     42521         1         0
     42524         1         0     42526         1         0     42528         1         0
     42531         1         0     42534         1         0     42537         1         0
     42540         1         0     42543         1         0     42546         1         0
     42549         1         0     42553         1         0     42556         1         0
     42559         1         0     42562         1         0     42565         1         0
     42568         1         0     42571         1         0     42574         1         0
     42577         1         0     42580         1         0     42583         1         0
     42586         1         0     42589         1         0     42592         1         0
     42596         2         0     42603         2         0     42614         1         0
     42622         1         0     42631         1         0     42634         1         0
     42637         1         0     42640         1         0     42643         1         0
     42646         1         0     42649         1         0     42651         1         0
     42653         1         0     42656         1         0     42659         1         0
     42662         1         0     42665         1         0     42668         1         0
     42671         1         0     42674         1         0     42678         1         0
     42681         1         0     42684         1         0     42687         1         0
     42690         1         0     42693         1         0     42696         1         0
     42699         1         0     42702         1         0     42705         1         0
     42708         1         0     42711         1         0     42714         1         0
     42717         1         0     42721         2         0     42728         2         0
     42739         1         0     42747         1         0     42756         1         0
     42759         1         0     42762         1         0     42765         1         0
     42768         1         0     42771         1         0     42774         1         0
     42776         1         0     42778         1         0     42781         1         0
     42784         1         0     42787         1         0     42790         1         0
     42793         1         0     42796         1         0     42799         1         0
     42803         1         0     42806         1         0     42809         1         0
     42812         1         0     42815         1         0     42818         1         0
     42821         1         0     42824         1         0     42827         1         0
     42830         1         0     42833         1         0     42836         1         0
     42839         1         0     42842         1         0

         0         0 !NUMLP NUMLPH

         0 !NCRTERM: cross-terms

